Control file title. For DL_FIELD 4.10
49786
    1MOL     C1    1   6.274   1.849   1.311 -0.4202 -0.8392  0.2817
    1MOL     C2    2   6.380   1.756   1.298 -0.3389 -1.1891  0.2055
    1MOL     C3    3   6.498   1.787   1.225  0.3370  0.0000  0.0741
    1MOL     O4    4   6.595   1.690   1.203  0.1046  0.2005 -0.1414
    1MOL     C5    5   6.509   1.918   1.174  0.1955 -0.7000  0.1987
    1MOL     C6    6   6.412   2.016   1.200 -0.3840  0.1512 -0.5993
    1MOL     C7    7   6.291   1.980   1.265 -1.0251 -1.6956  0.8216
    1MOL     C8    8   6.173   2.070   1.265 -0.2926  0.3166 -0.4045
    1MOL     O9    9   6.132   2.106   1.159  0.0911  0.4945  0.0295
    1MOL    C10   10   6.104   2.106   1.393 -0.2461  0.1316 -0.1206
    1MOL    C11   11   6.166   2.091   1.522 -0.2944 -0.6152  0.0761
    1MOL    C12   12   6.103   2.144   1.638  0.9526 -0.0986  0.4306
    1MOL    C13   13   5.975   2.204   1.635 -0.2066 -0.4883  0.7247
    1MOL    O14   14   5.921   2.262   1.743  0.4130 -0.3170  0.4552
    1MOL    C15   15   5.792   2.233   1.784  0.0470  0.0565 -0.3047
    1MOL    C16   16   5.701   2.333   1.820  0.1419 -0.1269  0.2267
    1MOL    C17   17   5.570   2.301   1.869  0.4311 -0.0096  0.5579
    1MOL    C18   18   5.533   2.165   1.893 -0.6748 -0.3326  0.2176
    1MOL    C19   19   5.629   2.065   1.854 -0.7109  0.3395  0.4737
    1MOL    C20   20   5.754   2.102   1.801 -0.1856 -0.2522 -0.0681
    1MOL    C21   21   5.907   2.208   1.504 -0.5075  0.3163  0.3424
    1MOL    C22   22   5.976   2.167   1.386  0.1521  0.2066  0.1777
    1MOL    H23   23   6.177   1.810   1.339 -0.8724  0.4607  0.5312
    1MOL    H24   24   6.350   1.654   1.319  0.5534 -1.7214 -1.0604
    1MOL    H25   25   6.598   1.955   1.124  0.1859 -1.2893 -0.2678
    1MOL    H26   26   6.409   2.111   1.149 -0.7106 -0.6530 -2.1380
    1MOL    H27   27   6.266   2.053   1.534 -0.1805 -0.2336  0.3577
    1MOL    H28   28   6.150   2.141   1.735  0.6417  0.1973  0.5925
    1MOL    H29   29   5.737   2.435   1.821  0.3940 -0.2166  0.5688
    1MOL    H30   30   5.495   2.374   1.897  1.0984 -0.2649  3.1342
    1MOL    H31   31   5.607   1.959   1.855 -3.0217  0.7104 -2.9500
    1MOL    H32   32   5.834   2.035   1.774 -0.9097 -0.0742 -2.7641
    1MOL    H33   33   5.812   2.259   1.492 -0.1907  0.8379  0.0527
    1MOL    H34   34   5.923   2.181   1.293  1.7248  1.0927 -0.6140
    1MOL    H35   35   6.658   1.720   1.139 -0.2309  1.1629 -0.0196
    1MOL    C36   36   5.201   2.369   2.099 -1.2058 -0.4926 -0.3446
    1MOL    C37   37   5.281   2.301   2.003  0.0875  0.8210 -0.1190
    1MOL    C38   38   5.359   2.186   2.041  0.1355  0.1759  1.0565
    1MOL    O39   39   5.419   2.115   1.948 -0.2996  0.1859 -0.1548
    1MOL    C40   40   5.359   2.150   2.180  0.1547 -0.7526 -0.0278
    1MOL    C41   41   5.282   2.225   2.271 -0.5981 -0.3199 -0.1891
    1MOL    C42   42   5.202   2.329   2.232 -0.0424  0.3844  0.2648
    1MOL    C43   43   5.125   2.413   2.334 -0.3828 -0.0719 -0.1288
    1MOL    O44   44   5.149   2.395   2.452  0.5472  1.0605 -0.9945
    1MOL    C45   45   5.028   2.521   2.296 -0.8628  1.4957 -0.0543
    1MOL    C46   46   5.036   2.639   2.363 -1.0095 -0.6336  0.3169
    1MOL    C47   47   4.959   2.752   2.323 -0.3587 -0.4376 -0.6320
    1MOL    C48   48   4.861   2.737   2.222 -0.4656 -0.1189  0.1019
    1MOL    O49   49   4.783   2.844   2.188  0.1760  0.4903 -0.5951
    1MOL    C50   50   4.655   2.843   2.235 -0.7805  0.3004 -0.0087
    1MOL    C51   51   4.558   2.910   2.161  0.2938 -0.5860  0.2708
    1MOL    C52   52   4.422   2.940   2.216 -0.4505 -0.1707 -1.2239
    1MOL    C53   53   4.395   2.897   2.348  0.6677  0.5289 -0.2154
    1MOL    C54   54   4.491   2.831   2.422  0.4947 -0.2496  0.9366
    1MOL    C55   55   4.617   2.796   2.366 -0.0247  0.4516  0.2618
    1MOL    C56   56   4.846   2.610   2.160  0.1101 -0.4977  0.2128
    1MOL    C57   57   4.933   2.504   2.192 -0.2438 -0.1762  0.1268
    1MOL    H58   58   5.148   2.454   2.059  3.3315  1.8143 -1.7789
    1MOL    H59   59   5.271   2.329   1.899  1.3837  0.5727 -0.3313
    1MOL    H60   60   5.431   2.080   2.220  1.3343 -0.5130 -1.6776
    1MOL    H61   61   5.286   2.208   2.378  0.2531 -1.2597 -0.3566
    1MOL    H62   62   5.118   2.647   2.433  0.0832  3.9490 -1.3517
    1MOL    H63   63   4.975   2.848   2.370  0.5419 -0.0095 -1.7801
    1MOL    H64   64   4.581   2.947   2.063 -0.0521  0.6648  0.6507
    1MOL    H65   65   4.357   2.987   2.144 -1.7268  1.1296  0.7167
    1MOL    H66   66   4.474   2.782   2.517  1.1684 -2.6627 -0.1296
    1MOL    H67   67   4.675   2.741   2.437  0.1527 -0.8816 -0.8861
    1MOL    H68   68   4.775   2.600   2.080 -1.2535  2.0620  1.0488
    1MOL    H69   69   4.916   2.414   2.134 -2.0454  0.2184  0.0089
    1MOL    C70   70   4.126   3.024   2.712  0.9900 -0.0013  0.1415
    1MOL    C71   71   4.143   2.951   2.596 -0.0341 -0.7007 -0.5070
    1MOL    C72   72   4.245   2.992   2.506 -0.1562 -0.1178 -0.7039
    1MOL    O73   73   4.267   2.907   2.402 -0.1902 -0.5091 -0.5670
    1MOL    C74   74   4.317   3.113   2.523 -0.0039 -0.2360  0.1684
    1MOL    C75   75   4.290   3.185   2.642 -0.2367  0.3103 -0.8060
    1MOL    C76   76   4.200   3.138   2.741  0.1479 -0.1729 -0.1150
    1MOL    C77   77   4.181   3.203   2.873  0.6737  0.1861 -0.3975
    1MOL    O78   78   4.136   3.319   2.879  0.0806 -0.4851 -0.2779
    1MOL    C79   79   4.210   3.130   3.003 -0.3580  0.2271  0.2126
    1MOL    C80   80   4.282   3.013   2.993  0.1065 -0.0120  0.1861
    1MOL    C81   81   4.325   2.951   3.109  0.5121  0.5996 -0.4395
    1MOL    C82   82   4.292   2.996   3.234 -0.2757 -0.4307  0.6049
    1MOL    O83   83   4.318   2.931   3.350  0.2333  0.5990 -0.1760
    1MOL    C84   84   4.313   2.793   3.360  0.8046  0.1036  0.8802
    1MOL    C85   85   4.208   2.714   3.304 -0.7956 -0.4535  0.9438
    1MOL    C86   86   4.200   2.574   3.319  0.9258  0.2902 -0.1862
    1MOL    C87   87   4.299   2.514   3.396  0.1728 -0.3365 -0.0978
    1MOL    C88   88   4.403   2.594   3.448  0.5555 -0.7910 -0.0060
    1MOL    C89   89   4.415   2.732   3.426 -0.2030 -0.4017  0.4412
    1MOL    C90   90   4.202   3.105   3.240  0.4800  0.6938  0.2189
    1MOL    C91   91   4.165   3.178   3.129 -0.3683 -0.2612  0.5714
    1MOL    H92   92   4.045   2.996   2.778  0.2737 -0.6679 -0.9834
    1MOL    H93   93   4.092   2.858   2.574  1.1444 -1.2217 -1.0662
    1MOL    H94   94   4.385   3.156   2.452 -0.4669  0.1526 -0.0465
    1MOL    H95   95   4.344   3.275   2.667 -1.0337  0.0751  1.9541
    1MOL    H96   96   4.318   2.973   2.900  0.9921 -0.1765  0.6012
    1MOL    H97   97   4.376   2.856   3.106 -0.5969 -0.0164  0.1997
    1MOL    H98   98   4.136   2.768   3.245  1.5055  0.9924 -0.6701
    1MOL    H99   99   4.114   2.523   3.278  1.5746 -0.9829  0.0230
    1MOL   H100  100   4.473   2.546   3.515  1.2005  0.8749  0.5413
    1MOL   H101  101   4.500   2.788   3.461  0.0051 -0.0459 -0.6165
    1MOL   H102  102   4.166   3.139   3.336 -1.9144  0.4397 -0.5681
    1MOL   H103  103   4.106   3.268   3.137  1.7304  1.2192 -0.0916
    1MOL   C104  104   4.361   2.148   3.137  0.0443 -0.6511 -0.4782
    1MOL   C105  105   4.286   2.232   3.225  0.1679  0.0933 -0.5719
    1MOL   C106  106   4.364   2.309   3.316  0.0267 -0.1279  0.9273
    1MOL   O107  107   4.297   2.379   3.411  0.2360 -0.1241 -0.0616
    1MOL   C108  108   4.505   2.304   3.320 -0.0355 -0.0432  0.3441
    1MOL   C109  109   4.569   2.208   3.233  0.0053  0.6246 -0.1123
    1MOL   C110  110   4.500   2.128   3.136 -1.0486 -0.2971  0.2153
    1MOL   C111  111   4.577   2.032   3.054 -0.0372  0.1491 -0.0417
    1MOL   O112  112   4.672   1.966   3.091 -0.2670 -0.5705 -0.7728
    1MOL   C113  113   4.528   2.007   2.910  0.6358  0.6664  0.1446
    1MOL   C114  114   4.459   2.102   2.837 -0.0788 -0.1001  0.0598
    1MOL   C115  115   4.405   2.071   2.715  1.4374  0.0410  0.9937
    1MOL   C116  116   4.420   1.944   2.654 -0.3845 -0.0750  0.2729
    1MOL   O117  117   4.365   1.923   2.531  0.4273  0.1327  0.6335
    1MOL   C118  118   4.306   1.800   2.503 -0.0189  0.0414 -0.5016
    1MOL   C119  119   4.179   1.774   2.553 -0.3048  0.5920  0.5613
    1MOL   C120  120   4.110   1.656   2.518  0.0042 -0.5831  0.9268
    1MOL   C121  121   4.167   1.562   2.429 -0.1873 -0.8059  0.2967
    1MOL   C122  122   4.300   1.594   2.372  0.7614 -0.0571 -0.7423
    1MOL   C123  123   4.367   1.712   2.408  1.2352 -0.6691 -0.8456
    1MOL   C124  124   4.497   1.849   2.721 -0.3632  0.6186 -0.8599
    1MOL   C125  125   4.557   1.880   2.849 -0.9619  0.4948 -0.3454
    1MOL   H126  126   4.302   2.087   3.071  2.0108 -3.7068  0.4947
    1MOL   H127  127   4.178   2.232   3.217  0.1122 -2.4583 -0.2187
    1MOL   H128  128   4.563   2.358   3.393 -0.3208  0.5425  0.1340
    1MOL   H129  129   4.675   2.189   3.244  0.4222  0.9789 -3.0231
    1MOL   H130  130   4.440   2.203   2.871 -3.0223  0.3752 -2.7408
    1MOL   H131  131   4.346   2.144   2.663  3.4868 -0.7058 -2.5542
    1MOL   H132  132   4.125   1.856   2.598  0.4731  0.9979  0.7638
    1MOL   H133  133   4.005   1.645   2.539  0.0708 -1.1786  0.9472
    1MOL   H134  134   4.338   1.533   2.291  2.1361  2.1237 -1.7859
    1MOL   H135  135   4.472   1.731   2.394  1.7581  0.2255  3.5461
    1MOL   H136  136   4.531   1.762   2.667 -0.8228  1.2470 -2.1969
    1MOL   H137  137   4.630   1.813   2.892 -0.9665  0.5817 -0.2050
    1MOL   C138  138   4.143   1.102   2.479  0.2611  0.1178  0.0374
    1MOL   C139  139   4.105   1.215   2.406 -0.0171  0.0881  0.0568
    1MOL   C140  140   4.122   1.342   2.469 -0.0060 -0.1664 -0.1419
    1MOL   O141  141   4.093   1.454   2.394  0.6257 -0.2608 -0.1085
    1MOL   C142  142   4.166   1.350   2.608 -0.4253  0.5439  0.8273
    1MOL   C143  143   4.210   1.237   2.672 -0.1886  0.1864 -0.8357
    1MOL   C144  144   4.200   1.109   2.608  0.0261  0.6342 -0.0818
    1MOL   C145  145   4.261   0.985   2.687 -0.0138 -0.4136  0.2493
    1MOL   O146  146   4.235   0.965   2.802  0.6169 -0.1256 -0.4699
    1MOL   C147  147   4.362   0.905   2.611 -0.3283  0.0303  0.4036
    1MOL   C148  148   4.427   0.952   2.496  0.5053  0.5394 -0.1152
    1MOL   C149  149   4.527   0.877   2.435  0.2816 -0.2768  0.2880
    1MOL   C150  150   4.555   0.743   2.478  0.1589 -0.5832  0.2951
    1MOL   O151  151   4.652   0.668   2.418 -0.6113 -0.1087 -0.0103
    1MOL   C152  152   4.767   0.737   2.413 -0.4699  0.2764 -0.1045
    1MOL   C153  153   4.814   0.794   2.291  0.8193 -0.3710 -0.5553
    1MOL   C154  154   4.920   0.884   2.282  0.1430 -0.0987  0.1603
    1MOL   C155  155   4.994   0.916   2.403  0.2607 -0.1060  0.4432
    1MOL   C156  156   4.956   0.852   2.522 -0.0568  0.5555  0.1771
    1MOL   C157  157   4.837   0.769   2.531  0.4398 -0.4825 -0.2149
    1MOL   C158  158   4.478   0.689   2.585  0.1071  0.2194  0.0130
    1MOL   C159  159   4.385   0.775   2.656 -0.0445 -0.3067  0.4205
    1MOL   H160  160   4.145   1.020   2.408  1.4771  2.5002 -2.8114
    1MOL   H161  161   4.068   1.210   2.305 -1.9640  1.2307  0.6733
    1MOL   H162  162   4.178   1.448   2.651  0.4054  0.3626  1.0107
    1MOL   H163  163   4.246   1.236   2.774 -2.4780 -0.4075  0.0050
    1MOL   H164  164   4.418   1.054   2.461 -1.2818 -0.0447 -1.4139
    1MOL   H165  165   4.586   0.919   2.355  0.8339 -2.0283 -0.2543
    1MOL   H166  166   4.752   0.791   2.202  1.4259  1.0477 -1.0375
    1MOL   H167  167   4.938   0.933   2.188 -1.4538 -0.4419 -0.3412
    1MOL   H168  168   5.013   0.891   2.606 -1.1228 -0.2285  1.2739
    1MOL   H169  169   4.795   0.757   2.631  2.1274  1.7381  0.7983
    1MOL   H170  170   4.491   0.588   2.619 -0.3165  0.6743  1.5562
    1MOL   H171  171   4.343   0.727   2.743  0.1807 -1.6660 -0.2093
    1MOL   C172  172   5.305   0.924   2.089 -0.6115 -0.5934 -0.3895
    1MOL   C173  173   5.240   0.910   2.213  0.4333 -0.4538  0.7246
    1MOL   C174  174   5.169   1.023   2.267  0.1523  0.4120  0.0690
    1MOL   O175  175   5.095   1.007   2.385 -0.3189  0.2519  0.4185
    1MOL   C176  176   5.180   1.144   2.202 -0.3826  0.5546  0.0847
    1MOL   C177  177   5.260   1.159   2.090 -0.3305 -0.9620  0.0640
    1MOL   C178  178   5.325   1.052   2.029 -0.0604 -0.4156  0.0182
    1MOL   C179  179   5.406   1.083   1.907  0.3330  0.2609  0.8314
    1MOL   O180  180   5.403   1.194   1.851  0.0973 -0.4590 -0.2988
    1MOL   C181  181   5.475   0.972   1.835  0.2679  0.4207  0.0338
    1MOL   C182  182   5.444   0.970   1.699 -0.1335 -0.1077 -0.3106
    1MOL   C183  183   5.503   0.868   1.620 -0.0561 -0.0724 -0.6167
    1MOL   C184  184   5.587   0.772   1.677 -0.9323 -0.2965 -0.4595
    1MOL   O185  185   5.643   0.666   1.607  0.5808  0.3108  0.7917
    1MOL   C186  186   5.576   0.548   1.602 -0.4113  0.7180  0.8789
    1MOL   C187  187   5.443   0.538   1.644 -0.3555 -0.3938  0.2254
    1MOL   C188  188   5.371   0.421   1.615  0.1989  0.1628 -0.2423
    1MOL   C189  189   5.437   0.309   1.565  0.7483 -0.9817  0.2444
    1MOL   C190  190   5.578   0.310   1.542 -0.5097 -0.7242 -0.1569
    1MOL   C191  191   5.641   0.437   1.547  0.2391 -1.5109 -0.3287
    1MOL   C192  192   5.627   0.785   1.811 -0.0265  0.4068  0.4188
    1MOL   C193  193   5.568   0.882   1.894  0.6760  0.0710 -0.0190
    1MOL   H194  194   5.359   0.836   2.058 -0.3579 -0.9148  0.9102
    1MOL   H195  195   5.242   0.813   2.260  2.8324 -1.1001 -0.6363
    1MOL   H196  196   5.157   1.234   2.257  0.0813  1.0757 -0.5690
    1MOL   H197  197   5.272   1.260   2.053 -0.7440 -0.7307  0.5595
    1MOL   H198  198   5.386   1.047   1.650 -1.6554 -0.5833  0.6878
    1MOL   H199  199   5.485   0.861   1.513 -1.0820  0.7538 -0.5092
    1MOL   H200  200   5.398   0.619   1.698  0.0652  1.7425 -2.4762
    1MOL   H201  201   5.267   0.412   1.645  0.5057 -1.6800  0.3146
    1MOL   H202  202   5.631   0.224   1.502 -0.0791 -0.5899  0.1230
    1MOL   H203  203   5.740   0.443   1.506 -0.0493  1.2462 -0.7370
    1MOL   H204  204   5.700   0.720   1.856  1.8020  0.9217 -1.7326
    1MOL   H205  205   5.608   0.898   1.993  0.8306 -0.7347  0.0449
    1MOL   C206  206   5.359   0.020   1.216  0.9523  0.8313  0.5060
    1MOL   C207  207   5.399   0.065   1.343  0.1117 -0.0426  0.2668
    1MOL   C208  208   5.341   0.174   1.405  0.3510  0.0662  0.4183
    1MOL   O209  209   5.370   0.198   1.538 -0.2170  0.3049  0.0912
    1MOL   C210  210   5.239   0.245   1.343  0.8419  0.7619 -0.3519
    1MOL   C211  211   5.199   0.204   1.214  0.0009  0.1271  0.0447
    1MOL   C212  212   5.257   0.093   1.147 -0.3295 -0.1605 -0.2760
    1MOL   C213  213   5.216   0.064   1.009 -0.8892 -0.0555 -0.1429
    1MOL   O214  214   5.304   0.018   0.930  1.0873 -0.0974  0.1938
    1MOL   C215  215   5.077   0.076   0.975 -0.1335 -0.5016  0.1715
    1MOL   C216  216   4.984   0.020   1.065 -0.0039 -0.0674  0.2273
    1MOL   C217  217   4.853   8.309   1.028 -0.0960  0.0115  0.4175
    1MOL   C218  218   4.810   0.042   0.902  0.0503  0.6806  0.1543
    1MOL   O219  219   4.676   0.025   0.862 -0.9058  0.2036  0.0854
    1MOL   C220  220   4.640   8.224   0.798  0.1873 -0.5719 -0.2184
    1MOL   C221  221   4.519   8.168   0.833  0.3093 -0.1110  0.1484
    1MOL   C222  222   4.482   8.047   0.778 -0.5052  0.3606 -0.8663
    1MOL   C223  223   4.564   7.986   0.683  0.0901  0.3537  0.3253
    1MOL   C224  224   4.687   8.042   0.642  0.8336  0.2349  0.0243
    1MOL   C225  225   4.722   8.167   0.695  0.6346  0.1680 -0.8945
    1MOL   C226  226   4.903   0.093   0.814 -0.2983 -0.2283  0.9773
    1MOL   C227  227   5.036   0.105   0.850  0.2763  0.2452 -0.3887
    1MOL   H228  228   5.402   8.243   1.176  1.4209  1.1303  0.3335
    1MOL   H229  229   5.463   8.312   1.401 -0.0458 -0.7312 -0.3261
    1MOL   H230  230   5.195   0.329   1.394  2.0500  0.9545  0.4036
    1MOL   H231  231   5.137   0.262   1.147  0.8199  0.2305 -0.6273
    1MOL   H232  232   5.011   8.290   1.160 -0.2975 -2.7577 -0.8608
    1MOL   H233  233   4.783   8.259   1.094 -0.4713  0.4656  0.3652
    1MOL   H234  234   4.461   8.212   0.913  0.0752  1.2192 -0.7311
    1MOL   H235  235   4.386   8.005   0.804 -0.2081  0.0896 -0.1983
    1MOL   H236  236   4.745   7.989   0.568  0.8684  1.9191 -1.1575
    1MOL   H237  237   4.807   8.224   0.662  0.7489  1.6119  1.7372
    1MOL   H238  238   4.863   0.132   0.721  1.3665 -2.1982 -0.6364
    1MOL   H239  239   5.106   0.138   0.774  1.4314  0.0558  0.5892
    1MOL   C240  240   4.248   8.001   0.387 -0.1533  0.3479  0.2056
    1MOL   C241  241   4.329   7.986   0.503  0.3815  0.3820  0.8650
    1MOL   C242  242   4.441   7.900   0.499 -0.4157  0.2624  0.2758
    1MOL   O243  243   4.521   7.877   0.607  0.2561 -0.1964 -0.2436
    1MOL   C244  244   4.485   7.828   0.380  0.0587 -0.9660  0.2731
    1MOL   C245  245   4.405   7.848   0.264  0.5053 -0.1174  0.1465
    1MOL   C246  246   4.284   7.926   0.271 -0.0346 -0.5162  0.6647
    1MOL   C247  247   4.190   7.923   0.149 -0.2890 -0.1002 -0.2966
    1MOL   O248  248   4.133   7.818   0.117 -0.4163 -0.0356 -0.3530
    1MOL   C249  249   4.166   8.055   0.072 -0.4976  1.6086 -0.1810
    1MOL   C250  250   4.070   8.056   8.281 -0.4627 -0.4939 -0.3915
    1MOL   C251  251   4.054   8.170   8.203 -0.8282  0.5065  0.5203
    1MOL   C252  252   4.122   8.287   8.240 -0.4571 -0.0143 -0.2104
    1MOL   O253  253   4.088   0.084   8.168  0.2632 -0.6175  0.0702
    1MOL   C254  254   4.188   0.142   8.093 -0.0073 -0.2819  0.4152
    1MOL   C255  255   4.236   0.269   8.114  0.6991  0.4190  0.0956
    1MOL   C256  256   4.343   0.317   8.038 -0.8716  0.9816 -0.5167
    1MOL   C257  257   4.396   0.233   7.934  0.5378  0.0543 -0.4203
    1MOL   C258  258   4.353   0.100   7.922  0.0303 -0.1783  0.3867
    1MOL   C259  259   4.243   0.059   7.993  0.5514 -0.4134 -0.0000
    1MOL   C260  260   4.214   8.290   0.032 -0.4274  0.4680 -0.0907
    1MOL   C261  261   4.234   8.171   0.106 -0.5688  0.8682 -0.1363
    1MOL   H262  262   4.154   8.054   0.393 -0.7959 -0.6791 -0.4392
    1MOL   H263  263   4.304   8.030   0.599  0.0763  0.3205  0.8141
    1MOL   H264  264   4.580   7.777   0.375  0.2515 -0.6221  0.3827
    1MOL   H265  265   4.431   7.796   0.174 -2.9740 -0.5324 -0.6852
    1MOL   H266  266   4.015   7.969   8.249 -0.3097 -1.3533  1.6520
    1MOL   H267  267   3.978   8.160   8.127 -1.5704  1.8604  1.0635
    1MOL   H268  268   4.192   0.331   8.191 -0.9649 -2.0231  1.1615
    1MOL   H269  269   4.388   0.414   8.050  0.8984  0.1860 -0.5974
    1MOL   H270  270   4.399   0.030   7.854  0.2357  1.3936 -1.1302
    1MOL   H271  271   4.196   8.275   7.980  1.1381 -0.6574 -0.3429
    1MOL   H272  272   4.261   0.066   0.071 -2.2592  0.5958  1.9223
    1MOL   H273  273   4.301   8.163   0.190 -1.8076 -1.2854  0.6759
    1MOL   C274  274   4.631   0.600   7.821 -0.2972 -0.3564  0.2583
    1MOL   C275  275   4.599   0.477   7.880 -0.0082  0.0044  1.0262
    1MOL   C276  276   4.501   0.396   7.813 -0.5983  0.3507 -0.5595
    1MOL   O277  277   4.498   0.271   7.852 -0.3566  0.7574  0.9893
    1MOL   C278  278   4.420   0.445   7.713  0.5038  0.1368 -0.1961
    1MOL   C279  279   4.443   0.574   7.669 -0.1537 -0.1158  0.3448
    1MOL   C280  280   4.553   0.644   7.713 -0.1630  0.6127  0.1516
    1MOL   C281  281   4.586   0.765   7.631 -0.3760  0.1636 -0.3553
    1MOL   O282  282   4.566   0.768   7.510  0.2881 -0.1056 -0.1423
    1MOL   C283  283   4.662   0.873   7.695  0.0988 -0.2628  1.0666
    1MOL   C284  284   4.744   0.951   7.609  0.6088  0.5762 -0.0921
    1MOL   C285  285   4.802   1.068   7.665 -0.6410  0.0856 -0.2259
    1MOL   C286  286   4.782   1.108   7.799 -0.0858  0.2551  0.4887
    1MOL   O287  287   4.841   1.226   7.832  0.0020 -0.2639  0.3817
    1MOL   C288  288   4.892   1.255   7.954 -0.7134  0.4529 -0.6315
    1MOL   C289  289   4.972   1.167   8.026 -1.0266 -0.0158 -0.4375
    1MOL   C290  290   5.029   1.198   8.148 -0.3767 -0.4829  0.1210
    1MOL   C291  291   5.010   1.324   8.205  0.3177  0.3228 -0.2884
    1MOL   C292  292   4.949   1.423   8.126  0.6005  0.1504 -0.2598
    1MOL   C293  293   4.884   1.390   8.003  0.1054  0.6755  0.6447
    1MOL   C294  294   4.708   1.023   7.887 -0.3305 -0.4687 -0.0826
    1MOL   C295  295   4.644   0.911   7.831  0.4419  0.4395  0.5388
    1MOL   H296  296   4.722   0.647   7.856 -0.4458  2.0704 -2.3961
    1MOL   H297  297   4.654   0.428   7.958  0.6113 -1.1352 -0.0967
    1MOL   H298  298   4.363   0.373   7.656  0.1842 -0.0990  0.4192
    1MOL   H299  299   4.397   0.596   7.574  0.9550  1.2951  0.1179
    1MOL   H300  300   4.755   0.918   7.506  1.1597 -2.6788  0.9319
    1MOL   H301  301   4.868   1.121   7.597 -0.6903 -0.6594 -0.8672
    1MOL   H302  302   4.990   1.072   7.977  3.7533  0.1525  0.7170
    1MOL   H303  303   5.088   1.121   8.196  2.8174  1.0188 -1.1843
    1MOL   H304  304   4.933   1.523   8.163  2.1673 -0.0192  0.9079
    1MOL   H305  305   4.820   1.461   7.952  1.8068  0.8331 -1.3509
    1MOL   H306  306   4.691   1.053   7.989 -0.6374  0.8792 -0.5202
    1MOL   H307  307   4.584   0.850   7.896  0.5202  0.5731  0.7377
    1MOL   C308  308   5.406   1.474   8.285  0.2276 -0.2525 -0.5180
    1MOL   C309  309   5.290   1.398   8.256 -0.5094  0.2365 -0.5205
    1MOL   C310  310   5.177   1.426   0.020  0.0519 -0.2409  0.0508
    1MOL   O311  311   5.069   1.343   0.012  0.2817  0.3107  0.3409
    1MOL   C312  312   5.170   1.531   0.109  0.3034 -0.7466  0.0099
    1MOL   C313  313   5.284   1.614   0.124  0.7286  0.0021  0.0698
    1MOL   C314  314   5.403   1.586   0.053 -0.3618  0.1950 -0.3446
    1MOL   C315  315   5.528   1.664   0.088 -0.1505 -0.5230 -0.1453
    1MOL   O316  316   5.630   1.603   0.120  0.1207 -0.0384 -0.0288
    1MOL   C317  317   5.527   1.811   0.092  0.5757 -0.1190 -0.3191
    1MOL   C318  318   5.411   1.881   0.050  0.4402  0.0470  0.0309
    1MOL   C319  319   5.417   2.022   0.043  0.2847 -0.3458  0.8019
    1MOL   C320  320   5.539   2.090   0.073 -1.0024  0.6243  0.7318
    1MOL   O321  321   5.536   2.228   0.069 -0.7172 -0.0551  0.3235
    1MOL   C322  322   5.593   2.294   8.279 -0.8463  0.0078 -0.2985
    1MOL   C323  323   5.730   2.291   8.263  0.1761 -0.2377 -0.8739
    1MOL   C324  324   5.786   2.382   8.169 -0.4356  0.0169 -0.6379
    1MOL   C325  325   5.711   2.477   8.095  0.2259 -0.3990  0.2375
    1MOL   C326  326   5.573   2.474   8.110  0.0607 -0.2016 -0.6130
    1MOL   C327  327   5.511   2.384   8.199  0.1970  0.7249  0.0469
    1MOL   C328  328   5.648   2.020   0.119 -0.3105  0.0250 -0.5011
    1MOL   C329  329   5.642   1.883   0.129 -0.7953 -0.3572  0.9803
    1MOL   H330  330   5.497   1.460   8.229 -0.3648 -0.4394 -1.4372
    1MOL   H331  331   5.297   1.324   8.177  3.2024 -0.3487  0.2650
    1MOL   H332  332   5.080   1.544   0.168 -0.0088  0.3112 -0.6824
    1MOL   H333  333   5.282   1.693   0.197  1.5327  1.0654 -1.0231
    1MOL   H334  334   5.331   1.830   8.312 -0.7871  2.3588 -0.4172
    1MOL   H335  335   5.338   2.085   0.006 -0.5693 -2.4829 -1.1377
    1MOL   H336  336   5.807   2.238   0.004  1.1460  1.9919 -0.0088
    1MOL   H337  337   5.892   2.373   8.152 -0.3504 -0.6400  0.2561
    1MOL   H338  338   5.521   2.555   8.060 -0.8250  1.0144  2.1782
    1MOL   H339  339   5.406   2.393   8.223 -0.3026 -0.2296 -1.7185
    1MOL   H340  340   5.731   2.087   0.134 -0.7902  0.5669 -0.2189
    1MOL   H341  341   5.726   1.829   0.169 -0.0764  0.2851  0.3683
    1MOL   C342  342   5.709   2.924   8.025 -0.2459 -1.2657  0.0203
    1MOL   C343  343   5.718   2.791   7.988 -0.1308 -0.1320 -0.3791
    1MOL   C344  344   5.785   2.686   8.059 -0.3595  0.0805  0.4190
    1MOL   O345  345   5.779   2.559   8.013 -1.1072  0.8541 -0.4141
    1MOL   C346  346   5.842   2.727   8.177  0.0056  0.2828 -0.3583
    1MOL   C347  347   5.838   2.868   8.214 -0.4357 -0.0058 -0.4733
    1MOL   C348  348   5.780   2.969   8.139 -0.3490 -0.1515 -0.4719
    1MOL   C349  349   5.792   3.112   8.188 -1.0121 -0.3768  0.3361
    1MOL   O350  350   5.812   3.133   8.307  0.2401  0.0727  0.0665
    1MOL   C351  351   5.780   3.225   8.093 -0.3272  0.1630  0.0574
    1MOL   C352  352   5.755   3.353   8.145  0.1197 -0.3765  0.2298
    1MOL   C353  353   5.749   3.463   8.059 -0.4777 -0.4999  0.2627
    1MOL   C354  354   5.772   3.448   7.920  0.4336  0.2028  0.2028
    1MOL   O355  355   5.768   3.554   7.832 -0.3162  0.3812 -0.8166
    1MOL   C356  356   5.864   3.650   7.845  0.2321 -0.1954  0.7781
    1MOL   C357  357   5.982   3.639   7.779 -0.4305  0.0006 -0.0682
    1MOL   C358  358   6.090   3.730   7.797 -0.0662 -0.3072  0.2370
    1MOL   C359  359   6.073   3.835   7.886 -0.1699 -0.2198 -0.0638
    1MOL   C360  360   5.956   3.841   7.968  0.4890  0.2924  0.3042
    1MOL   C361  361   5.845   3.754   7.934  0.0208  0.2876  0.0289
    1MOL   C362  362   5.804   3.319   7.867 -0.4720  0.3598  0.0822
    1MOL   C363  363   5.807   3.208   7.955  0.0503  0.4881  0.1149
    1MOL   H364  364   5.646   2.981   7.959  1.9608 -0.0125 -1.0909
    1MOL   H365  365   5.658   2.765   7.902 -2.3828  1.3871  0.6836
    1MOL   H366  366   5.905   2.668   8.243 -1.6524 -0.8326  0.2605
    1MOL   H367  367   5.892   2.890   8.305  0.6447  0.5169 -1.2394
    1MOL   H368  368   5.741   3.373   8.251  2.1456 -0.2774  0.4896
    1MOL   H369  369   5.732   3.565   8.093  3.1778  0.4172 -0.4428
    1MOL   H370  370   6.004   3.555   7.715 -0.8281 -1.6810  1.9757
    1MOL   H371  371   6.181   3.720   7.739 -1.4332  2.9272 -2.6175
    1MOL   H372  372   5.945   3.912   8.049 -0.4623 -0.2510  0.6609
    1MOL   H373  373   5.748   3.753   7.981 -0.0685 -1.9087 -0.1265
    1MOL   H374  374   5.813   3.307   7.760 -0.4394  1.3573 -0.0305
    1MOL   H375  375   5.842   3.115   7.913 -0.1640 -0.3095  1.6847
    1MOL   C376  376   6.352   4.024   7.600 -0.8679 -0.0730  0.0539
    1MOL   C377  377   6.238   4.004   7.685 -0.0500 -0.0403  0.3210
    1MOL   C378  378   6.254   3.952   7.816  0.1024  0.3237  0.1317
    1MOL   O379  379   6.155   3.937   7.903 -0.3069  0.6793 -0.1329
    1MOL   C380  380   6.382   3.928   7.859  0.1130 -0.3955  0.0648
    1MOL   C381  381   6.496   3.947   7.784  1.0579 -0.4354  0.6760
    1MOL   C382  382   6.482   3.992   7.652 -0.7092 -0.5177  0.3990
    1MOL   C383  383   6.601   4.023   7.564 -0.5386  0.3102  0.0072
    1MOL   O384  384   6.609   4.131   7.495  0.0339 -0.2357 -0.6788
    1MOL   C385  385   6.712   3.923   7.570 -0.3896 -0.1875  1.1078
    1MOL   C386  386   6.844   3.978   7.587 -0.5095 -0.8365 -1.0234
    1MOL   C387  387   6.950   3.890   7.593 -0.0933  0.2536 -0.0162
    1MOL   C388  388   6.933   3.754   7.565 -0.5814  0.2795  0.4949
    1MOL   O389  389   7.043   3.672   7.564  0.2372  0.0325 -0.3258
    1MOL   C390  390   7.128   3.676   7.667 -0.4853  0.3116  0.0358
    1MOL   C391  391   7.126   3.587   7.778  0.6124  0.0245  0.1135
    1MOL   C392  392   7.229   3.588   7.877  0.0646 -0.5873 -0.0821
    1MOL   C393  393   7.339   3.672   7.867  0.2710 -0.2007  0.9799
    1MOL   C394  394   7.351   3.755   7.758  0.1602 -0.6869 -0.0799
    1MOL   C395  395   7.247   3.759   7.666  0.1644  0.4715  0.3427
    1MOL   C396  396   6.808   3.700   7.550  0.5461  0.2641  0.1940
    1MOL   C397  397   6.697   3.783   7.554  0.5311 -0.2557 -0.3401
    1MOL   H398  398   6.342   4.066   7.501 -3.2891  0.4643  0.4918
    1MOL   H399  399   6.134   4.021   7.663 -0.2200 -1.7602 -0.3210
    1MOL   H400  400   6.391   3.898   7.963 -1.8625 -0.8211  0.1405
    1MOL   H401  401   6.592   3.914   7.822  2.2795  0.2905 -1.6657
    1MOL   H402  402   6.866   4.084   7.590 -0.2343 -0.9304  0.7724
    1MOL   H403  403   7.052   3.925   7.603 -0.1475  0.1027  1.2063
    1MOL   H404  404   7.052   3.509   7.781 -1.9291  2.3419 -0.7412
    1MOL   H405  405   7.235   3.520   7.960  0.6061  0.4181  0.7071
    1MOL   H406  406   7.440   3.813   7.737 -1.2372  0.5605 -2.8721
    1MOL   H407  407   7.263   3.824   7.582  0.2072 -1.1286 -0.9000
    1MOL   H408  408   6.788   3.597   7.524 -1.0399  0.4322  0.6793
    1MOL   H409  409   6.603   3.732   7.544 -0.6844  1.8715 -0.0799
    1MOL   C410  410   7.694   3.446   7.806 -0.1548 -0.0236 -0.1156
    1MOL   C411  411   7.573   3.512   7.828 -0.1193 -0.1751  0.0698
    1MOL   C412  412   7.548   3.591   7.945 -0.6883  0.7180  0.6412
    1MOL   O413  413   7.429   3.663   7.968  0.1501 -0.1463 -0.2939
    1MOL   C414  414   7.655   3.603   8.034  0.2757 -0.4317  0.7928
    1MOL   C415  415   7.783   3.555   8.007  1.3614 -1.3577  0.6884
    1MOL   C416  416   7.807   3.480   7.891  0.1611  0.4506  0.4878
    1MOL   C417  417   7.947   3.435   7.855 -0.0310  0.6485 -0.1142
    1MOL   O418  418   8.011   3.375   7.935 -0.2211 -0.0813  0.0999
    1MOL   C419  419   8.004   3.457   7.718 -0.2413  0.5240 -0.3643
    1MOL   C420  420   8.019   3.577   7.659 -0.1529 -0.6018 -0.3377
    1MOL   C421  421   8.075   3.592   7.527 -0.5110  0.1510 -0.2594
    1MOL   C422  422   8.109   3.477   7.456 -0.3147  0.0783  1.0789
    1MOL   O423  423   8.176   3.490   7.328  0.2181 -0.4174  0.1895
    1MOL   C424  424   8.090   3.530   7.229 -0.7540 -0.0094  0.2388
    1MOL   C425  425   8.129   3.622   7.128  0.2394  0.6495  0.7436
    1MOL   C426  426   8.030   3.678   7.037 -0.1718  0.0241 -0.0796
    1MOL   C427  427   7.895   3.636   7.043  0.2970 -0.2081  0.3458
    1MOL   C428  428   7.856   3.551   7.144 -0.0290 -0.0382  0.0954
    1MOL   C429  429   7.951   3.494   7.231 -0.3272 -0.2390  0.1517
    1MOL   C430  430   8.082   3.354   7.510 -0.1512 -0.2405  0.2264
    1MOL   C431  431   8.036   3.346   7.640  0.2573  0.6086  0.2024
    1MOL   H432  432   7.705   3.383   7.719 -0.6395 -0.8059  0.3813
    1MOL   H433  433   7.485   3.486   7.770 -1.0630 -1.7317  2.1090
    1MOL   H434  434   7.638   3.676   8.112 -3.5722  0.4311 -0.7730
    1MOL   H435  435   7.865   3.583   8.071  1.5877  0.8981 -0.5611
    1MOL   H436  436   7.976   3.661   7.711  1.1946 -0.7122  0.9730
    1MOL   H437  437   8.090   3.694   7.497  0.0496  0.7403  1.9125
    1MOL   H438  438   8.234   3.646   7.117  0.1130  0.9407  0.1100
    1MOL   H439  439   8.056   3.757   6.967  0.1780 -0.5591 -0.6131
    1MOL   H440  440   7.752   3.522   7.151  0.1015 -1.0433 -1.9759
    1MOL   H441  441   7.906   3.424   7.300 -0.9318 -1.3390 -1.3296
    1MOL   H442  442   8.091   3.266   7.449 -4.0296 -0.7653  0.2608
    1MOL   H443  443   8.020   3.247   7.681  1.2768  0.7774  1.0345
    1MOL   C444  444   7.743   4.031   7.094  0.4399 -0.5305 -0.3136
    1MOL   C445  445   7.764   3.893   7.089  1.0667  0.5462 -0.3430
    1MOL   C446  446   7.785   3.833   6.967  0.0669 -0.8297 -0.0037
    1MOL   O447  447   7.802   3.696   6.961  0.2785 -0.0114  0.6410
    1MOL   C448  448   7.787   3.909   6.848  0.2298  0.1904  0.2414
    1MOL   C449  449   7.768   4.047   6.857  0.3542  0.3753 -0.2277
    1MOL   C450  450   7.753   4.117   6.982  0.7089  0.5207  0.0968
    1MOL   C451  451   7.737   4.266   6.982  0.3264  0.2059 -0.3206
    1MOL   O452  452   7.678   4.321   6.891 -0.3413 -0.4226 -0.4580
    1MOL   C453  453   7.815   4.334   7.085  0.3978  0.4128 -0.5056
    1MOL   C454  454   7.921   4.276   7.157 -0.2029  0.4842 -0.0740
    1MOL   C455  455   8.000   4.353   7.244 -0.5285 -0.5928 -0.0454
    1MOL   C456  456   7.952   4.492   7.266  0.4354 -0.0452 -0.4356
    1MOL   O457  457   8.022   4.585   7.336 -0.5946  0.1690  0.0784
    1MOL   C458  458   8.148   4.617   7.288 -0.1921  0.1638  0.3681
    1MOL   C459  459   8.168   4.726   7.204 -0.2029  0.1249 -0.2140
    1MOL   C460  460   8.297   4.765   7.173  0.3150 -0.2954 -0.2566
    1MOL   C461  461   0.099   4.701   7.219  0.2166 -0.1350 -0.8610
    1MOL   C462  462   0.082   4.597   7.317 -0.5370 -0.2718  0.3936
    1MOL   C463  463   8.263   4.547   7.345 -0.4366 -0.4784 -0.2667
    1MOL   C464  464   7.833   4.543   7.207 -0.4980  0.2216  0.6534
    1MOL   C465  465   7.768   4.462   7.112  0.3045 -0.2835 -0.8327
    1MOL   H466  466   7.720   4.074   7.190 -1.7390 -2.5850  0.1289
    1MOL   H467  467   7.754   3.839   7.182  0.5923  0.8826 -0.1964
    1MOL   H468  468   7.792   3.866   6.749 -0.4602 -0.0481  0.3065
    1MOL   H469  469   7.756   4.104   6.766  1.1107  0.6550 -0.1552
    1MOL   H470  470   7.942   4.171   7.140  1.3364  0.8117 -0.2182
    1MOL   H471  471   8.092   4.317   7.286  0.5749  0.3659 -1.5743
    1MOL   H472  472   8.085   4.789   7.176  0.9237  1.0093 -1.6156
    1MOL   H473  473   8.308   4.852   7.109 -0.9212  0.5164  0.5890
    1MOL   H474  474   0.164   4.554   7.372 -0.4586 -1.7480 -0.8279
    1MOL   H475  475   8.253   4.456   7.402  0.0144  0.1652  0.8661
    1MOL   H476  476   7.784   4.636   7.230 -3.2785 -1.4899  1.9786
    1MOL   H477  477   7.688   4.505   7.054  0.9385  1.3978 -0.4804
    1MOL   C478  478   0.290   4.803   6.841 -0.0020  0.2936 -0.4009
    1MOL   C479  479   0.244   4.737   6.960  0.9289  0.1948 -0.8184
    1MOL   C480  480   0.255   4.799   7.086 -0.3586 -0.9067  0.0564
    1MOL   O481  481   0.223   4.748   7.208  0.4058  0.2268 -0.6211
    1MOL   C482  482   0.317   4.930   7.090  0.2637  0.8175 -0.4541
    1MOL   C483  483   0.369   4.993   6.975 -0.4949 -0.0670  0.5244
    1MOL   C484  484   0.357   4.925   6.852 -0.2312 -0.6117 -0.4684
    1MOL   C485  485   0.418   4.984   6.728  0.5777  0.3187  0.1670
    1MOL   O486  486   0.406   5.103   6.698  0.5388 -0.1510  0.3212
    1MOL   C487  487   0.501   4.884   6.650 -0.5695  0.0790  0.6337
    1MOL   C488  488   0.515   4.903   6.512  0.0840 -0.2380 -0.6344
    1MOL   C489  489   0.596   4.817   6.436  0.1642  0.1498  0.2420
    1MOL   C490  490   0.667   4.709   6.497 -0.2570 -0.1547  0.0237
    1MOL   O491  491   0.736   4.619   6.425 -0.3533 -0.0689  0.5264
    1MOL   C492  492   0.658   4.554   6.334 -0.5615  0.8695 -0.1129
    1MOL   C493  493   0.675   4.585   6.198  0.1910 -0.3471  0.0488
    1MOL   C494  494   0.600   4.517   6.098 -0.2395  0.4647  0.3527
    1MOL   C495  495   0.512   4.412   6.140  0.3347  0.7678  0.2464
    1MOL   C496  496   0.511   4.372   6.276 -0.1566 -0.6513  0.4163
    1MOL   C497  497   0.577   4.445   6.371  0.4329  0.5207  0.1031
    1MOL   C498  498   0.652   4.685   6.633  0.1390  0.2771  0.0999
    1MOL   C499  499   0.565   4.769   6.709 -0.3033 -0.0001 -0.1204
    1MOL   H500  500   0.278   4.764   6.741  1.0266 -1.3586  0.0939
    1MOL   H501  501   0.187   4.645   6.957  0.8762  0.2227 -0.6936
    1MOL   H502  502   0.336   4.978   7.185 -2.1216  1.5119 -0.2995
    1MOL   H503  503   0.421   5.087   6.979  0.3764 -0.5861  1.8633
    1MOL   H504  504   0.455   4.982   6.468 -3.1024 -1.0173  2.1035
    1MOL   H505  505   0.597   4.831   6.329 -0.2476 -1.9843 -0.0607
    1MOL   H506  506   0.741   4.665   6.169  0.1862 -0.6804 -0.9102
    1MOL   H507  507   0.624   4.538   5.995 -0.8724 -2.1348 -0.3625
    1MOL   H508  508   0.439   4.302   6.316 -0.6014  1.4054  3.3636
    1MOL   H509  509   0.560   4.423   6.475 -0.6430 -0.8418 -0.3420
    1MOL   H510  510   0.697   4.604   6.688 -0.3075  1.3763  2.1419
    1MOL   H511  511   0.555   4.752   6.816  2.2020 -0.4108  0.0834
    1MOL   C512  512   0.193   4.557   5.908  0.5552  0.1491  0.2671
    1MOL   C513  513   0.320   4.504   5.926  0.3281  0.3657 -0.1379
    1MOL   C514  514   0.335   4.380   5.997  0.8010 -0.4387 -0.3809
    1MOL   O515  515   0.456   4.341   6.040  0.1740 -0.0215  0.7501
    1MOL   C516  516   0.222   4.301   6.037 -0.0119  0.1475 -0.4110
    1MOL   C517  517   0.093   4.356   6.015 -0.2792  0.4866 -0.5947
    1MOL   C518  518   0.076   4.485   5.949  0.1640 -0.5099 -0.4485
    1MOL   C519  519   8.255   4.538   5.915  0.2130 -0.4928  0.1758
    1MOL   O520  520   8.153   4.474   5.938  0.2157 -0.0354 -0.5206
    1MOL   C521  521   8.247   4.671   5.854  0.3189  0.0585 -0.4261
    1MOL   C522  522   8.198   4.786   5.933 -1.1233  0.1695  0.2346
    1MOL   C523  523   8.181   4.911   5.862  0.3372  0.6489  0.3833
    1MOL   C524  524   8.199   4.922   5.725  0.3738  0.4204 -0.4426
    1MOL   O525  525   8.165   5.041   5.664  0.3099  0.2168 -0.0658
    1MOL   C526  526   8.209   5.073   5.538 -0.5078  0.3628 -0.0354
    1MOL   C527  527   8.117   5.110   5.433  0.5022  0.4483  0.2113
    1MOL   C528  528   8.158   5.134   5.298 -0.1071 -0.4708  0.2461
    1MOL   C529  529   8.295   5.132   5.273 -0.1356  0.9250  0.0336
    1MOL   C530  530   0.080   5.110   5.376 -0.1783 -0.3282  0.2822
    1MOL   C531  531   0.036   5.076   5.504  0.2354 -0.1633  0.0557
    1MOL   C532  532   8.254   4.810   5.653 -0.5128 -0.5023  0.2537
    1MOL   C533  533   8.270   4.688   5.715 -0.0605 -0.2533 -0.5053
    1MOL   H534  534   0.175   4.639   5.841 -1.4495 -1.7153 -1.5809
    1MOL   H535  535   0.406   4.554   5.885  0.3808  0.2333 -0.1890
    1MOL   H536  536   0.237   4.208   6.088  1.9224  0.8048  0.2693
    1MOL   H537  537   0.010   4.300   6.055 -1.8167  1.3771 -2.4594
    1MOL   H538  538   8.183   4.788   6.040  1.1478  0.4134  0.5751
    1MOL   H539  539   8.158   4.996   5.924  2.3158  2.9466 -1.9394
    1MOL   H540  540   8.012   5.111   5.458  0.0869  0.1024 -1.5028
    1MOL   H541  541   8.096   5.168   5.217 -2.0652 -2.9231  0.6549
    1MOL   H542  542   0.187   5.114   5.358  0.2428 -1.8889  2.1706
    1MOL   H543  543   0.110   5.069   5.583 -1.5455 -0.2966  1.7451
    1MOL   H544  544   8.277   4.823   5.548 -2.0811 -1.4091 -0.2123
    1MOL   H545  545   8.297   4.597   5.664 -0.2405  0.1616 -1.3525
    1MOL   C546  546   0.048   4.964   4.817  0.4438 -0.0672 -0.7764
    1MOL   C547  547   0.041   5.067   4.917 -0.0470 -0.7266  0.2949
    1MOL   C548  548   0.022   5.039   5.058 -0.2401 -0.2276 -0.0204
    1MOL   O549  549   0.023   5.150   5.142  0.9305 -0.1034  0.1725
    1MOL   C550  550   8.312   4.908   5.101  0.8161  0.3536 -0.1824
    1MOL   C551  551   0.008   4.804   5.005 -0.4510  0.0656  0.3008
    1MOL   C552  552   0.033   4.832   4.865  0.2561  0.3728 -0.6138
    1MOL   C553  553   0.035   4.717   4.772 -0.6512 -0.2302  0.0747
    1MOL   O554  554   8.282   4.726   4.669  0.3199 -0.1379  0.2810
    1MOL   C555  555   0.130   4.601   4.780  0.5373 -0.6819  0.5479
    1MOL   C556  556   0.217   4.575   4.889 -0.0189 -0.0882 -0.5456
    1MOL   C557  557   0.296   4.460   4.903  0.6160 -0.6470 -0.7383
    1MOL   C558  558   0.301   4.365   4.803 -0.6640 -0.0223  0.0797
    1MOL   O559  559   0.388   4.260   4.812  0.2090 -0.5954 -0.2870
    1MOL   C560  560   0.364   4.171   4.912  0.1716  0.8566 -0.2421
    1MOL   C561  561   0.468   4.141   5.008 -0.2092 -0.9302 -0.1816
    1MOL   C562  562   0.442   4.042   5.102  0.3430  0.2104  0.7141
    1MOL   C563  563   0.312   3.974   5.107  0.2720 -0.5250  0.1000
    1MOL   C564  564   0.210   4.012   5.021  0.4391 -0.5766 -0.4483
    1MOL   C565  565   0.238   4.111   4.924 -0.3392 -0.0938 -0.6713
    1MOL   C566  566   0.228   4.393   4.687  0.1392  0.1058  0.2165
    1MOL   C567  567   0.140   4.504   4.677 -0.6247  0.2423 -0.3444
    1MOL   H568  568   0.055   4.981   4.710  3.1006 -1.1562 -0.8214
    1MOL   H569  569   0.056   5.169   4.883 -0.2860 -1.0388 -0.7754
    1MOL   H570  570   8.292   4.874   5.201  1.2801 -0.3948 -0.3432
    1MOL   H571  571   8.289   4.707   5.037 -0.1203  0.9067  3.3018
    1MOL   H572  572   0.231   4.646   4.970  2.2216 -1.2816  0.1259
    1MOL   H573  573   0.361   4.442   4.988 -2.0402 -0.4327  1.3922
    1MOL   H574  574   0.564   4.190   5.017 -0.2127 -0.8227 -0.6837
    1MOL   H575  575   0.510   4.010   5.180 -0.6323 -3.8158  0.0287
    1MOL   H576  576   0.112   3.968   5.026 -0.4846  1.5568  0.5481
    1MOL   H577  577   0.153   4.133   4.863 -2.2163 -1.9635  1.1651
    1MOL   H578  578   0.236   4.325   4.604 -2.0180 -0.3198  0.3240
    1MOL   H579  579   0.082   4.522   4.588 -1.4026  2.3127  0.5448
    1MOL   C580  580   0.345   3.890   5.559 -0.4907 -0.3412  0.7628
    1MOL   C581  581   0.352   3.853   5.421 -0.3915 -0.6729 -0.2242
    1MOL   C582  582   0.265   3.911   5.332  0.1141  0.0394  0.2783
    1MOL   O583  583   0.281   3.880   5.199  0.2152  0.1063 -0.4143
    1MOL   C584  584   0.153   3.981   5.378  0.1518  0.2155 -0.1905
    1MOL   C585  585   0.150   4.016   5.517 -0.0136 -0.6553  0.6197
    1MOL   C586  586   0.240   3.970   5.608 -0.9543  0.4146 -0.5099
    1MOL   C587  587   0.217   4.015   5.752  0.1737  0.2927  0.2539
    1MOL   O588  588   0.135   4.105   5.779 -0.0617 -0.1489  0.5156
    1MOL   C589  589   0.311   3.968   5.858  0.2928 -0.2896  0.0879
    1MOL   C590  590   0.432   4.035   5.880 -0.3136  0.4860 -0.1283
    1MOL   C591  591   0.526   3.981   5.967  0.2829 -0.4663 -0.2368
    1MOL   C592  592   0.492   3.864   6.047 -0.1072 -0.7232  0.2053
    1MOL   O593  593   0.588   3.810   6.126  0.1089  0.2883 -0.5048
    1MOL   C594  594   0.643   3.887   6.230  0.3188 -0.8019 -1.0465
    1MOL   C595  595   0.585   4.002   6.286 -0.3602 -0.0044  0.0872
    1MOL   C596  596   0.644   4.083   6.386  0.0366  0.2285  0.2267
    1MOL   C597  597   0.762   4.035   6.451  0.7184 -0.0932  0.8269
    1MOL   C598  598   0.821   3.916   6.397 -0.0702  0.1549 -0.3158
    1MOL   C599  599   0.763   3.839   6.292 -0.8694 -0.6798 -0.1500
    1MOL   C600  600   0.366   3.802   6.023  0.6725  0.5669  0.1684
    1MOL   C601  601   0.280   3.854   5.927 -0.5338 -0.0040 -0.1086
    1MOL   H602  602   0.418   3.856   5.631  0.5527  0.9093  0.3191
    1MOL   H603  603   0.429   3.788   5.382  0.3466  1.2020 -1.9684
    1MOL   H604  604   0.075   4.020   5.314  1.6421  0.1279 -2.1446
    1MOL   H605  605   0.063   4.071   5.549 -0.4345  0.6885 -2.6335
    1MOL   H606  606   0.457   4.102   5.799  2.4701  1.4650  1.4763
    1MOL   H607  607   0.627   4.020   5.965 -0.1992  0.9978  1.7833
    1MOL   H608  608   0.492   4.041   6.249  0.1398  0.4568 -0.7019
    1MOL   H609  609   0.587   4.168   6.421 -2.9024 -3.0236  3.8255
    1MOL   H610  610   0.909   3.878   6.448 -1.3866 -1.0967  1.1017
    1MOL   H611  611   0.815   3.751   6.257 -2.0252 -0.0415 -3.7588
    1MOL   H612  612   0.330   3.713   6.072 -1.1035  1.7418  1.0857
    1MOL   H613  613   0.188   3.797   5.916 -0.4001  0.0155 -1.4654
    1MOL   C614  614   1.123   4.278   6.478  0.1645 -0.3050  0.2277
    1MOL   C615  615   1.033   4.172   6.491  0.8436 -0.2613 -0.2563
    1MOL   C616  616   0.902   4.196   6.543 -0.6938 -0.3065 -0.3938
    1MOL   O617  617   0.808   4.099   6.564  0.2508 -0.1465 -0.4527
    1MOL   C618  618   0.873   4.325   6.587  0.3990 -0.4545 -0.8249
    1MOL   C619  619   0.965   4.432   6.576 -0.2616  0.2633  0.2695
    1MOL   C620  620   1.091   4.409   6.517 -0.3122 -0.4950  0.0815
    1MOL   C621  621   1.189   4.524   6.508  0.3431  0.5653  0.3796
    1MOL   O622  622   1.308   4.501   6.514  0.6117  0.1189  0.3180
    1MOL   C623  623   1.143   4.669   6.508  0.3315 -0.2349  0.1973
    1MOL   C624  624   1.030   4.707   6.429  0.0301  0.3564  0.3111
    1MOL   C625  625   0.982   4.841   6.429 -0.0831 -0.3180 -0.0437
    1MOL   C626  626   1.046   4.935   6.504 -0.1383  0.3376 -0.4003
    1MOL   O627  627   1.002   5.069   6.505 -0.5204  0.1166 -0.4937
    1MOL   C628  628   0.948   5.120   6.622  0.5777  0.3247 -0.0075
    1MOL   C629  629   0.995   5.244   6.668 -0.1984 -0.7654 -0.0254
    1MOL   C630  630   0.936   5.312   6.775  0.4161  0.3518 -0.0213
    1MOL   C631  631   0.825   5.252   6.838 -0.1148  0.2488  0.0663
    1MOL   C632  632   0.780   5.128   6.798 -0.6833 -0.2002  0.5643
    1MOL   C633  633   0.833   5.065   6.682 -0.1257 -0.2125 -0.2954
    1MOL   C634  634   1.154   4.897   6.587  0.5953 -0.0349  0.3609
    1MOL   C635  635   1.213   4.768   6.578 -0.7452 -0.1294  0.4945
    1MOL   H636  636   1.217   4.261   6.426  0.4727 -3.3772  1.7271
    1MOL   H637  637   1.057   4.073   6.455 -0.7186 -1.8667  2.8885
    1MOL   H638  638   0.777   4.354   6.626  0.4361  1.7944 -2.3064
    1MOL   H639  639   0.933   4.529   6.609  0.6251  0.9114 -0.7691
    1MOL   H640  640   0.984   4.639   6.359  1.2012  0.0765 -0.2018
    1MOL   H641  641   0.893   4.872   6.376 -0.6117  0.8330  1.4732
    1MOL   H642  642   1.071   5.291   6.609  0.0390  0.8220  1.5080
    1MOL   H643  643   0.974   5.404   6.817 -1.1800  0.0763  2.0759
    1MOL   H644  644   0.715   5.069   6.861  1.2898 -2.4996  0.5308
    1MOL   H645  645   0.793   4.975   6.637  0.6365 -0.3514 -0.7041
    1MOL   H646  646   1.198   4.983   6.637 -1.2709  0.6171  0.9200
    1MOL   H647  647   1.304   4.740   6.629  0.8668  3.9677  0.0287
    1MOL   C648  648   0.420   5.341   7.066  0.1187 -0.3881 -0.2903
    1MOL   C649  649   0.558   5.314   7.067  0.1639 -0.1535 -0.3480
    1MOL   C650  650   0.633   5.342   6.948 -0.9407  0.2921 -0.6565
    1MOL   O651  651   0.772   5.317   6.948  0.3110 -0.4111 -0.0205
    1MOL   C652  652   0.576   5.410   6.843  0.6784 -0.5238  0.4508
    1MOL   C653  653   0.438   5.446   6.846  0.2068  0.2060  0.2630
    1MOL   C654  654   0.358   5.401   6.952 -0.1312  0.0828  0.1223
    1MOL   C655  655   0.222   5.443   6.974  0.3494 -0.8078  0.2430
    1MOL   O656  656   0.192   5.493   7.084  0.6149  0.1605 -0.3564
    1MOL   C657  657   0.121   5.414   6.877  0.1386 -0.3924 -0.4059
    1MOL   C658  658   8.307   5.468   6.902  0.1220  0.1463  0.2887
    1MOL   C659  659   8.202   5.437   6.817  0.1295 -0.5663  0.5245
    1MOL   C660  660   8.220   5.345   6.715 -0.7057 -0.5837 -0.0504
    1MOL   O661  661   8.118   5.326   6.627 -0.3234 -0.2016  0.1941
    1MOL   C662  662   8.012   5.255   6.670  0.3837 -0.3583 -0.4807
    1MOL   C663  663   8.029   5.115   6.689  0.3148  0.6953 -0.6871
    1MOL   C664  664   7.922   5.029   6.739 -0.0453 -0.3689  0.5796
    1MOL   C665  665   7.792   5.086   6.749 -0.0386 -0.4841 -0.1174
    1MOL   C666  666   7.778   5.226   6.729 -0.2001  0.0171  0.1005
    1MOL   C667  667   7.889   5.306   6.697 -0.2899  0.4590 -0.4120
    1MOL   C668  668   0.034   5.286   6.692 -0.3711  0.8376  0.0744
    1MOL   C669  669   0.139   5.324   6.771 -0.0338  0.1257  0.0372
    1MOL   H670  670   0.373   5.320   7.161  3.9088 -0.0390  1.7678
    1MOL   H671  671   0.610   5.285   7.156  2.4626 -0.9206 -1.8909
    1MOL   H672  672   0.632   5.445   6.757 -0.0743  2.8088  1.2639
    1MOL   H673  673   0.392   5.506   6.769  1.8012  0.9805 -0.0962
    1MOL   H674  674   8.303   5.546   6.976  0.4048 -3.5322  4.4023
    1MOL   H675  675   8.111   5.494   6.829 -0.5485 -1.3661 -0.7062
    1MOL   H676  676   8.126   5.069   6.677  0.1263  0.3752 -0.9721
    1MOL   H677  677   7.935   4.922   6.742 -0.4558 -0.5247 -2.1195
    1MOL   H678  678   7.687   5.284   6.731  0.3431  0.8531  1.7394
    1MOL   H679  679   7.882   5.413   6.682 -3.7990  0.4979  0.9245
    1MOL   H680  680   0.049   5.216   6.611 -0.4825  1.2876 -0.3375
    1MOL   H681  681   0.235   5.284   6.742  0.3604  0.5743  0.7101
    1MOL   H682  682   7.708   5.025   6.780 -1.3977  0.7095 -1.3697
    2MOL     C1  683   8.209   7.420   2.610 -0.0421 -0.5445  0.2215
    2MOL     C2  684   8.181   7.400   2.744 -0.0959  0.1093 -0.1896
    2MOL     C3  685   8.285   7.394   2.839  0.1895  0.2656  0.7537
    2MOL     O4  686   8.262   7.364   2.972 -0.1524 -0.1745 -0.7574
    2MOL     C5  687   0.101   7.428   2.804  0.4160  0.3755  0.5626
    2MOL     C6  688   0.127   7.443   2.664  0.0394  0.5475 -0.1712
    2MOL     C7  689   0.027   7.433   2.560  0.3214 -0.1967 -0.1298
    2MOL     C8  690   0.074   7.438   2.419 -0.3111  0.8240 -0.2576
    2MOL     O9  691   0.101   7.545   2.360  0.1078  0.1986 -0.3462
    2MOL    C10  692   0.104   7.313   2.345  0.2632  0.5219 -0.2031
    2MOL    C11  693   0.097   7.182   2.404  0.3061 -0.6777  0.1843
    2MOL    C12  694   0.113   7.065   2.328  0.2172 -0.2102 -0.5505
    2MOL    C13  695   0.140   7.071   2.186 -0.1565 -0.7859 -0.0434
    2MOL    O14  696   0.141   6.953   2.120  0.0112 -1.0062  0.4929
    2MOL    C15  697   0.063   6.937   2.008 -0.3735  0.5388  0.0351
    2MOL    C16  698   0.113   6.878   1.891 -0.1041  0.2905 -0.0756
    2MOL    C17  699   0.019   6.841   1.792 -0.9578  0.1223  0.1838
    2MOL    C18  700   8.195   6.876   1.806  0.5314  0.3353  0.0805
    2MOL    C19  701   8.144   6.941   1.921  0.4768 -0.4122 -0.2973
    2MOL    C20  702   8.234   6.970   2.024 -0.9691  0.5165 -0.3658
    2MOL    C21  703   0.154   7.202   2.131 -0.4421 -0.6716  0.1144
    2MOL    C22  704   0.143   7.318   2.210  0.0838  0.2001  0.7266
    2MOL    H23  705   8.125   7.418   2.543 -0.0670  1.1021  0.1865
    2MOL    H24  706   8.080   7.374   2.771 -0.4457  2.0194  0.4103
    2MOL    H25  707   0.184   7.433   2.874  0.4579  0.6616  0.4924
    2MOL    H26  708   0.232   7.448   2.636 -0.4507 -0.7793 -2.4107
    2MOL    H27  709   0.078   7.179   2.511  0.8514  0.9892  0.3334
    2MOL    H28  710   0.096   6.969   2.373 -1.9897 -0.1651 -1.2070
    2MOL    H29  711   0.219   6.855   1.886 -0.1832  0.0532 -0.7006
    2MOL    H30  712   0.056   6.798   1.701  0.1165  3.9417 -1.3005
    2MOL    H31  713   8.046   6.983   1.937 -0.0648 -1.9241  0.5386
    2MOL    H32  714   8.201   7.023   2.112 -1.4814  0.9302 -0.7990
    2MOL    H33  715   0.163   7.218   2.025 -2.0950  1.0082  0.1976
    2MOL    H34  716   0.158   7.415   2.166 -1.7768  0.8030  1.3492
    2MOL    H35  717   8.209   7.287   2.988  0.8255 -0.8439 -0.6907
    2MOL    C36  718   7.902   6.558   1.595 -0.1166 -0.0012  0.6587
    2MOL    C37  719   7.957   6.686   1.612 -0.2680  0.4060 -0.1568
    2MOL    C38  720   8.060   6.715   1.696 -0.0238 -0.3332  0.3367
    2MOL    O39  721   8.113   6.841   1.702  0.0840  0.2555 -0.2313
    2MOL    C40  722   8.113   6.606   1.770 -0.3308 -0.3537  0.6025
    2MOL    C41  723   8.058   6.471   1.749  0.2908 -0.1455 -0.3474
    2MOL    C42  724   7.953   6.449   1.666  0.0295  0.1704  0.4050
    2MOL    C43  725   7.888   6.313   1.664  0.2021 -0.1016 -0.8765
    2MOL    O44  726   7.959   6.215   1.694 -0.2016  0.1795  0.1719
    2MOL    C45  727   7.747   6.292   1.639 -0.1270  0.2049 -0.8185
    2MOL    C46  728   7.705   6.169   1.586 -0.2435  0.7521 -0.0394
    2MOL    C47  729   7.567   6.137   1.559  0.4379 -0.7824 -0.2976
    2MOL    C48  730   7.468   6.232   1.590 -0.1265 -0.2150 -0.0705
    2MOL    O49  731   7.337   6.203   1.560  0.0688 -0.2365 -0.6265
    2MOL    C50  732   7.263   6.277   1.472  0.3962 -0.9328 -0.3480
    2MOL    C51  733   7.121   6.277   1.477  0.2740 -0.0332  1.0275
    2MOL    C52  734   7.033   6.342   1.385 -0.8431 -0.0132 -0.1283
    2MOL    C53  735   7.093   6.432   1.291  0.1134  0.8439  0.4110
    2MOL    C54  736   7.233   6.436   1.283 -0.0545  0.2757  0.2063
    2MOL    C55  737   7.319   6.359   1.365  0.1697  0.3653  0.3313
    2MOL    C56  738   7.511   6.352   1.645 -0.1206 -0.3536 -0.3038
    2MOL    C57  739   7.647   6.382   1.668 -0.0218 -0.1513  0.1243
    2MOL    H58  740   7.811   6.544   1.538 -0.7271 -1.6817  1.9804
    2MOL    H59  741   7.913   6.769   1.561  0.3123  1.1100  0.4798
    2MOL    H60  742   8.201   6.619   1.832  1.8665 -2.8118 -1.8528
    2MOL    H61  743   8.100   6.390   1.807 -1.9863 -1.3824 -0.4018
    2MOL    H62  744   7.778   6.093   1.561 -0.6141  0.4607 -0.2296
    2MOL    H63  745   7.531   6.044   1.519  0.6274 -0.5917 -0.9201
    2MOL    H64  746   7.078   6.220   1.558 -0.4813 -0.3305  0.4231
    2MOL    H65  747   6.929   6.342   1.415 -0.7175 -0.8819  0.2951
    2MOL    H66  748   7.272   6.494   1.200 -1.0793  2.2271  1.0630
    2MOL    H67  749   7.426   6.371   1.358  0.2224 -1.2681 -2.1061
    2MOL    H68  750   7.434   6.418   1.681  0.0962 -0.4106  0.2844
    2MOL    H69  751   7.666   6.479   1.712  0.6019 -0.9060  1.5471
    2MOL    C70  752   6.706   6.371   1.096 -0.1561  0.0144  0.1468
    2MOL    C71  753   6.845   6.398   1.103 -0.3127 -0.2675  0.3241
    2MOL    C72  754   6.888   6.487   1.200  0.0190  0.0089 -0.0578
    2MOL    O73  755   7.021   6.517   1.214  0.6288 -0.4529 -0.3544
    2MOL    C74  756   6.793   6.539   1.294 -0.0140 -1.0203  0.1778
    2MOL    C75  757   6.658   6.505   1.288 -0.0992  0.0752  0.5217
    2MOL    C76  758   6.614   6.417   1.193 -0.3283 -0.4476  0.0936
    2MOL    C77  759   6.468   6.383   1.190 -0.4186 -0.6638  0.1337
    2MOL    O78  760   6.395   6.446   1.274  0.2438 -0.2139 -0.2377
    2MOL    C79  761   6.415   6.282   1.096 -0.0109 -0.5775  0.1657
    2MOL    C80  762   6.297   6.321   1.035 -0.1434 -0.4180 -0.9538
    2MOL    C81  763   6.235   6.231   0.946 -0.0883  0.5172 -0.5770
    2MOL    C82  764   6.294   6.112   0.912  0.2075  0.3339  0.0281
    2MOL    O83  765   6.227   6.031   0.820 -0.0671  0.6270  0.2594
    2MOL    C84  766   6.298   5.966   0.723  0.0477 -0.2524 -0.1612
    2MOL    C85  767   6.237   5.847   0.681  0.9561  0.0720 -0.5212
    2MOL    C86  768   6.293   5.784   0.567  0.2841 -0.0644 -0.1418
    2MOL    C87  769   6.406   5.841   0.502 -0.7055 -0.6461 -0.0595
    2MOL    C88  770   6.471   5.957   0.553  0.5951  0.7457  0.4040
    2MOL    C89  771   6.406   6.026   0.657 -0.8621  0.2070 -0.5812
    2MOL    C90  772   6.413   6.070   0.977 -0.1303  0.5878  0.0657
    2MOL    C91  773   6.474   6.152   1.072 -0.6426  0.0302  0.8273
    2MOL    H92  774   6.681   6.307   1.013  2.0058  0.9324 -1.2721
    2MOL    H93  775   6.918   6.361   1.033  2.1665  3.6223  0.7081
    2MOL    H94  776   6.836   6.612   1.360 -1.7676 -0.7222  1.0094
    2MOL    H95  777   6.593   6.554   1.359 -1.5588 -0.7278 -0.2377
    2MOL    H96  778   6.250   6.413   1.066  1.6535  0.8938 -2.0204
    2MOL    H97  779   6.147   6.257   0.888 -0.0918  0.2256 -0.7016
    2MOL    H98  780   6.140   5.815   0.717  1.3108  1.0754  1.4622
    2MOL    H99  781   6.261   5.694   0.518 -0.0173  0.8244 -1.5947
    2MOL   H100  782   6.562   5.991   0.506  1.2946 -1.6409 -0.0673
    2MOL   H101  783   6.444   6.125   0.679  1.0587 -0.5285 -0.4220
    2MOL   H102  784   6.450   5.971   0.955 -0.4307  0.3266  0.7633
    2MOL   H103  785   6.567   6.121   1.117 -0.0126  1.4001  0.4969
    2MOL   C104  786   6.516   5.507   0.177  0.0256  0.4155 -0.3346
    2MOL   C105  787   6.494   5.638   0.220  0.6043  0.2572 -0.1197
    2MOL   C106  788   6.487   5.674   0.354 -0.2016 -0.0975 -0.1293
    2MOL   O107  789   6.454   5.807   0.377  0.4423 -0.5570  0.4767
    2MOL   C108  790   6.516   5.579   0.454 -0.8727 -0.0519  0.5374
    2MOL   C109  791   6.539   5.448   0.413  0.2335 -0.9915  0.1471
    2MOL   C110  792   6.542   5.407   0.277  0.4865 -0.1791 -0.2785
    2MOL   C111  793   6.570   5.264   0.244 -0.3089 -0.3314  0.7854
    2MOL   O112  794   6.626   5.225   0.142 -0.4980  0.0707  0.1068
    2MOL   C113  795   6.532   5.163   0.347  0.1436  0.1812  0.1761
    2MOL   C114  796   6.407   5.156   0.411  0.6702  0.6710  0.4083
    2MOL   C115  797   6.374   5.063   0.511  0.0847 -0.3401  0.4977
    2MOL   C116  798   6.473   4.969   0.554  0.2416  0.6793 -0.2909
    2MOL   O117  799   6.440   4.872   0.642 -0.0568  0.4062 -0.3555
    2MOL   C118  800   6.431   4.910   0.779 -0.2746  1.0868  0.9652
    2MOL   C119  801   6.321   4.856   0.853  0.0288 -0.1079  0.2146
    2MOL   C120  802   6.327   4.873   0.995  0.5154 -0.0351  0.4400
    2MOL   C121  803   6.432   4.941   1.060 -0.2809 -1.4332  0.1842
    2MOL   C122  804   6.539   4.983   0.985  0.3665  0.4008 -0.1541
    2MOL   C123  805   6.546   4.962   0.844 -0.1340  0.7684  0.0007
    2MOL   C124  806   6.604   4.970   0.495 -0.3579 -0.5162  0.0690
    2MOL   C125  807   6.633   5.067   0.397 -0.3787 -0.0513 -0.8521
    2MOL   H126  808   6.523   5.492   0.070 -0.0377  0.4477 -0.3430
    2MOL   H127  809   6.471   5.714   0.147 -1.5134  0.8339  1.0847
    2MOL   H128  810   6.510   5.610   0.557 -1.3626  2.4263 -0.2069
    2MOL   H129  811   6.556   5.375   0.492 -3.4818 -1.8969  0.2117
    2MOL   H130  812   6.332   5.227   0.380  1.7122  2.0834  1.0907
    2MOL   H131  813   6.270   5.062   0.538 -0.7241 -1.3284 -2.4606
    2MOL   H132  814   6.240   4.800   0.810  0.6023  0.3227 -1.4517
    2MOL   H133  815   6.239   4.854   1.056  1.6628  0.1194  2.1728
    2MOL   H134  816   6.625   5.028   1.034  1.0459 -3.1001  2.0344
    2MOL   H135  817   6.636   4.990   0.791  0.3021 -1.2071 -0.3141
    2MOL   H136  818   6.677   4.899   0.532 -0.1277 -0.2931  0.0435
    2MOL   H137  819   6.734   5.081   0.361  0.4005 -1.1291  0.8589
    2MOL   C138  820   6.344   4.745   1.491 -0.6391  0.4587  0.0098
    2MOL   C139  821   6.342   4.852   1.402 -0.7937  0.1476 -0.0998
    2MOL   C140  822   6.417   4.854   1.283 -0.2839 -0.4752 -0.3428
    2MOL   O141  823   6.433   4.964   1.199  0.3406  0.2878 -0.2460
    2MOL   C142  824   6.471   4.730   1.244 -0.2524  0.6551 -0.0586
    2MOL   C143  825   6.476   4.617   1.329 -0.2824 -0.2957 -0.5417
    2MOL   C144  826   6.424   4.627   1.457  0.2305 -0.6578 -0.2458
    2MOL   C145  827   6.438   4.515   1.553  0.5041 -0.4567 -0.1582
    2MOL   O146  828   6.342   4.474   1.623  0.2058 -0.7998 -0.5031
    2MOL   C147  829   6.577   4.457   1.584  0.2497  0.3096 -0.5393
    2MOL   C148  830   6.582   4.387   1.706 -0.1210  0.9561 -0.5044
    2MOL   C149  831   6.706   4.349   1.764 -0.3749 -0.6630  0.7236
    2MOL   C150  832   6.822   4.375   1.693  0.2235  0.4881  0.3077
    2MOL   O151  833   6.939   4.314   1.742  0.0123 -0.2821  0.2078
    2MOL   C152  834   7.064   4.344   1.688 -0.4747 -0.7271  0.6268
    2MOL   C153  835   7.146   4.444   1.746 -0.1513 -0.3770  0.4906
    2MOL   C154  836   7.271   4.470   1.698  0.0368  0.6152  0.0057
    2MOL   C155  837   7.311   4.419   1.578  0.0192  0.2720  0.0344
    2MOL   C156  838   7.230   4.322   1.513 -0.1085  0.2848  0.2418
    2MOL   C157  839   7.112   4.277   1.574 -1.0403  0.1069 -0.7461
    2MOL   C158  840   6.817   4.451   1.572 -0.1622 -0.3871 -0.6008
    2MOL   C159  841   6.698   4.497   1.517  0.9081 -0.0575 -0.8719
    2MOL   H160  842   6.286   4.747   1.582 -2.3126  1.0857 -1.0629
    2MOL   H161  843   6.289   4.942   1.431  0.4508  1.0436 -0.5771
    2MOL   H162  844   6.511   4.721   1.144  0.1608  0.2365  0.1392
    2MOL   H163  845   6.528   4.528   1.298  0.5891  0.2007 -0.5128
    2MOL   H164  846   6.494   4.358   1.762 -0.4874 -0.4255 -1.7746
    2MOL   H165  847   6.688   4.290   1.853 -0.0523 -1.3288  0.3463
    2MOL   H166  848   7.109   4.502   1.830  1.6769  3.4264 -1.2052
    2MOL   H167  849   7.332   4.545   1.746  0.9125  0.8428 -1.4509
    2MOL   H168  850   7.247   4.272   1.419 -0.2517 -0.2628  0.5085
    2MOL   H169  851   7.045   4.206   1.529 -0.3353 -1.1926  0.2205
    2MOL   H170  852   6.906   4.472   1.514 -0.7468  0.6745 -1.1151
    2MOL   H171  853   6.695   4.562   1.431 -0.2681  2.5498  1.0868
    2MOL   C172  854   7.374   4.807   1.399  0.8164  0.3173  0.1992
    2MOL   C173  855   7.349   4.678   1.456 -0.4840 -0.2639  0.2219
    2MOL   C174  856   7.452   4.585   1.474  0.0545  0.0038 -0.0783
    2MOL   O175  857   7.430   4.456   1.520 -0.1002 -0.0568  0.8786
    2MOL   C176  858   7.579   4.627   1.436 -0.4871  0.8824 -0.1213
    2MOL   C177  859   7.609   4.755   1.389 -0.3210 -0.8624 -0.3312
    2MOL   C178  860   7.503   4.846   1.371 -0.1164  0.1295 -0.6001
    2MOL   C179  861   7.521   4.981   1.307 -0.7810  0.1969  0.2133
    2MOL   O180  862   7.469   5.022   1.202 -0.1153  0.0357 -0.0748
    2MOL   C181  863   7.616   5.074   1.379  0.5603  0.6578  0.4838
    2MOL   C182  864   7.670   5.188   1.316 -0.8246 -0.4440  0.3088
    2MOL   C183  865   7.756   5.275   1.380 -0.0584  0.3551  0.0167
    2MOL   C184  866   7.787   5.247   1.518  0.5799  0.2653 -0.2325
    2MOL   O185  867   7.856   5.331   1.593 -0.1628  0.0628  0.3441
    2MOL   C186  868   7.797   5.453   1.619  0.1654 -0.2712  0.3428
    2MOL   C187  869   7.888   5.561   1.623  0.6625  0.0006  0.1877
    2MOL   C188  870   7.840   5.689   1.645  0.0648 -1.2343  0.7106
    2MOL   C189  871   7.706   5.713   1.664 -0.4528  0.0377  0.0600
    2MOL   C190  872   7.616   5.609   1.641 -0.0261 -0.2087 -0.2554
    2MOL   C191  873   7.661   5.475   1.628 -0.1609 -0.2284  0.1208
    2MOL   C192  874   7.740   5.133   1.582  0.2405 -0.3640  0.2638
    2MOL   C193  875   7.648   5.049   1.516  0.8568 -0.3760  0.7674
    2MOL   H194  876   7.286   4.862   1.370 -0.8073 -1.8932  0.7639
    2MOL   H195  877   7.247   4.647   1.472 -0.4768 -0.2167  0.3505
    2MOL   H196  878   7.661   4.558   1.452 -2.5280 -0.9442  3.1080
    2MOL   H197  879   7.704   4.802   1.370  0.0013 -0.8992  1.1175
    2MOL   H198  880   7.630   5.214   1.219  2.0677  1.6197 -0.3865
    2MOL   H199  881   7.785   5.367   1.333  0.8490  0.0874  0.0493
    2MOL   H200  882   7.994   5.544   1.611  0.9030  2.1671 -1.0349
    2MOL   H201  883   7.912   5.769   1.653  0.1010 -1.1674 -0.1938
    2MOL   H202  884   7.511   5.625   1.659  0.3868 -0.8636  2.8756
    2MOL   H203  885   7.592   5.392   1.629 -0.6204  0.1523  1.7891
    2MOL   H204  886   7.760   5.106   1.685 -1.0536 -0.4123  0.5169
    2MOL   H205  887   7.609   4.965   1.571  2.1734 -1.4099  0.1579
    2MOL   C206  888   7.738   5.998   1.999  0.0487  0.2704 -0.8374
    2MOL   C207  889   7.753   5.969   1.865  0.3686 -0.5110 -0.6935
    2MOL   C208  890   7.650   5.900   1.792 -0.7461  0.4890  0.5157
    2MOL   O209  891   7.676   5.846   1.673  0.6726  0.2543 -0.1940
    2MOL   C210  892   7.533   5.871   1.857 -0.5823 -0.6109 -0.2082
    2MOL   C211  893   7.513   5.913   1.991  0.0966  0.0769  0.1016
    2MOL   C212  894   7.616   5.976   2.065 -0.4110 -0.0512 -0.0158
    2MOL   C213  895   7.615   6.023   2.209 -0.6780 -0.0657  1.0139
    2MOL   O214  896   7.715   6.018   2.279 -0.3421 -0.2726 -0.2623
    2MOL   C215  897   7.489   6.073   2.270  0.4552 -0.5487  0.1640
    2MOL   C216  898   7.392   6.130   2.190  0.6756  0.2143  0.3623
    2MOL   C217  899   7.270   6.180   2.240  0.2186  0.1237  0.0417
    2MOL   C218  900   7.251   6.166   2.382  0.0051  0.4670  0.7195
    2MOL   O219  901   7.136   6.213   2.435 -0.2042 -0.5121  0.2081
    2MOL   C220  902   7.096   6.345   2.451 -0.3212  0.1487  0.3278
    2MOL   C221  903   7.165   6.455   2.407 -0.5889 -0.3460  0.0403
    2MOL   C222  904   7.116   6.585   2.415 -0.3856  0.3956  0.4064
    2MOL   C223  905   6.993   6.617   2.474 -0.4381  0.5645  0.9911
    2MOL   C224  906   6.912   6.503   2.511  0.5802  0.1260 -0.9873
    2MOL   C225  907   6.965   6.371   2.511 -0.1475  0.2837 -0.2577
    2MOL   C226  908   7.351   6.106   2.468  0.3667 -0.6177  0.5677
    2MOL   C227  909   7.471   6.066   2.407 -0.0286  1.0507  1.0158
    2MOL   H228  910   7.818   6.057   2.043  1.4585 -1.2513 -1.3283
    2MOL   H229  911   7.845   5.983   1.811  0.7366 -1.5203 -0.3274
    2MOL   H230  912   7.459   5.812   1.805 -0.7166 -1.0374  0.4658
    2MOL   H231  913   7.418   5.893   2.038  0.0000  0.9050  0.2647
    2MOL   H232  914   7.408   6.135   2.083  0.8674  1.5366  0.4460
    2MOL   H233  915   7.190   6.213   2.176  0.5237  1.3246  0.2617
    2MOL   H234  916   7.266   6.441   2.372 -0.1087  0.6496  0.9708
    2MOL   H235  917   7.174   6.670   2.380 -1.7663  0.5026 -1.7103
    2MOL   H236  918   6.814   6.526   2.551  0.0333 -1.5709 -1.3062
    2MOL   H237  919   6.908   6.284   2.541 -4.5387  2.7243 -1.0859
    2MOL   H238  920   7.329   6.098   2.574  0.0966 -3.7266  0.3263
    2MOL   H239  921   7.554   6.031   2.466 -0.3511 -0.6574  0.4779
    2MOL   C240  922   7.095   6.900   2.773 -0.3555 -0.1555 -0.2607
    2MOL   C241  923   7.085   6.829   2.657  0.1313  0.1291 -0.9719
    2MOL   C242  924   6.959   6.810   2.605 -0.1071  0.1435  0.0688
    2MOL   O243  925   6.944   6.738   2.487 -0.3879 -0.1453 -0.0189
    2MOL   C244  926   6.846   6.874   2.663  0.2499 -0.0916 -0.6848
    2MOL   C245  927   6.855   6.952   2.783  0.3395 -0.5970 -0.3269
    2MOL   C246  928   6.987   6.965   2.837  0.0868  0.0779 -0.1445
    2MOL   C247  929   7.009   7.043   2.965 -0.4791 -0.3416  0.6929
    2MOL   O248  930   7.089   7.007   3.052 -0.2003 -0.1112 -0.0146
    2MOL   C249  931   6.932   7.165   2.983  0.3333 -0.8859  0.5225
    2MOL   C250  932   6.903   7.194   3.113  0.5502  0.6831 -0.8726
    2MOL   C251  933   6.817   7.304   3.145  0.0589  0.4791 -0.0686
    2MOL   C252  934   6.765   7.380   3.035 -0.4570 -0.4406 -0.4558
    2MOL   O253  935   6.680   7.480   3.056  0.1778  0.3710  0.1179
    2MOL   C254  936   6.678   7.564   3.165 -0.1307 -0.0488 -0.6772
    2MOL   C255  937   6.725   7.696   3.151 -0.2594  0.6583  0.1236
    2MOL   C256  938   6.725   7.784   3.263 -0.1836 -0.1906 -0.3859
    2MOL   C257  939   6.681   7.736   3.386  0.0210  0.7130 -0.2991
    2MOL   C258  940   6.620   7.612   3.398  0.0019 -0.6222  0.1219
    2MOL   C259  941   6.616   7.516   3.291 -0.1318 -1.1040  0.8133
    2MOL   C260  942   6.796   7.346   2.904  0.0876  0.5055  0.1016
    2MOL   C261  943   6.878   7.235   2.878 -0.2048 -0.0450  0.4021
    2MOL   H262  944   7.194   6.914   2.814 -0.1097  3.4132 -1.9226
    2MOL   H263  945   7.169   6.772   2.618  0.9342  0.6824 -0.0833
    2MOL   H264  946   6.752   6.859   2.611  0.2964 -0.2908 -0.7093
    2MOL   H265  947   6.763   6.991   2.824  0.5438  2.1011 -2.2903
    2MOL   H266  948   6.931   7.134   3.198  1.1487  1.4308 -0.5331
    2MOL   H267  949   6.790   7.337   3.244 -3.3519 -1.7458 -0.1863
    2MOL   H268  950   6.760   7.750   3.064  0.9271  1.2222  0.9343
    2MOL   H269  951   6.776   7.879   3.264  1.2898 -0.9788  0.4380
    2MOL   H270  952   6.588   7.570   3.492 -1.4490 -1.2866 -0.6572
    2MOL   H271  953   6.569   7.420   3.304 -0.3055 -1.0511  0.5858
    2MOL   H272  954   6.751   7.408   2.827 -1.3890  2.7266  2.6794
    2MOL   H273  955   6.898   7.219   2.773  1.7989 -0.9332  0.8996
    2MOL   C274  956   7.001   7.758   3.674  0.1966 -0.3108 -0.6385
    2MOL   C275  957   6.902   7.802   3.582  0.6515 -0.1597 -0.1359
    2MOL   C276  958   6.763   7.776   3.602 -0.6171 -1.2076  0.4919
    2MOL   O277  959   6.684   7.811   3.498 -0.0999  0.2791 -0.4051
    2MOL   C278  960   6.715   7.710   3.719  0.5302  0.0821  0.2475
    2MOL   C279  961   6.813   7.674   3.813 -0.3904 -0.3084  0.0542
    2MOL   C280  962   6.953   7.692   3.792 -0.6724  0.8545  0.8198
    2MOL   C281  963   7.053   7.646   3.894 -0.2058 -0.6348  0.2854
    2MOL   O282  964   7.150   7.577   3.857 -0.1049 -0.0530  0.3258
    2MOL   C283  965   7.032   7.680   4.036  0.3941 -0.5337 -0.1639
    2MOL   C284  966   6.973   7.805   4.071  0.1723  0.2011  0.1538
    2MOL   C285  967   6.965   7.842   4.203  0.1210 -0.3707 -0.1476
    2MOL   C286  968   7.002   7.753   4.308 -0.3474 -0.5499  0.7268
    2MOL   O287  969   7.007   7.802   4.440 -0.1587  0.3903  0.0474
    2MOL   C288  970   6.897   7.809   4.519  0.3118  0.3415 -0.3492
    2MOL   C289  971   6.888   7.887   4.639  0.1917  0.1182 -0.1685
    2MOL   C290  972   6.775   7.889   4.722 -0.3764  0.8410  0.4268
    2MOL   C291  973   6.666   7.811   4.691  0.3399 -0.5562  0.2165
    2MOL   C292  974   6.664   7.753   4.565  0.5132 -0.6575 -0.1061
    2MOL   C293  975   6.781   7.744   4.487  0.2402 -0.6744 -0.0638
    2MOL   C294  976   7.055   7.624   4.274 -1.4278 -0.3607 -0.1037
    2MOL   C295  977   7.074   7.597   4.139  0.2637  0.6789  0.1989
    2MOL   H296  978   7.105   7.784   3.661 -0.1688  0.8927 -1.2160
    2MOL   H297  979   6.922   7.869   3.501 -3.9647 -0.8063 -1.9866
    2MOL   H298  980   6.610   7.700   3.739 -0.1652  0.1120 -3.1412
    2MOL   H299  981   6.777   7.644   3.911  1.4683 -0.6412  0.6475
    2MOL   H300  982   6.949   7.889   4.007  1.9493  0.6248  0.0218
    2MOL   H301  983   6.928   7.940   4.225  2.2087  1.5943 -4.6989
    2MOL   H302  984   6.969   7.942   4.685  0.3992 -0.1216 -0.2497
    2MOL   H303  985   6.782   7.942   4.816  1.2394  1.8264 -0.2420
    2MOL   H304  986   6.570   7.717   4.525  0.8433 -1.4450 -0.1974
    2MOL   H305  987   6.767   7.691   4.394 -1.2324 -0.7714  0.2043
    2MOL   H306  988   7.095   7.554   4.346 -0.6541  1.1196  0.9322
    2MOL   H307  989   7.118   7.502   4.112  1.5008  2.1619 -3.2266
    2MOL   C308  990   6.311   7.547   4.736 -0.4437 -0.2240 -0.1518
    2MOL   C309  991   6.376   7.666   4.721 -0.2547 -0.3375 -0.5743
    2MOL   C310  992   6.497   7.694   4.794  1.0348  0.4458  0.0411
    2MOL   O311  993   6.562   7.813   4.777 -0.2662  0.1708 -0.2572
    2MOL   C312  994   6.550   7.595   4.875  0.1566 -0.1421  0.1137
    2MOL   C313  995   6.472   7.480   4.902 -0.6393  0.9267 -0.0345
    2MOL   C314  996   6.352   7.451   4.834 -0.5869 -0.4603 -0.6631
    2MOL   C315  997   6.270   7.327   4.839  0.4997  0.5034  0.3443
    2MOL   O316  998   6.175   7.317   4.759 -0.4092 -0.1126 -0.3264
    2MOL   C317  999   6.309   7.220   4.930  0.0189 -0.2542 -0.3971
    2MOL   C318 1000   6.287   7.235   5.067  0.6604 -0.3518 -0.2386
    2MOL   C319 1001   6.343   7.144   5.161 -0.0860  0.6601 -0.2114
    2MOL   C320 1002   6.427   7.037   5.119 -0.0321 -0.1034  1.1604
    2MOL   O321 1003   6.492   6.955   5.207 -0.3357 -0.4717  0.1059
    2MOL   C322 1004   6.453   6.824   5.214 -0.8226 -0.3913 -0.1941
    2MOL   C323 1005   6.546   6.728   5.243 -0.0078  0.0279 -0.3344
    2MOL   C324 1006   6.509   6.592   5.254  0.2728  0.0413  0.1984
    2MOL   C325 1007   6.375   6.558   5.229 -0.4412 -0.0018 -0.0356
    2MOL   C326 1008   6.281   6.653   5.197 -0.0449 -0.7682 -0.6653
    2MOL   C327 1009   6.317   6.793   5.192  0.0050 -0.0231  0.3192
    2MOL   C328 1010   6.445   7.017   4.976 -0.5565  0.3257  1.0502
    2MOL   C329 1011   6.388   7.112   4.890 -0.2166  0.5478  0.3249
    2MOL   H330 1012   6.224   7.536   4.673  0.5412  0.7700 -1.7417
    2MOL   H331 1013   6.341   7.739   4.650 -1.9961  1.2167  1.7639
    2MOL   H332 1014   6.646   7.606   4.923  1.5894  0.4677 -2.7539
    2MOL   H333 1015   6.512   7.403   4.967 -0.9692 -0.5887 -1.5944
    2MOL   H334 1016   6.252   7.331   5.099  0.8766 -0.3538  0.0017
    2MOL   H335 1017   6.324   7.153   5.267 -0.1937 -1.1941 -0.0575
    2MOL   H336 1018   6.653   6.743   5.251  0.1575 -0.0093 -2.1239
    2MOL   H337 1019   6.582   6.515   5.276  0.6712  0.1866 -0.5969
    2MOL   H338 1020   6.177   6.623   5.199 -0.1084 -0.5201  0.2635
    2MOL   H339 1021   6.244   6.870   5.173  0.2828 -0.0938 -1.1177
    2MOL   H340 1022   6.493   6.928   4.940 -0.3758  0.1489  1.7194
    2MOL   H341 1023   6.408   7.086   4.787  0.5438 -2.8929  1.2834
    2MOL   C342 1024   6.261   6.362   5.600  0.3816 -0.6465 -0.0281
    2MOL   C343 1025   6.270   6.428   5.475  0.0266 -0.3203  0.5541
    2MOL   C344 1026   6.329   6.366   5.357 -0.1718 -0.4820 -0.3572
    2MOL   O345 1027   6.338   6.429   5.232 -0.1614 -0.0121 -0.2333
    2MOL   C346 1028   6.350   6.230   5.374 -0.1358  0.5841 -0.1873
    2MOL   C347 1029   6.353   6.163   5.497 -0.2949 -0.0224 -0.4381
    2MOL   C348 1030   6.302   6.228   5.615  0.4550  0.0859  0.3950
    2MOL   C349 1031   6.290   6.164   5.744  0.4847  0.3059 -0.2639
    2MOL   O350 1032   6.310   6.230   5.851 -0.5838  0.8115  0.1687
    2MOL   C351 1033   6.244   6.023   5.744  0.1567  0.1168  0.5635
    2MOL   C352 1034   6.166   5.965   5.638  0.6729  0.0513  0.0056
    2MOL   C353 1035   6.120   5.833   5.645 -0.3952 -0.8118 -0.5380
    2MOL   C354 1036   6.156   5.754   5.752 -0.0277 -0.0012 -0.3410
    2MOL   O355 1037   6.115   5.625   5.769  0.0358 -0.2721  0.6911
    2MOL   C356 1038   5.991   5.591   5.712 -0.0616  0.2413 -0.4494
    2MOL   C357 1039   5.872   5.624   5.788  0.0762  0.0876 -0.2475
    2MOL   C358 1040   5.743   5.612   5.729  0.4591  0.2785 -0.4497
    2MOL   C359 1041   5.731   5.557   5.601 -0.7030  0.0503 -0.5600
    2MOL   C360 1042   5.847   5.515   5.526 -0.3163 -0.2109  0.6164
    2MOL   C361 1043   5.977   5.537   5.581 -0.3960 -0.2730  0.1406
    2MOL   C362 1044   6.223   5.816   5.860  0.6715  0.0383 -0.6011
    2MOL   C363 1045   6.265   5.947   5.859  0.6779  0.3433 -0.1857
    2MOL   H364 1046   6.213   6.400   5.689  0.1494 -1.8284  0.3518
    2MOL   H365 1047   6.239   6.532   5.474 -2.0371 -0.9178 -2.3492
    2MOL   H366 1048   6.389   6.184   5.285 -2.4014 -0.3402 -0.7527
    2MOL   H367 1049   6.380   6.058   5.497  1.7827  0.4930  0.2033
    2MOL   H368 1050   6.131   6.025   5.555  0.8199  2.1869  1.4410
    2MOL   H369 1051   6.062   5.790   5.564 -0.5673  1.0391 -1.4100
    2MOL   H370 1052   5.873   5.649   5.893  0.8111  1.5777 -0.5958
    2MOL   H371 1053   5.656   5.653   5.779  0.9938 -0.2195  0.9129
    2MOL   H372 1054   5.834   5.474   5.426  1.1174 -0.8701  0.6864
    2MOL   H373 1055   6.068   5.505   5.533  0.5079  1.3870  0.6979
    2MOL   H374 1056   6.246   5.751   5.943  0.8781 -0.5662 -1.1249
    2MOL   H375 1057   6.313   5.990   5.946 -3.1528  0.4663  1.9850
    2MOL   C376 1058   5.304   5.731   5.504  0.1009 -0.1387 -0.1844
    2MOL   C377 1059   5.388   5.630   5.543  0.0048 -0.0809  0.5367
    2MOL   C378 1060   5.527   5.639   5.505  0.0632  0.9528 -0.0397
    2MOL   O379 1061   5.606   5.537   5.546 -0.0682 -0.4128  0.2502
    2MOL   C380 1062   5.575   5.740   5.421  0.1092  0.0625  0.9089
    2MOL   C381 1063   5.484   5.837   5.377  0.3106  0.3183  0.5666
    2MOL   C382 1064   5.352   5.840   5.426  0.0218 -0.0705  0.1687
    2MOL   C383 1065   5.250   5.944   5.400  0.2094 -0.0463  0.5225
    2MOL   O384 1066   5.130   5.918   5.384 -0.2627  0.6675  0.0676
    2MOL   C385 1067   5.291   6.088   5.390 -0.0788 -0.8463 -0.0897
    2MOL   C386 1068   5.412   6.128   5.448 -0.1849  0.7801 -0.4885
    2MOL   C387 1069   5.455   6.257   5.412  0.0093  1.0620 -0.1325
    2MOL   C388 1070   5.378   6.341   5.330 -0.1174  0.3301 -0.0979
    2MOL   O389 1071   5.427   6.470   5.308  0.2027 -0.2609  0.1719
    2MOL   C390 1072   5.522   6.492   5.217 -0.9654  0.3715  0.6535
    2MOL   C391 1073   5.507   6.447   5.079 -0.0536 -0.5969  0.0241
    2MOL   C392 1074   5.602   6.486   4.984  0.1430 -0.0191 -0.0980
    2MOL   C393 1075   5.706   6.575   5.020 -0.2697  0.1603 -0.5631
    2MOL   C394 1076   5.720   6.615   5.157 -0.1376  0.4148  0.0511
    2MOL   C395 1077   5.630   6.569   5.256 -0.2515  1.3460 -0.9031
    2MOL   C396 1078   5.252   6.304   5.283 -0.2500 -0.2651 -0.0231
    2MOL   C397 1079   5.209   6.172   5.313 -0.2601 -0.2064  0.1668
    2MOL   H398 1080   5.200   5.721   5.531  0.1450  0.9441  0.4436
    2MOL   H399 1081   5.353   5.542   5.593 -0.9804  1.0453  1.8725
    2MOL   H400 1082   5.676   5.739   5.382 -0.3891  0.0771 -0.3986
    2MOL   H401 1083   5.516   5.905   5.300  1.5314  0.3931  1.1128
    2MOL   H402 1084   5.473   6.063   5.509 -0.3942  1.8543  0.8745
    2MOL   H403 1085   5.542   6.306   5.452  1.5686 -2.3314  0.8021
    2MOL   H404 1086   5.428   6.388   5.036 -2.0350 -0.8990  3.7907
    2MOL   H405 1087   5.605   6.464   4.878  0.2779  1.5079 -0.4295
    2MOL   H406 1088   5.797   6.684   5.188 -0.7688  0.5272  1.4077
    2MOL   H407 1089   5.627   6.587   5.362 -1.9773  0.3081 -0.7492
    2MOL   H408 1090   5.185   6.374   5.235  0.5920  0.4988 -0.0886
    2MOL   H409 1091   5.116   6.138   5.269  0.5490 -0.3409 -1.5144
    2MOL   C410 1092   5.772   6.992   4.953  0.2998 -0.2747  0.0739
    2MOL   C411 1093   5.741   6.854   4.943 -0.1318  0.5549 -0.1824
    2MOL   C412 1094   5.842   6.754   4.943  0.0933  0.5809  0.5054
    2MOL   O413 1095   5.802   6.627   4.932 -0.3832  0.0855 -0.2355
    2MOL   C414 1096   5.978   6.798   4.941  0.3355  0.1752 -0.8467
    2MOL   C415 1097   6.011   6.935   4.961  0.2069  0.2577 -0.7757
    2MOL   C416 1098   5.904   7.034   4.973 -0.0883  0.4867 -0.5493
    2MOL   C417 1099   5.923   7.179   4.988  0.1386 -0.3038 -0.5011
    2MOL   O418 1100   5.880   7.253   4.898  0.4359 -0.0690  0.5696
    2MOL   C419 1101   5.985   7.234   5.114 -0.0733  0.7489  0.3044
    2MOL   C420 1102   5.985   7.372   5.125 -0.1482 -0.0288  0.2189
    2MOL   C421 1103   6.042   7.427   5.243 -0.2328 -0.0561 -0.2989
    2MOL   C422 1104   6.067   7.348   5.358  0.3454 -0.2134 -0.0593
    2MOL   O423 1105   6.108   7.400   5.482 -0.2328  0.0321  0.6392
    2MOL   C424 1106   6.183   7.509   5.476 -0.7580  0.0670  0.8608
    2MOL   C425 1107   6.131   7.637   5.505  0.4213  0.2808  0.5032
    2MOL   C426 1108   6.214   7.752   5.475 -0.5450  0.9626  0.8846
    2MOL   C427 1109   6.347   7.736   5.446 -0.6038  0.2924 -0.2985
    2MOL   C428 1110   6.404   7.604   5.440  0.3425  0.0083  0.0687
    2MOL   C429 1111   6.319   7.492   5.449 -0.0505 -0.0037  0.0648
    2MOL   C430 1112   6.065   7.208   5.341 -0.4742  0.0876 -0.2846
    2MOL   C431 1113   6.023   7.155   5.220 -0.3034  0.5223 -0.1996
    2MOL   H432 1114   5.698   7.070   4.938  0.7024  0.2926  1.0027
    2MOL   H433 1115   5.637   6.825   4.944 -0.0389  0.1835 -0.8652
    2MOL   H434 1116   6.064   6.731   4.943  0.0536 -0.1799  2.8617
    2MOL   H435 1117   6.114   6.964   4.980  0.3518 -1.6281  1.4847
    2MOL   H436 1118   5.968   7.441   5.044 -2.0197 -0.6273  0.0971
    2MOL   H437 1119   6.038   7.534   5.257  0.4474  0.0368 -0.8148
    2MOL   H438 1120   6.024   7.650   5.506  0.3183 -0.4421 -0.2551
    2MOL   H439 1121   6.167   7.848   5.490  0.4664  1.2215  2.4832
    2MOL   H440 1122   6.510   7.595   5.423  0.3732 -0.7166  0.5779
    2MOL   H441 1123   6.360   7.394   5.427  1.6135  0.5718  0.5099
    2MOL   H442 1124   6.082   7.142   5.425 -0.1208  0.9460  0.3268
    2MOL   H443 1125   6.019   7.047   5.212 -2.3916  0.6637 -1.2607
    2MOL   C444 1126   6.472   7.931   5.088 -0.2221 -0.2672 -0.0527
    2MOL   C445 1127   6.490   7.866   5.209 -0.7419  0.6356 -0.5075
    2MOL   C446 1128   6.421   7.917   5.320 -0.7468 -0.6026 -0.3265
    2MOL   O447 1129   6.425   7.844   5.436 -0.1873  0.3900  0.2548
    2MOL   C448 1130   6.344   8.032   5.311  0.3712 -0.4396 -0.5160
    2MOL   C449 1131   6.336   8.104   5.192 -0.0926 -0.2116  0.4731
    2MOL   C450 1132   6.405   8.055   5.078  0.8302  0.2594 -1.0457
    2MOL   C451 1133   6.403   8.140   4.957  0.1116 -0.9389  0.6334
    2MOL   O452 1134   6.431   8.260   4.970 -0.0244 -0.0120  0.6489
    2MOL   C453 1135   6.351   8.087   4.827  0.4863 -0.1996 -0.4237
    2MOL   C454 1136   6.253   7.980   4.838  0.5962 -0.8481 -0.3758
    2MOL   C455 1137   6.192   7.927   4.721 -0.0350 -0.0445  0.2310
    2MOL   C456 1138   6.213   7.991   4.597 -0.4253  0.2578 -0.6689
    2MOL   O457 1139   6.143   7.942   4.489  0.2833 -0.8267 -0.1600
    2MOL   C458 1140   6.194   7.833   4.439  0.6729  0.6789  0.4541
    2MOL   C459 1141   6.322   7.831   4.385  0.3697  0.5131 -0.3515
    2MOL   C460 1142   6.377   7.710   4.341  0.0816 -0.8295 -1.3230
    2MOL   C461 1143   6.304   7.592   4.342  0.1221 -0.8052 -0.0488
    2MOL   C462 1144   6.178   7.593   4.406  0.4881 -0.5141  0.5888
    2MOL   C463 1145   6.117   7.710   4.452 -0.0049  0.2716  0.8055
    2MOL   C464 1146   6.301   8.096   4.583  0.4668  0.2523  0.1927
    2MOL   C465 1147   6.374   8.139   4.700 -0.1771 -0.1062  0.0785
    2MOL   H466 1148   6.509   7.886   4.997  0.8181  1.2639 -0.4095
    2MOL   H467 1149   6.541   7.773   5.229 -1.9010 -0.2272 -1.4482
    2MOL   H468 1150   6.295   8.066   5.401 -0.7915  0.4252 -1.4560
    2MOL   H469 1151   6.284   8.197   5.176  0.9598 -0.0021 -2.0432
    2MOL   H470 1152   6.234   7.929   4.931 -1.5230  1.1301  0.3044
    2MOL   H471 1153   6.111   7.857   4.736 -0.3720  0.1916 -0.4438
    2MOL   H472 1154   6.382   7.921   4.387  1.6928 -0.3742  0.7949
    2MOL   H473 1155   6.480   7.707   4.308  0.4315  1.2545 -0.4857
    2MOL   H474 1156   6.125   7.499   4.412  2.0234 -1.4848 -0.6678
    2MOL   H475 1157   6.021   7.704   4.499  0.3984  3.7600  2.2473
    2MOL   H476 1158   6.316   8.138   4.485 -1.2926 -1.5892 -0.8951
    2MOL   H477 1159   6.449   8.215   4.684  0.4855 -0.6290  0.6415
    2MOL   C478 1160   6.695   7.390   4.453  0.0817 -0.0333  0.1225
    2MOL   C479 1161   6.598   7.456   4.371 -0.5304  0.9019 -0.0770
    2MOL   C480 1162   6.461   7.418   4.373  0.7495  0.7374 -0.0922
    2MOL   O481 1163   6.370   7.481   4.290 -0.4051  0.1984 -0.9370
    2MOL   C482 1164   6.412   7.306   4.453  0.1873 -0.2577  0.6969
    2MOL   C483 1165   6.511   7.262   4.550 -0.1045 -0.0964 -0.5269
    2MOL   C484 1166   6.645   7.301   4.556 -1.3791  0.1212  0.4074
    2MOL   C485 1167   6.736   7.260   4.664  0.2571 -0.3333 -0.1390
    2MOL   O486 1168   6.710   7.164   4.738 -0.6360  0.1945  0.0302
    2MOL   C487 1169   6.862   7.333   4.682  0.5327  0.1959  0.2496
    2MOL   C488 1170   6.860   7.471   4.732 -0.5812 -0.2773 -0.1433
    2MOL   C489 1171   6.983   7.537   4.741  0.4800 -0.0928 -0.1650
    2MOL   C490 1172   7.105   7.477   4.709  0.8593  0.3187 -0.2459
    2MOL   O491 1173   7.218   7.548   4.733 -1.0508 -0.3682 -0.1691
    2MOL   C492 1174   7.249   7.652   4.650 -0.5398  0.0848  1.1718
    2MOL   C493 1175   7.226   7.783   4.700  0.1877 -0.0156  0.2431
    2MOL   C494 1176   7.249   7.890   4.614 -0.2505  0.1294  0.2622
    2MOL   C495 1177   7.285   7.869   4.480 -0.2362  0.4467  0.2309
    2MOL   C496 1178   7.313   7.738   4.436  0.3015 -0.1479  0.7956
    2MOL   C497 1179   7.296   7.629   4.523 -0.2919  0.5971 -0.0306
    2MOL   C498 1180   7.108   7.337   4.682 -0.4349  0.1610  0.6946
    2MOL   C499 1181   6.986   7.263   4.672 -0.5647 -0.1779 -0.0941
    2MOL   H500 1182   6.799   7.419   4.445  0.0311  0.4610  1.1797
    2MOL   H501 1183   6.634   7.531   4.303 -0.1082  2.5966  1.9689
    2MOL   H502 1184   6.312   7.264   4.450 -0.2754  0.7555  1.7253
    2MOL   H503 1185   6.485   7.182   4.618  0.8173 -0.0967 -0.1657
    2MOL   H504 1186   6.768   7.523   4.755 -1.2389 -1.1615 -0.7338
    2MOL   H505 1187   6.985   7.636   4.785 -2.3653 -1.2042  2.7011
    2MOL   H506 1188   7.192   7.795   4.802  1.7767 -0.4420  0.8446
    2MOL   H507 1189   7.234   7.989   4.657 -0.8624 -0.5243  1.5904
    2MOL   H508 1190   7.333   7.723   4.331 -2.8328 -2.0451  0.3981
    2MOL   H509 1191   7.315   7.530   4.485  0.4196  0.8566 -0.3766
    2MOL   H510 1192   7.203   7.285   4.678 -0.3463  0.5226 -3.7718
    2MOL   H511 1193   6.985   7.156   4.656 -0.6658 -0.0708 -0.8664
    2MOL   C512 1194   7.094   8.261   4.411 -0.8207 -0.0886 -0.8710
    2MOL   C513 1195   7.135   8.127   4.393  0.1101  0.2483  0.3296
    2MOL   C514 1196   7.267   8.092   4.418 -0.6455 -0.0531  0.5671
    2MOL   O515 1197   7.316   7.968   4.391  0.0478  0.2998 -0.0790
    2MOL   C516 1198   7.353   8.184   4.481 -0.2215 -0.3773  0.3410
    2MOL   C517 1199   7.310   0.001   4.511  0.0648 -0.4773  0.1282
    2MOL   C518 1200   7.177   0.038   4.477  0.0298 -0.1117  0.1831
    2MOL   C519 1201   7.131   0.179   4.493  0.2720  0.2650 -0.1042
    2MOL   O520 1202   7.022   0.211   4.524  0.0101  0.3634  0.2863
    2MOL   C521 1203   7.226   0.287   4.459  0.7491 -0.7915  0.0909
    2MOL   C522 1204   7.234   0.406   4.536  0.1716  0.4339 -0.0874
    2MOL   C523 1205   7.330   0.509   4.511  0.3858 -0.1195  0.3611
    2MOL   C524 1206   7.412   0.494   4.400 -0.2369  0.2483 -0.0406
    2MOL   O525 1207   7.495   0.598   4.369 -0.2051 -0.0763  0.4588
    2MOL   C526 1208   7.475   0.730   4.397 -0.2055 -0.2039 -0.6333
    2MOL   C527 1209   7.586   0.813   4.428  0.3918  0.5383  0.0153
    2MOL   C528 1210   7.571   0.946   4.461  0.2239  0.1094  0.4773
    2MOL   C529 1211   7.441   1.004   4.463  0.4439  0.0114  1.1456
    2MOL   C530 1212   7.328   0.925   4.437 -0.2238  0.9693 -0.1205
    2MOL   C531 1213   7.349   0.788   4.393  0.0121 -0.2962 -0.6582
    2MOL   C532 1214   7.413   0.373   4.328 -0.0941 -0.2916 -0.5074
    2MOL   C533 1215   7.323   0.269   4.360 -1.4145  0.0090  0.4795
    2MOL   H534 1216   6.994   8.288   4.382 -1.1823 -0.3202  0.1187
    2MOL   H535 1217   7.066   8.056   4.352  0.8594 -0.7220  0.7404
    2MOL   H536 1218   7.455   8.160   4.504  0.4453  0.9632 -1.1303
    2MOL   H537 1219   7.371   0.068   4.570 -0.4608  0.0176  0.1118
    2MOL   H538 1220   7.171   0.421   4.622 -1.1038 -2.3059 -0.4898
    2MOL   H539 1221   7.325   0.590   4.583  0.0596  1.2924 -1.2257
    2MOL   H540 1222   7.688   0.780   4.413 -0.3133 -2.0242  0.6468
    2MOL   H541 1223   7.652   1.012   4.489  1.2632 -1.8417  2.2205
    2MOL   H542 1224   7.230   0.970   4.440 -0.2144  0.9515  0.3776
    2MOL   H543 1225   7.258   0.731   4.380 -0.2345  0.1019 -0.6870
    2MOL   H544 1226   7.493   0.350   4.259  1.2317  2.6901 -0.0365
    2MOL   H545 1227   7.332   0.174   4.308 -1.3092 -0.3256  1.1099
    2MOL   C546 1228   7.634   1.250   4.763 -0.4720  0.0599  0.0505
    2MOL   C547 1229   7.552   1.167   4.686  0.9965 -0.1961 -0.1174
    2MOL   C548 1230   7.488   1.210   4.571 -0.0024 -0.6502 -0.3656
    2MOL   O549 1231   7.415   1.140   4.489 -0.0193  0.6279  0.1373
    2MOL   C550 1232   7.518   1.340   4.521 -0.9187 -0.0603  0.3563
    2MOL   C551 1233   7.594   1.434   4.600  0.1435  1.0114  0.2857
    2MOL   C552 1234   7.654   1.384   4.722  0.1716  0.6183 -0.3212
    2MOL   C553 1235   7.745   1.473   4.801 -0.2128 -0.1654 -0.5775
    2MOL   O554 1236   7.865   1.459   4.816  0.0547 -0.4085  0.3702
    2MOL   C555 1237   7.677   1.588   4.866  0.4126  0.1724  0.1450
    2MOL   C556 1238   7.758   1.694   4.911 -0.4567 -0.3702  0.0136
    2MOL   C557 1239   7.697   1.808   4.969  0.3594 -0.1051 -0.6471
    2MOL   C558 1240   7.554   1.812   4.990  0.5126 -0.0962  0.9054
    2MOL   O559 1241   7.493   1.924   5.050  0.3333 -0.0255 -0.2273
    2MOL   C560 1242   7.375   1.972   4.995 -0.0658 -0.6062  0.0634
    2MOL   C561 1243   7.355   1.998   4.855 -0.1285  0.2849  0.1835
    2MOL   C562 1244   7.229   2.048   4.812  0.3825  0.0456  0.1651
    2MOL   C563 1245   7.129   2.082   4.904  0.2464  0.7723 -0.7163
    2MOL   C564 1246   7.147   2.049   5.041  0.2767  0.5317 -0.2539
    2MOL   C565 1247   7.269   1.992   5.088 -0.2781  0.0775  0.3966
    2MOL   C566 1248   7.477   1.698   4.962 -0.1546  0.8604  0.6406
    2MOL   C567 1249   7.541   1.587   4.908  0.4577 -0.2871  0.6656
    2MOL   H568 1250   7.691   1.207   4.844 -0.3711 -1.7575 -0.9520
    2MOL   H569 1251   7.546   1.062   4.714  0.2322 -0.3294 -0.7758
    2MOL   H570 1252   7.491   1.372   4.421  1.7418  0.4947 -0.2149
    2MOL   H571 1253   7.608   1.533   4.559  1.3204  1.4693  1.7245
    2MOL   H572 1254   7.863   1.714   4.897 -0.3978  0.4785  1.5421
    2MOL   H573 1255   7.749   1.902   4.978 -0.3994  0.4053 -1.4517
    2MOL   H574 1256   7.440   1.998   4.788  0.3895  0.0835  0.8397
    2MOL   H575 1257   7.216   2.078   4.709  0.7049 -2.2470 -0.5728
    2MOL   H576 1258   7.075   2.076   5.117  0.1162  0.5727 -0.4203
    2MOL   H577 1259   7.291   1.994   5.193 -0.3672  2.8703  0.4168
    2MOL   H578 1260   7.372   1.700   4.987 -0.4573  4.3990 -0.5922
    2MOL   H579 1261   7.474   1.505   4.890 -0.4693  0.7102 -0.5128
    2MOL   C580 1262   6.723   2.102   5.073 -0.1568  0.0836 -0.8207
    2MOL   C581 1263   6.821   2.073   4.974  0.1305 -0.1263 -0.7475
    2MOL   C582 1264   6.915   2.171   4.941 -0.6471 -0.1236  0.2004
    2MOL   O583 1265   7.017   2.140   4.854  0.0704  0.0112 -0.0385
    2MOL   C584 1266   6.917   2.292   5.000 -0.5794  0.4391  0.3317
    2MOL   C585 1267   6.817   2.325   5.097  0.1340 -0.3045  0.1217
    2MOL   C586 1268   6.723   2.227   5.131 -0.3655  0.7041 -0.7069
    2MOL   C587 1269   6.623   2.263   5.230  0.3518 -0.1863  0.1828
    2MOL   O588 1270   6.650   2.333   5.324  0.5900  0.5083  0.1655
    2MOL   C589 1271   6.485   2.214   5.205 -0.4116  0.4188  0.0060
    2MOL   C590 1272   6.398   2.184   5.316 -0.6176 -0.4211  0.2662
    2MOL   C591 1273   6.266   2.133   5.296 -0.0019  0.7674 -0.5176
    2MOL   C592 1274   6.216   2.136   5.168  0.1814  0.2152  0.5171
    2MOL   O593 1275   6.084   2.090   5.156 -0.1982  0.4423  0.1156
    2MOL   C594 1276   6.066   1.950   5.157  0.6243  0.3289 -0.4461
    2MOL   C595 1277   6.148   1.859   5.086 -0.0537  0.5966 -0.2385
    2MOL   C596 1278   6.131   1.721   5.094  0.0628 -0.1061 -1.1801
    2MOL   C597 1279   6.024   1.671   5.170 -0.4664  0.6124 -0.4057
    2MOL   C598 1280   5.946   1.756   5.243  0.1680  0.1781  0.7242
    2MOL   C599 1281   5.961   1.895   5.244 -1.1161  0.3470  0.8730
    2MOL   C600 1282   6.303   2.154   5.056 -0.1240 -0.4985  0.7197
    2MOL   C601 1283   6.433   2.195   5.075 -0.0505 -0.5240 -0.1255
    2MOL   H602 1284   6.652   2.024   5.093  2.1279 -2.1412 -1.1759
    2MOL   H603 1285   6.825   1.979   4.921  0.0167 -0.2446 -0.5474
    2MOL   H604 1286   6.991   2.365   4.972  0.3576 -0.6189  0.0213
    2MOL   H605 1287   6.818   2.423   5.141  0.2908  0.2415 -1.0712
    2MOL   H606 1288   6.440   2.207   5.413 -2.3953  1.9100  0.5113
    2MOL   H607 1289   6.204   2.114   5.382  2.2079 -0.5610  0.8458
    2MOL   H608 1290   6.235   1.899   5.037  0.1668 -0.9113 -1.1207
    2MOL   H609 1291   6.201   1.650   5.053  1.8663  0.8224  0.2031
    2MOL   H610 1292   5.863   1.720   5.302 -0.0198  0.6269  0.7344
    2MOL   H611 1293   5.904   1.965   5.303  1.0339  0.4999  2.8362
    2MOL   H612 1294   6.261   2.140   4.957  1.7676 -1.7455  0.0807
    2MOL   H613 1295   6.491   2.212   4.986  0.1686  0.6042  0.2238
    2MOL   C614 1296   6.000   1.267   4.918  0.5824  0.0310  0.2124
    2MOL   C615 1297   6.034   1.346   5.030 -0.6454 -0.0656 -0.5101
    2MOL   C616 1298   5.971   1.467   5.060 -0.1183  0.2289  0.4668
    2MOL   O617 1299   6.005   1.532   5.174  0.2792  0.5468 -0.8542
    2MOL   C618 1300   5.868   1.515   4.977 -0.1661 -0.2257 -0.1105
    2MOL   C619 1301   5.814   1.429   4.880  0.1259 -0.2441 -0.7249
    2MOL   C620 1302   5.879   1.304   4.852 -0.2842  0.2054  0.4267
    2MOL   C621 1303   5.809   1.220   4.747 -0.3829  0.6337 -0.7659
    2MOL   O622 1304   5.861   1.188   4.637  0.6342 -0.0759 -0.2181
    2MOL   C623 1305   5.667   1.172   4.781  0.4040  0.0593  0.4027
    2MOL   C624 1306   5.608   1.178   4.908 -0.6640 -0.4799 -0.5845
    2MOL   C625 1307   5.485   1.122   4.934  0.5279 -0.2925  0.3649
    2MOL   C626 1308   5.411   1.065   4.822 -0.0977  0.2026 -0.2770
    2MOL   O627 1309   5.287   1.015   4.833 -0.3445  0.1940  0.0885
    2MOL   C628 1310   5.205   1.058   4.941  0.1500 -0.1095  0.2497
    2MOL   C629 1311   5.165   0.965   5.038  0.2649 -0.3499 -0.3636
    2MOL   C630 1312   5.090   0.999   5.149 -0.4150  0.1043  0.0563
    2MOL   C631 1313   5.059   1.137   5.173  0.4314  0.1359 -0.7352
    2MOL   C632 1314   5.101   1.233   5.076  0.3875  0.3483  0.0112
    2MOL   C633 1315   5.174   1.191   4.960  0.0866  0.2805  0.0370
    2MOL   C634 1316   5.465   1.071   4.696 -0.3700  0.2096 -0.1322
    2MOL   C635 1317   5.597   1.116   4.676 -0.3790 -1.1781 -0.0119
    2MOL   H636 1318   6.051   1.174   4.898  0.8818  0.0254  0.9903
    2MOL   H637 1319   6.115   1.312   5.092  0.0245  1.9305 -0.2591
    2MOL   H638 1320   5.819   1.611   4.986 -0.3767 -0.3176 -0.2777
    2MOL   H639 1321   5.730   1.458   4.820  0.0664 -1.4650 -1.2349
    2MOL   H640 1322   5.668   1.211   4.992 -0.5387  0.0284 -0.8667
    2MOL   H641 1323   5.445   1.117   5.034  0.7399  1.2312  0.5284
    2MOL   H642 1324   5.193   0.862   5.026  1.5438 -0.1764  1.0006
    2MOL   H643 1325   5.055   0.919   5.213  0.3697  0.0633  0.4287
    2MOL   H644 1326   5.062   1.333   5.089 -4.4884 -1.5098  0.7562
    2MOL   H645 1327   5.203   1.263   4.886  1.1456 -0.0736  0.1027
    2MOL   H646 1328   5.416   1.017   4.616  0.1407  0.0117 -0.3130
    2MOL   H647 1329   5.634   1.117   4.575 -1.9186  0.9392 -0.5903
    2MOL   C648 1330   4.733   0.970   5.427  0.3993  0.6856  0.3467
    2MOL   C649 1331   4.858   1.028   5.416 -0.0312  0.4158  0.1397
    2MOL   C650 1332   4.879   1.132   5.320  0.8793 -0.4074 -0.0816
    2MOL   O651 1333   5.005   1.184   5.291 -0.5222 -0.3989 -0.8459
    2MOL   C652 1334   4.770   1.182   5.243 -0.3179 -0.3258 -0.4337
    2MOL   C653 1335   4.640   1.116   5.257  0.2175 -0.7927 -0.4584
    2MOL   C654 1336   4.621   1.009   5.348  0.3616  0.3402  0.6845
    2MOL   C655 1337   4.486   0.942   5.365  0.7743 -0.3660  0.4084
    2MOL   O656 1338   4.450   0.896   5.467 -0.0397 -0.5900 -0.4826
    2MOL   C657 1339   4.389   0.942   5.254 -0.0020  0.5713 -0.4458
    2MOL   C658 1340   4.256   0.959   5.286  0.8097  0.2586  0.4925
    2MOL   C659 1341   4.160   0.950   5.176  0.1467  0.9370 -0.3324
    2MOL   C660 1342   4.200   0.917   5.046 -0.0174  0.0932 -0.4200
    2MOL   O661 1343   4.106   0.887   4.947 -0.4864 -0.3763  0.9409
    2MOL   C662 1344   3.972   0.873   4.970  0.0946  0.6826 -0.9204
    2MOL   C663 1345   3.921   0.744   5.006 -0.1358  0.3417  0.1201
    2MOL   C664 1346   3.783   0.733   5.030 -0.6302 -0.1947 -1.0183
    2MOL   C665 1347   3.699   0.843   5.010  0.4209  0.2312 -0.0537
    2MOL   C666 1348   3.751   0.968   4.981 -0.4339 -1.1649 -0.2714
    2MOL   C667 1349   3.889   0.986   4.969 -0.0768 -0.3858 -1.2131
    2MOL   C668 1350   4.341   0.891   5.022 -0.4004 -0.2446 -0.3352
    2MOL   C669 1351   4.436   0.905   5.124 -0.6894 -0.3735 -0.5426
    2MOL   H670 1352   4.729   0.876   5.480  0.3939  1.2595  1.3750
    2MOL   H671 1353   4.945   0.996   5.471  1.1312  1.2491 -1.1554
    2MOL   H672 1354   4.778   1.258   5.167 -2.3751  0.5810  0.2168
    2MOL   H673 1355   4.548   1.135   5.203 -0.5807  0.7393  1.3694
    2MOL   H674 1356   4.213   0.980   5.383  0.6233 -0.9255  0.6649
    2MOL   H675 1357   4.057   0.956   5.207  0.6094 -1.5324  1.8790
    2MOL   H676 1358   3.983   0.655   5.008 -1.8515 -0.9099 -1.1665
    2MOL   H677 1359   3.734   0.639   5.050 -0.9004  0.0347 -0.5759
    2MOL   H678 1360   3.682   1.051   4.967  0.0682 -0.4521  1.3308
    2MOL   H679 1361   3.916   1.087   4.943 -0.0081 -0.0357  0.1867
    2MOL   H680 1362   4.377   0.863   4.924 -0.3610  2.2713 -1.0596
    2MOL   H681 1363   4.542   0.892   5.105 -0.4020  0.8361  0.1974
    2MOL   H682 1364   3.594   0.820   5.020  0.1693  0.9878 -0.9226
    3MOL     C1 1365   5.811   2.649   7.587  0.2287  0.4321 -0.3405
    3MOL     C2 1366   5.677   2.629   7.551 -0.4156  0.4512 -0.2871
    3MOL     C3 1367   5.585   2.742   7.560 -0.8030  0.1207  0.4681
    3MOL     O4 1368   5.463   2.719   7.512 -0.7827  0.6876  0.1777
    3MOL     C5 1369   5.629   2.859   7.620  0.3534 -0.3080 -0.3591
    3MOL     C6 1370   5.766   2.877   7.659 -0.3934  0.6104 -0.5110
    3MOL     C7 1371   5.862   2.772   7.643  1.2578 -0.7879 -0.3950
    3MOL     C8 1372   6.005   2.803   7.677  0.2803 -0.6183 -0.4127
    3MOL     O9 1373   6.032   2.916   7.725  0.4358  0.2560  0.2762
    3MOL    C10 1374   6.107   2.689   7.652 -0.9266 -0.2068  0.2618
    3MOL    C11 1375   6.183   2.643   7.759 -0.0206  0.2873 -0.3838
    3MOL    C12 1376   6.272   2.531   7.746  0.2785 -0.4726  0.6617
    3MOL    C13 1377   6.300   2.480   7.615  0.2531  0.5391 -1.2777
    3MOL    O14 1378   6.398   2.380   7.599  0.3148 -0.3931  0.1244
    3MOL    C15 1379   6.531   2.416   7.602  0.2409  0.4564  0.3621
    3MOL    C16 1380   6.599   2.436   7.480 -0.1835  0.3453 -0.0306
    3MOL    C17 1381   6.733   2.483   7.487 -0.0434  0.5107  0.4215
    3MOL    C18 1382   6.794   2.514   7.609  0.1099 -0.2454  0.2678
    3MOL    C19 1383   6.716   2.500   7.731  1.0405 -0.8031 -0.2404
    3MOL    C20 1384   6.585   2.450   7.725  0.0221  0.3091 -0.2285
    3MOL    C21 1385   6.236   2.535   7.503  0.1688 -0.5073  0.7564
    3MOL    C22 1386   6.136   2.637   7.523  0.0392 -0.3250  0.3973
    3MOL    H23 1387   5.881   2.568   7.575 -1.5137 -1.2917  0.9255
    3MOL    H24 1388   5.633   2.538   7.512 -1.1718  2.1289 -3.5048
    3MOL    H25 1389   5.572   2.950   7.635 -3.0503 -1.8602 -3.2289
    3MOL    H26 1390   5.790   2.975   7.697 -1.7994  0.2553  1.3623
    3MOL    H27 1391   6.165   2.690   7.855  0.4104  1.8116 -1.0255
    3MOL    H28 1392   6.328   2.489   7.828 -0.9520 -1.5148  0.9893
    3MOL    H29 1393   6.563   2.418   7.380 -0.4885  1.1032 -0.0637
    3MOL    H30 1394   6.779   2.509   7.392  0.0922 -1.5759 -0.1133
    3MOL    H31 1395   6.753   2.527   7.829  0.1760  1.8381 -0.5880
    3MOL    H32 1396   6.526   2.443   7.816 -2.6188  0.1602 -1.9129
    3MOL    H33 1397   6.248   2.485   7.408 -0.4724 -0.3854  0.6083
    3MOL    H34 1398   6.079   2.681   7.442 -0.7201 -0.0973  1.0490
    3MOL    H35 1399   5.457   2.656   7.442 -2.4494  2.3143 -1.1735
    3MOL    C36 1400   6.951   2.861   7.821  0.0711  0.4415  0.1948
    3MOL    C37 1401   6.956   2.726   7.785  0.4971 -0.4673  0.4104
    3MOL    C38 1402   6.938   2.693   7.648 -0.4404  0.4948  0.1375
    3MOL    O39 1403   6.923   2.559   7.615 -0.7608 -0.2519 -0.2244
    3MOL    C40 1404   6.939   2.788   7.544  0.6426  0.2599 -0.3758
    3MOL    C41 1405   6.934   2.926   7.581  0.1396  0.3419  0.2510
    3MOL    C42 1406   6.940   2.959   7.717 -1.1226  0.1230 -0.8975
    3MOL    C43 1407   6.925   3.102   7.750  0.2125 -0.2913  0.4490
    3MOL    O44 1408   6.831   3.163   7.699  0.4501  0.2521  0.0412
    3MOL    C45 1409   7.035   3.156   7.833 -0.0859 -0.0731 -0.3881
    3MOL    C46 1410   6.999   3.263   7.919  0.8887  0.2810 -0.2765
    3MOL    C47 1411   7.100   3.307   8.014  0.1388 -0.3246  0.6691
    3MOL    C48 1412   7.232   3.253   8.017  0.0608  0.8801 -0.1252
    3MOL    O49 1413   7.322   3.305   8.104 -0.0722  0.3821  0.3640
    3MOL    C50 1414   7.330   3.262   8.233  0.2108 -0.7765  0.4612
    3MOL    C51 1415   7.459   3.246   8.288  0.5587 -0.6529 -0.1254
    3MOL    C52 1416   7.476   3.194   0.105  0.5672  0.4566  0.4189
    3MOL    C53 1417   7.363   3.162   0.185  0.2064 -0.1101 -0.1317
    3MOL    C54 1418   7.239   3.185   0.137 -0.4235  0.1610  0.0705
    3MOL    C55 1419   7.219   3.226   0.004  0.1332 -0.3403 -0.1530
    3MOL    C56 1420   7.260   3.147   7.935 -0.5698 -0.1683 -0.1237
    3MOL    C57 1421   7.166   3.105   7.838 -0.2132  0.1834 -0.1023
    3MOL    H58 1422   6.960   2.899   7.921 -0.0587 -0.6583  0.6298
    3MOL    H59 1423   6.959   2.635   7.842 -2.1906 -0.3392  0.8138
    3MOL    H60 1424   6.934   2.760   7.440 -2.2158 -1.0222  0.0479
    3MOL    H61 1425   6.928   3.008   7.511  1.0984  0.0590 -0.1748
    3MOL    H62 1426   6.903   3.312   7.918  0.2472 -0.9431 -0.4980
    3MOL    H63 1427   7.061   3.382   8.081  1.6063 -1.7401  3.1565
    3MOL    H64 1428   7.546   3.277   8.232  1.0805  1.1245  1.6104
    3MOL    H65 1429   7.577   3.181   0.142  1.4433  0.1879 -2.0179
    3MOL    H66 1430   7.152   3.158   0.195 -1.3673  0.5541 -1.1285
    3MOL    H67 1431   7.114   3.226   8.291 -0.4303  1.3867  1.9897
    3MOL    H68 1432   7.354   3.096   7.948 -0.3264  0.4919  0.8149
    3MOL    H69 1433   7.202   3.027   7.773  0.8571  0.9399 -0.4367
    3MOL    C70 1434   7.283   2.793   0.472  0.0290 -0.5845 -0.5895
    3MOL    C71 1435   7.311   2.931   0.445  0.1931  0.1075  0.2116
    3MOL    C72 1436   7.360   2.973   0.321  0.3627  0.3003  0.1510
    3MOL    O73 1437   7.383   3.102   0.302  0.2266  0.0073  0.2371
    3MOL    C74 1438   7.382   2.881   0.219 -0.9925 -0.5519 -0.4211
    3MOL    C75 1439   7.345   2.746   0.241  0.0646  0.3975  0.2434
    3MOL    C76 1440   7.293   2.702   0.369 -0.0587 -0.0528  0.0733
    3MOL    C77 1441   7.250   2.560   0.390  0.2342  0.3677  0.0207
    3MOL    O78 1442   7.146   2.523   0.450 -0.0466 -0.1831  0.1253
    3MOL    C79 1443   7.350   2.462   0.344  0.8331 -0.0560  0.2972
    3MOL    C80 1444   7.489   2.489   0.362 -0.1381 -0.1670 -0.0548
    3MOL    C81 1445   7.585   2.395   0.327  0.2540  0.1283 -0.0627
    3MOL    C82 1446   7.540   2.275   0.268  0.5177  0.1402  0.0470
    3MOL    O83 1447   7.630   2.181   0.239 -0.4716  0.1877  0.3981
    3MOL    C84 1448   7.638   2.123   0.111 -0.9218 -0.0542  0.8018
    3MOL    C85 1449   7.662   1.984   0.101  0.6582  0.5174 -0.5519
    3MOL    C86 1450   7.658   1.913   8.290  0.3681 -0.2061 -0.3855
    3MOL    C87 1451   7.643   1.984   8.174  0.0851 -0.3547 -0.6874
    3MOL    C88 1452   7.616   2.124   8.184  0.0117  0.2531 -0.2563
    3MOL    C89 1453   7.608   2.191   8.306 -0.7762  0.3031  0.1754
    3MOL    C90 1454   7.404   2.249   0.247 -0.8654 -0.2444  0.2683
    3MOL    C91 1455   7.307   2.340   0.283 -0.6701  0.1011 -0.6785
    3MOL    H92 1456   7.242   2.760   0.566  0.5937  1.3017  0.3416
    3MOL    H93 1457   7.291   3.003   0.523  1.6405  3.1794 -2.1264
    3MOL    H94 1458   7.410   2.898   0.116 -1.0858 -0.9551 -0.5101
    3MOL    H95 1459   7.358   2.677   0.159  3.1977  0.1168  0.9446
    3MOL    H96 1460   7.517   2.585   0.402  0.8456 -0.6974  0.5621
    3MOL    H97 1461   7.693   2.401   0.335  0.2075  0.6453  0.1570
    3MOL    H98 1462   7.669   1.936   0.197 -0.7128  0.2671 -0.5701
    3MOL    H99 1463   7.674   1.806   8.282  1.9841 -0.0153  0.1731
    3MOL   H100 1464   7.593   2.177   8.093 -1.6309 -0.5322 -0.3154
    3MOL   H101 1465   7.564   2.289   0.001  0.6060  0.9040  0.5067
    3MOL   H102 1466   7.381   2.150   0.210 -0.9880 -0.9950  2.2940
    3MOL   H103 1467   7.203   2.314   0.274 -0.3136 -1.0397 -1.5955
    3MOL   C104 1468   8.014   1.869   7.973  0.2943  0.3596  0.1416
    3MOL   C105 1469   7.895   1.864   8.048  0.1336  0.2747  0.6414
    3MOL   C106 1470   7.779   1.932   7.995 -0.1487 -0.3488 -0.0633
    3MOL   O107 1471   7.656   1.920   8.058  0.5948  0.6527 -0.0109
    3MOL   C108 1472   7.791   2.000   7.873  0.0004  0.3861 -0.5299
    3MOL   C109 1473   7.906   2.001   7.801 -0.0061 -0.0024  1.2692
    3MOL   C110 1474   8.018   1.933   7.850  0.3197 -0.1088  0.0371
    3MOL   C111 1475   8.134   1.911   7.757 -0.7303 -0.5457 -0.1149
    3MOL   O112 1476   8.175   1.795   7.739 -0.1465  0.2653 -0.2385
    3MOL   C113 1477   8.206   2.028   7.688  0.4851  0.4641  0.2788
    3MOL   C114 1478   8.167   2.165   7.714  0.2847  1.0056  0.4762
    3MOL   C115 1479   8.231   2.274   7.650 -0.0350 -0.3316 -0.1903
    3MOL   C116 1480   0.024   2.250   7.562  0.2189 -0.2443  1.2621
    3MOL   O117 1481   0.088   2.356   7.498 -0.2082 -0.2205  0.3900
    3MOL   C118 1482   0.018   2.459   7.442  0.0360  0.2464 -0.5531
    3MOL   C119 1483   8.213   2.441   7.368  0.5097 -0.1808 -0.3108
    3MOL   C120 1484   8.150   2.554   7.307  0.5848 -0.5260  0.0612
    3MOL   C121 1485   8.199   2.683   7.331  0.5773  0.0994 -1.3439
    3MOL   C122 1486   0.002   2.703   7.402 -0.0103  0.4156 -0.1647
    3MOL   C123 1487   0.072   2.591   7.455  1.1069 -0.1428 -0.3582
    3MOL   C124 1488   0.063   2.119   7.531  0.3019 -0.0497  0.2246
    3MOL   C125 1489   0.005   2.009   7.601  0.0624  0.2159  0.2945
    3MOL   H126 1490   8.094   1.807   8.010  0.6345  0.4037 -0.5183
    3MOL   H127 1491   7.891   1.814   8.143 -0.1366  0.9638  0.9982
    3MOL   H128 1492   7.704   2.044   7.827  1.3263 -0.5579 -4.0896
    3MOL   H129 1493   7.911   2.053   7.706 -0.2478 -1.3647  0.4942
    3MOL   H130 1494   8.101   2.198   7.793  0.2003 -0.4448  1.0339
    3MOL   H131 1495   8.202   2.376   7.671  0.0082 -0.5320  0.8608
    3MOL   H132 1496   8.172   2.342   7.354 -1.0094  0.4181 -0.1136
    3MOL   H133 1497   8.056   2.527   7.262 -0.7205 -1.1984  3.0484
    3MOL   H134 1498   0.047   2.800   7.417 -0.9685  0.9594 -0.7351
    3MOL   H135 1499   0.164   2.599   7.510  0.8820 -0.9661  0.1428
    3MOL   H136 1500   0.130   2.094   7.451  1.5271  0.6871  1.0185
    3MOL   H137 1501   0.026   1.910   7.565 -1.5493 -0.7151  1.8581
    3MOL   C138 1502   8.031   2.993   7.596  0.0635 -0.4634  0.5556
    3MOL   C139 1503   8.107   2.944   7.487 -0.6753  0.0828  0.5096
    3MOL   C140 1504   8.048   2.849   7.403 -0.7457  0.0872 -0.0893
    3MOL   O141 1505   8.126   2.798   7.300 -0.4684  0.2021 -0.1417
    3MOL   C142 1506   7.918   2.806   7.420 -0.8596 -0.3343  0.5770
    3MOL   C143 1507   7.841   2.866   7.521 -0.2499 -0.2213 -0.1833
    3MOL   C144 1508   7.894   2.954   7.615 -0.4436 -0.2430  0.4095
    3MOL   C145 1509   7.811   3.022   7.715 -0.4961 -0.0802 -0.0734
    3MOL   O146 1510   7.830   3.141   7.734 -0.0745 -0.6071 -0.5352
    3MOL   C147 1511   7.729   2.944   7.813 -0.2222 -0.3540  0.8793
    3MOL   C148 1512   7.736   2.803   7.830 -0.6240  0.4685 -0.4236
    3MOL   C149 1513   7.668   2.749   7.935 -0.6701  0.3161  0.0828
    3MOL   C150 1514   7.600   2.831   8.031 -0.6198  0.4350  0.5059
    3MOL   O151 1515   7.532   2.769   8.128  0.1738  0.2824  0.3130
    3MOL   C152 1516   7.598   2.733   8.239 -1.1389  0.1115  0.6452
    3MOL   C153 1517   7.630   2.597   8.250 -0.6479  0.0320  0.4719
    3MOL   C154 1518   7.725   2.555   0.036 -0.1936 -0.1271 -0.5677
    3MOL   C155 1519   7.760   2.647   0.138  0.2318 -0.3317  0.2491
    3MOL   C156 1520   7.711   2.778   0.138 -0.4067  0.9470  1.1113
    3MOL   C157 1521   7.628   2.824   0.030 -0.2183  0.0549 -0.2034
    3MOL   C158 1522   7.589   2.968   8.010 -0.2079 -0.3919 -0.5364
    3MOL   C159 1523   7.650   3.026   7.896  0.1144  0.3377 -0.4827
    3MOL   H160 1524   8.074   3.056   7.672 -1.4429  0.6302  0.5396
    3MOL   H161 1525   8.212   2.965   7.474 -0.5336 -1.7200 -1.6499
    3MOL   H162 1526   7.882   2.735   7.347 -1.5766 -0.4599  1.0495
    3MOL   H163 1527   7.737   2.839   7.528  0.3041 -2.0691  1.6724
    3MOL   H164 1528   7.793   2.737   7.766  1.0853  0.9708  0.5303
    3MOL   H165 1529   7.675   2.642   7.949  1.3966  0.4299  0.0396
    3MOL   H166 1530   7.596   2.537   8.167  0.8689 -0.2108 -0.0081
    3MOL   H167 1531   7.780   2.461   0.035  0.0750  0.0232 -0.1022
    3MOL   H168 1532   7.756   2.848   0.208 -1.8886  1.6754  1.3577
    3MOL   H169 1533   7.610   2.930   0.021 -0.7442  0.1615  2.0156
    3MOL   H170 1534   7.525   3.030   8.071  0.0525 -2.1583  1.6042
    3MOL   H171 1535   7.643   3.132   7.875  0.6025  0.4678 -0.0107
    3MOL   C172 1536   8.133   2.403   0.169  0.0366 -0.5809  0.2224
    3MOL   C173 1537   8.005   2.441   0.214 -0.1651  0.2897 -0.5933
    3MOL   C174 1538   7.967   2.577   0.219 -0.4924 -0.4211  0.0508
    3MOL   O175 1539   7.834   2.607   0.247  0.3652 -0.6895  0.4266
    3MOL   C176 1540   8.059   2.675   0.178 -0.4341  0.1611  0.0959
    3MOL   C177 1541   8.195   2.644   0.151  0.2292  1.2659  0.5161
    3MOL   C178 1542   8.229   2.505   0.132 -0.3442  0.2997  0.8427
    3MOL   C179 1543   0.050   2.472   0.085 -0.1200  0.0570  0.5024
    3MOL   O180 1544   0.113   2.373   0.129 -0.6290  0.4950 -0.0019
    3MOL   C181 1545   0.101   2.562   8.287  0.4294  0.4298  0.0962
    3MOL   C182 1546   0.237   2.579   8.288 -0.8710 -0.8171 -0.0730
    3MOL   C183 1547   0.291   2.652   8.187  0.1457 -0.1647 -0.0817
    3MOL   C184 1548   0.215   2.695   8.074  0.0232  0.0174  1.0803
    3MOL   O185 1549   0.278   2.754   7.964 -0.0237 -0.0734  0.1918
    3MOL   C186 1550   0.341   2.674   7.874 -0.0557 -0.3653  0.1706
    3MOL   C187 1551   0.270   2.572   7.813 -0.5971 -0.3138 -0.8455
    3MOL   C188 1552   0.335   2.485   7.722  0.0697 -0.2059 -0.3106
    3MOL   C189 1553   0.475   2.503   7.691 -0.1396  0.0644  0.3839
    3MOL   C190 1554   0.542   2.615   7.744 -0.1271  1.0334 -0.1895
    3MOL   C191 1555   0.476   2.704   7.836 -0.2174  1.1041  0.3845
    3MOL   C192 1556   0.076   2.682   8.073 -0.2278  0.3447 -0.8892
    3MOL   C193 1557   0.021   2.616   8.185  0.1319 -0.6339 -0.0072
    3MOL   H194 1558   8.168   2.301   0.157 -0.2659 -0.7417  0.6879
    3MOL   H195 1559   7.943   2.354   0.231 -1.3580  1.4154  1.0354
    3MOL   H196 1560   8.024   2.777   0.182 -0.7160  0.0328  0.9661
    3MOL   H197 1561   8.267   2.716   0.115  1.3739 -1.2399 -2.5238
    3MOL   H198 1562   0.289   2.537   0.061  1.0803 -0.6284 -1.1367
    3MOL   H199 1563   0.396   2.675   8.192 -0.4424  2.3084  1.7324
    3MOL   H200 1564   0.164   2.561   7.829 -0.3963 -2.2951 -0.7592
    3MOL   H201 1565   0.278   2.402   7.685 -2.0951 -0.0400  2.4545
    3MOL   H202 1566   0.649   2.628   7.736  0.1435 -1.4055 -0.8146
    3MOL   H203 1567   0.528   2.791   7.872  0.8489  0.3109  0.7598
    3MOL   H204 1568   0.010   2.702   7.991 -0.6039 -1.7625 -1.1310
    3MOL   H205 1569   8.230   2.587   8.185  0.1050 -0.7960  3.8508
    3MOL   C206 1570   0.430   2.172   7.351  0.6105 -0.3233 -0.0028
    3MOL   C207 1571   0.500   2.237   7.460  1.2005 -0.2079  0.2059
    3MOL   C208 1572   0.475   2.370   7.492  0.3103 -0.6361  0.3174
    3MOL   O209 1573   0.543   2.422   7.599  0.7994 -0.1095 -0.1283
    3MOL   C210 1574   0.386   2.445   7.417  0.0989 -0.7451  0.1895
    3MOL   C211 1575   0.317   2.383   7.312  0.1243  0.0228 -0.0004
    3MOL   C212 1576   0.337   2.248   7.277 -0.1476  0.9479 -0.4309
    3MOL   C213 1577   0.248   2.178   7.177 -0.3091  0.2991 -0.4424
    3MOL   O214 1578   0.271   2.060   7.148 -0.3360 -0.1094  0.1991
    3MOL   C215 1579   0.118   2.242   7.139 -0.0646  0.5383 -0.4803
    3MOL   C216 1580   0.111   2.366   7.073  0.5552 -0.4192 -0.0741
    3MOL   C217 1581   8.300   2.418   7.023 -0.3178  1.4292 -0.2534
    3MOL   C218 1582   8.184   2.346   7.039  0.0282 -0.2489 -0.5696
    3MOL   O219 1583   8.066   2.404   6.991  0.1947 -0.1298  0.8782
    3MOL   C220 1584   8.038   2.375   6.861  0.0523  0.3313 -0.6082
    3MOL   C221 1585   8.060   2.467   6.760 -0.7408 -0.5349  0.1399
    3MOL   C222 1586   8.018   2.445   6.627  0.9288 -0.2434 -0.4603
    3MOL   C223 1587   7.971   2.317   6.590 -0.2580 -0.4450  0.1130
    3MOL   C224 1588   7.954   2.223   6.690 -0.6040 -0.0473 -0.1751
    3MOL   C225 1589   7.974   2.257   6.826  0.0689  0.4958  0.2377
    3MOL   C226 1590   8.191   2.226   7.103  0.0161  0.3138 -0.6971
    3MOL   C227 1591   8.311   2.167   7.156  0.3952  0.5899 -0.3568
    3MOL   H228 1592   0.452   2.067   7.335  3.0093  0.4847 -2.4857
    3MOL   H229 1593   0.570   2.174   7.514  0.7284  1.2453  2.5880
    3MOL   H230 1594   0.375   2.550   7.440  1.6150 -0.0239 -2.1846
    3MOL   H231 1595   0.256   2.453   7.257 -2.1488 -1.3540  0.6880
    3MOL   H232 1596   0.197   2.429   7.054 -0.0137  0.1828 -0.7283
    3MOL   H233 1597   8.295   2.513   6.973 -2.1893  0.7036 -1.5101
    3MOL   H234 1598   8.123   2.550   6.788 -1.0156 -0.0988 -0.5517
    3MOL   H235 1599   8.042   2.524   6.556 -0.1470  1.8950  1.4927
    3MOL   H236 1600   7.903   2.129   6.674 -2.3476  0.7169  0.7693
    3MOL   H237 1601   7.957   2.184   6.904  2.4734  0.4083  0.7209
    3MOL   H238 1602   8.105   2.165   7.124  1.8006 -1.9197  0.2908
    3MOL   H239 1603   8.311   2.078   7.216 -0.9078 -0.8825 -2.4672
    3MOL   C240 1604   7.946   2.516   6.179  0.4890 -0.2090  0.4484
    3MOL   C241 1605   7.990   2.430   6.281  0.4942 -1.0790 -0.5217
    3MOL   C242 1606   7.897   2.376   6.370 -0.0065  0.2557  0.5256
    3MOL   O243 1607   7.936   2.280   6.460  0.1689  0.0381  0.1220
    3MOL   C244 1608   7.762   2.417   6.364  0.1983  0.0891 -0.1006
    3MOL   C245 1609   7.724   2.507   6.271 -0.2545  0.1469  0.9619
    3MOL   C246 1610   7.812   2.564   6.180 -0.5855 -0.7481  0.2666
    3MOL   C247 1611   7.761   2.652   6.072 -0.0908  0.8077 -0.2329
    3MOL   O248 1612   7.654   2.706   6.096 -0.1461  0.3654  0.1799
    3MOL   C249 1613   7.843   2.686   5.952  0.1287 -0.7204  0.1510
    3MOL   C250 1614   7.792   2.659   5.823 -0.0244  0.2098 -0.1375
    3MOL   C251 1615   7.880   2.661   5.715  0.4463  0.7334 -0.7218
    3MOL   C252 1616   7.998   2.740   5.724  0.4166  0.5359  0.1002
    3MOL   O253 1617   8.080   2.750   5.613  0.0804 -0.2235  0.0426
    3MOL   C254 1618   8.045   2.834   5.516 -0.5055 -0.1323  0.0553
    3MOL   C255 1619   7.970   2.782   5.408 -0.2851 -0.0566  0.3432
    3MOL   C256 1620   7.930   2.868   5.307 -0.2979 -0.3011 -0.2022
    3MOL   C257 1621   7.971   3.003   5.308 -0.3445  0.1314 -0.5311
    3MOL   C258 1622   8.041   3.054   5.410 -0.1454  0.5541 -0.0909
    3MOL   C259 1623   8.086   2.968   5.513  0.8651 -0.7498  0.7326
    3MOL   C260 1624   8.039   2.783   5.849 -0.1802 -0.1812  0.2064
    3MOL   C261 1625   7.968   2.752   5.969 -0.0157  0.2083 -0.0993
    3MOL   H262 1626   8.011   2.540   6.096 -0.2077 -0.6321 -0.2269
    3MOL   H263 1627   8.090   2.390   6.277  0.1240 -2.0839  0.1153
    3MOL   H264 1628   7.689   2.386   6.437  1.0034 -0.5751  0.4331
    3MOL   H265 1629   7.622   2.543   6.274 -0.5106 -0.6312  1.8662
    3MOL   H266 1630   7.694   2.618   5.806  0.0521  0.5573 -1.4929
    3MOL   H267 1631   7.865   2.606   5.623 -0.7240 -0.7564  0.3420
    3MOL   H268 1632   7.949   2.677   5.416 -0.0303 -0.1753 -0.5555
    3MOL   H269 1633   7.870   2.822   5.231 -1.3197  0.0285  0.3985
    3MOL   H270 1634   8.070   3.158   5.405 -0.3371  0.5248 -2.4082
    3MOL   H271 1635   8.135   3.009   5.600 -1.6830  1.4694  1.1979
    3MOL   H272 1636   8.128   2.843   5.859  0.0788 -1.0858  4.4946
    3MOL   H273 1637   8.004   2.793   6.062  1.1063  1.4394 -1.0365
    3MOL   C274 1638   7.937   3.028   4.850  0.4614 -1.0003  0.1627
    3MOL   C275 1639   7.983   3.045   4.985  0.3227  0.2636 -0.4961
    3MOL   C276 1640   7.889   3.053   5.087 -0.1330 -0.3827 -0.6292
    3MOL   O277 1641   7.932   3.093   5.214  0.8808 -0.3755  0.2377
    3MOL   C278 1642   7.749   3.028   5.054 -1.3864  0.5645  0.5331
    3MOL   C279 1643   7.714   2.997   4.920  0.3238 -0.6059 -0.6355
    3MOL   C280 1644   7.802   3.007   4.817 -1.0950 -0.5331 -0.0232
    3MOL   C281 1645   7.760   2.975   4.679 -0.2062  0.0265 -0.0425
    3MOL   O282 1646   7.761   2.860   4.633 -0.1768  0.4429  0.6376
    3MOL   C283 1647   7.726   3.090   4.589  0.1836 -0.8057 -0.2085
    3MOL   C284 1648   7.662   3.208   4.635  0.3396 -0.3160 -0.1808
    3MOL   C285 1649   7.641   3.320   4.552  0.1831  0.5942  0.3185
    3MOL   C286 1650   7.678   3.312   4.417 -0.1851 -0.3196 -0.5197
    3MOL   O287 1651   7.673   3.420   4.332 -0.6279  0.1467 -0.1794
    3MOL   C288 1652   7.789   3.489   4.300  0.0574 -0.0221 -0.6373
    3MOL   C289 1653   7.886   3.502   4.403 -0.2352 -0.0600 -0.2932
    3MOL   C290 1654   7.993   3.593   4.385  0.8713  0.3169  0.0604
    3MOL   C291 1655   8.009   3.669   4.261  0.0159  0.3687 -0.3559
    3MOL   C292 1656   7.922   3.643   4.152 -0.3714 -0.7565 -0.1378
    3MOL   C293 1657   7.807   3.561   4.178 -0.3231 -0.4654  0.6082
    3MOL   C294 1658   7.724   3.190   4.368 -0.5138  0.1665  0.1869
    3MOL   C295 1659   7.769   3.086   4.454 -0.0120  0.0733  0.1636
    3MOL   H296 1660   8.005   3.031   4.766  1.5150  0.2385  1.0335
    3MOL   H297 1661   8.084   3.072   5.009  0.1582 -1.8984  3.0720
    3MOL   H298 1662   7.680   3.050   5.134  0.3977  2.3929  1.6244
    3MOL   H299 1663   7.612   2.972   4.895  0.4973 -2.3288  0.2778
    3MOL   H300 1664   7.636   3.215   4.739 -1.3947  0.8276 -0.6591
    3MOL   H301 1665   7.588   3.404   4.593  0.3055  1.2131 -0.7884
    3MOL   H302 1666   7.878   3.452   4.498 -0.9124  0.4222 -0.0961
    3MOL   H303 1667   8.061   3.604   4.469  0.2013  0.9319  0.5289
    3MOL   H304 1668   7.927   3.704   4.063 -1.0814  0.5532  0.6880
    3MOL   H305 1669   7.730   3.549   4.103  0.1738 -1.2432  0.2198
    3MOL   H306 1670   7.756   3.185   4.265  1.0292 -1.8543  0.7433
    3MOL   H307 1671   7.825   3.001   4.418  0.5051  0.1040  0.8814
    3MOL   C308 1672   8.155   4.057   4.049  0.3994  1.1321  0.0215
    3MOL   C309 1673   8.168   3.926   4.103 -0.6090 -0.0245  0.6140
    3MOL   C310 1674   8.090   3.880   4.200  0.2022  0.3550  0.1160
    3MOL   O311 1675   8.116   3.758   4.253  0.7155 -0.2906  0.2630
    3MOL   C312 1676   7.985   3.967   4.248 -0.0374  0.6946 -0.2844
    3MOL   C313 1677   7.969   4.096   4.191 -0.8254  0.4032 -0.7790
    3MOL   C314 1678   8.051   4.142   4.085  0.4768 -0.1661 -0.8540
    3MOL   C315 1679   8.027   4.272   4.021  0.4350 -0.1832 -0.9479
    3MOL   O316 1680   7.917   4.327   4.017 -0.1689 -0.0985  0.9631
    3MOL   C317 1681   8.150   4.336   3.963 -0.4747  0.1577 -0.5341
    3MOL   C318 1682   8.272   4.344   4.033 -0.4570  0.0775 -0.2056
    3MOL   C319 1683   0.066   4.415   3.965 -0.3358 -0.2116  0.0555
    3MOL   C320 1684   0.046   4.483   3.843  0.2868 -0.0626 -0.0042
    3MOL   O321 1685   0.151   4.556   3.788  0.1971 -0.2284 -0.7051
    3MOL   C322 1686   0.132   4.692   3.780 -1.1225  0.1384  0.8823
    3MOL   C323 1687   0.113   4.744   3.650 -0.2921 -0.1262  0.4117
    3MOL   C324 1688   0.080   4.881   3.633  0.8869 -0.2902  0.1698
    3MOL   C325 1689   0.064   4.964   3.751  0.1923  0.1912  0.4868
    3MOL   C326 1690   0.084   4.908   3.876  0.0871 -0.1471 -0.2375
    3MOL   C327 1691   0.115   4.775   3.889  0.0508  0.5585 -0.3845
    3MOL   C328 1692   8.232   4.475   3.780 -0.2630 -0.2090 -0.4341
    3MOL   C329 1693   8.133   4.397   3.837 -0.0161 -0.4392  0.0912
    3MOL   H330 1694   8.224   4.079   3.968  0.8418 -1.0966 -0.2624
    3MOL   H331 1695   8.252   3.865   4.075 -1.5044 -0.9445 -0.1100
    3MOL   H332 1696   7.923   3.929   4.328 -0.9336  2.1898 -0.2608
    3MOL   H333 1697   7.881   4.140   4.235  0.3458  1.2950  0.7007
    3MOL   H334 1698   8.287   4.303   4.131 -0.3406 -0.7667 -0.5761
    3MOL   H335 1699   0.167   4.415   4.004 -0.4737 -0.3082  0.4171
    3MOL   H336 1700   0.115   4.673   3.570 -0.0554  0.7376 -0.3549
    3MOL   H337 1701   0.035   4.923   3.544 -0.1827  3.0743  2.2165
    3MOL   H338 1702   0.058   4.961   3.966  2.8224  3.1424 -1.2985
    3MOL   H339 1703   0.126   4.734   3.988 -0.1012  1.8157  0.1576
    3MOL   H340 1704   8.211   4.547   3.702 -2.3017 -0.9172 -0.5765
    3MOL   H341 1705   8.036   4.394   3.791 -0.5231  0.0314  1.1138
    3MOL   C342 1706   7.980   5.096   3.615  0.1090 -0.2779  0.2410
    3MOL   C343 1707   8.124   5.090   3.623 -0.5477 -1.0904  0.4902
    3MOL   C344 1708   8.189   5.103   3.747 -0.4811 -0.3816 -1.1340
    3MOL   O345 1709   0.015   5.094   3.736 -0.0753 -0.2809 -0.6870
    3MOL   C346 1710   8.117   5.142   3.859  0.4814 -0.0727 -0.6762
    3MOL   C347 1711   7.979   5.139   3.858  0.0418 -0.0901  0.5808
    3MOL   C348 1712   7.911   5.114   3.735 -0.1678 -0.0256  0.7686
    3MOL   C349 1713   7.767   5.106   3.734  0.2671 -0.2715  0.3869
    3MOL   O350 1714   7.716   5.046   3.641  0.2073  0.3284  0.2943
    3MOL   C351 1715   7.684   5.173   3.843 -0.4172 -0.4391 -0.3014
    3MOL   C352 1716   7.573   5.093   3.878  0.2361  0.3993 -0.1481
    3MOL   C353 1717   7.475   5.147   3.969 -0.6487 -0.5272  0.8059
    3MOL   C354 1718   7.488   5.278   4.016  0.8517  0.2270 -0.7370
    3MOL   O355 1719   7.379   5.337   4.086 -0.1766 -0.3527  0.6632
    3MOL   C356 1720   7.288   5.259   4.153 -0.3962  0.2883  0.2273
    3MOL   C357 1721   7.156   5.273   4.115  0.2020  0.1182  0.3731
    3MOL   C358 1722   7.061   5.192   4.182 -0.5477 -0.6370  0.2455
    3MOL   C359 1723   7.097   5.100   4.282 -0.3771 -0.1369  0.2354
    3MOL   C360 1724   7.233   5.086   4.321 -0.1981 -0.4755  0.4166
    3MOL   C361 1725   7.323   5.157   4.241  0.5423  1.1541 -0.5994
    3MOL   C362 1726   7.605   5.360   3.981 -0.5506 -0.5877  0.2216
    3MOL   C363 1727   7.703   5.303   3.902  0.1004  0.2442  0.3533
    3MOL   H364 1728   7.939   5.090   3.516 -1.0883  1.7627  0.5821
    3MOL   H365 1729   8.179   5.090   3.530  0.6355  1.3839  1.1527
    3MOL   H366 1730   8.167   5.144   3.955 -1.3315  0.2166  0.2863
    3MOL   H367 1731   7.920   5.157   3.947  1.1171  0.9557  1.0900
    3MOL   H368 1732   7.554   4.995   3.835  1.7051 -1.2231  2.7084
    3MOL   H369 1733   7.390   5.088   3.999 -0.2736 -0.7819  1.3653
    3MOL   H370 1734   7.134   5.334   4.029  0.1568 -0.4667 -0.0308
    3MOL   H371 1735   6.962   5.211   4.144  0.2932 -0.2681 -1.8720
    3MOL   H372 1736   7.261   5.017   4.400 -0.6638  0.4258  1.3765
    3MOL   H373 1737   7.428   5.150   4.266 -0.1873 -2.5646  1.7939
    3MOL   H374 1738   7.613   5.461   4.019  0.0264 -0.1951 -0.9138
    3MOL   H375 1739   7.794   5.358   3.881  1.2131 -2.6037 -2.6540
    3MOL   C376 1740   6.839   5.265   4.574 -0.6117 -0.3609 -0.1424
    3MOL   C377 1741   6.939   5.175   4.521  1.3593 -0.2177 -0.4893
    3MOL   C378 1742   6.903   5.084   4.415 -0.4885 -0.2489  0.8293
    3MOL   O379 1743   7.003   5.020   4.343  0.5745 -0.2630  0.0446
    3MOL   C380 1744   6.768   5.074   4.372  1.1652  0.4887 -0.6134
    3MOL   C381 1745   6.671   5.161   4.425 -0.2384  0.0990  0.3036
    3MOL   C382 1746   6.706   5.262   4.517  0.2275 -0.0464  0.0420
    3MOL   C383 1747   6.594   5.354   4.555  0.3642 -0.2722 -0.4288
    3MOL   O384 1748   6.484   5.321   4.591 -0.0543 -0.8453  0.1589
    3MOL   C385 1749   6.623   5.496   4.544 -0.0925 -0.2979  0.0926
    3MOL   C386 1750   6.662   5.575   4.656 -0.0481 -1.0327 -0.0132
    3MOL   C387 1751   6.686   5.711   4.643 -0.4966  0.6228 -0.1211
    3MOL   C388 1752   6.685   5.774   4.517  0.2125  0.1502  0.2250
    3MOL   O389 1753   6.701   5.911   4.493  0.2539 -0.0379  0.3577
    3MOL   C390 1754   6.621   5.994   4.565  0.5656 -0.0231  0.2530
    3MOL   C391 1755   6.677   6.120   4.614  0.0437  0.4425  0.4329
    3MOL   C392 1756   6.586   6.222   4.661  0.6162 -0.1323 -0.6603
    3MOL   C393 1757   6.452   6.194   4.690 -0.0924 -0.4278 -0.1465
    3MOL   C394 1758   6.409   6.068   4.655 -0.0026  0.3731  0.3673
    3MOL   C395 1759   6.485   5.963   4.592 -0.4095 -0.1469 -0.2348
    3MOL   C396 1760   6.638   5.698   4.408  0.2726  0.2572  0.1919
    3MOL   C397 1761   6.612   5.558   4.417 -0.3413  0.0904  0.0445
    3MOL   H398 1762   6.864   5.334   4.654  0.0904 -1.5932  0.7245
    3MOL   H399 1763   7.038   5.201   4.554 -0.0178  3.3816  1.0948
    3MOL   H400 1764   6.745   4.999   4.298  3.0681  0.7504 -1.5087
    3MOL   H401 1765   6.577   5.173   4.374  0.2903  1.8749 -0.2850
    3MOL   H402 1766   6.675   5.536   4.756  1.2956  1.2151  0.7121
    3MOL   H403 1767   6.710   5.769   4.731 -2.1435  0.8242  0.2253
    3MOL   H404 1768   6.782   6.138   4.594  0.0346  0.7786  0.6919
    3MOL   H405 1769   6.628   6.319   4.679 -0.3915  0.5082 -1.6869
    3MOL   H406 1770   6.308   6.045   4.686  0.6239 -1.7608  0.9107
    3MOL   H407 1771   6.437   5.875   4.551  5.3871 -4.6182  1.7173
    3MOL   H408 1772   6.632   5.750   4.314 -0.1406  1.9813  1.1614
    3MOL   H409 1773   6.581   5.501   4.330  4.3373 -0.6482 -1.2912
    3MOL   C410 1774   6.272   6.557   4.532 -0.8264 -0.3047  0.1298
    3MOL   C411 1775   6.320   6.434   4.576  1.1043 -0.1050  0.1622
    3MOL   C412 1776   6.343   6.412   4.715 -0.9450  0.5810  0.5284
    3MOL   O413 1777   6.372   6.282   4.756 -0.2381  0.1483 -0.2905
    3MOL   C414 1778   6.337   6.517   4.812  0.2764  0.1807 -0.6608
    3MOL   C415 1779   6.293   6.641   4.767  0.5484 -0.2766  0.6795
    3MOL   C416 1780   6.256   6.663   4.628  0.2815 -0.0105 -0.7463
    3MOL   C417 1781   6.196   6.795   4.589 -0.3110  0.2676  0.2225
    3MOL   O418 1782   6.268   6.900   4.578 -0.0679  0.5619  0.5128
    3MOL   C419 1783   6.047   6.799   4.562  0.2477 -0.7969 -0.2043
    3MOL   C420 1784   5.960   6.691   4.610 -0.4907  0.5281 -0.6559
    3MOL   C421 1785   5.827   6.700   4.589  0.7403  0.2027 -0.2446
    3MOL   C422 1786   5.774   6.818   4.535 -0.2774  0.6505 -0.6175
    3MOL   O423 1787   5.634   6.842   4.522  0.1279  0.1128 -0.2290
    3MOL   C424 1788   5.541   6.745   4.555 -0.2698  0.1133  0.0383
    3MOL   C425 1789   5.507   6.640   4.464  1.0359 -0.3331  0.3173
    3MOL   C426 1790   5.419   6.539   4.509 -0.1302 -0.4272 -0.4850
    3MOL   C427 1791   5.356   6.554   4.641 -0.0705 -1.6950 -0.1769
    3MOL   C428 1792   5.381   6.669   4.714  0.9312  0.6646 -0.2124
    3MOL   C429 1793   5.470   6.763   4.676  0.0857 -0.2241  0.6360
    3MOL   C430 1794   5.849   6.924   4.494  0.4998  0.0093 -0.1307
    3MOL   C431 1795   5.987   6.914   4.503 -0.1060  1.0966 -0.5187
    3MOL   H432 1796   6.251   6.568   4.427  0.7964  2.7382  0.0505
    3MOL   H433 1797   6.333   6.354   4.504 -0.1947 -0.0735 -0.1172
    3MOL   H434 1798   6.355   6.486   4.914  1.1047  0.3798 -0.7402
    3MOL   H435 1799   6.293   6.726   4.834  0.3816  1.2909 -1.2680
    3MOL   H436 1800   5.994   6.604   4.664  0.2595  0.4059 -1.3164
    3MOL   H437 1801   5.766   6.617   4.622  1.2611 -0.1360 -0.1275
    3MOL   H438 1802   5.547   6.639   4.364 -0.5241  0.7903 -0.3335
    3MOL   H439 1803   5.389   6.457   4.445  1.3914 -1.0192 -0.4540
    3MOL   H440 1804   5.335   6.681   4.812  2.4204 -0.1660  0.5964
    3MOL   H441 1805   5.493   6.857   4.725  3.0064 -1.1011  1.0244
    3MOL   H442 1806   5.807   7.013   4.452 -1.1411 -1.8325 -2.4948
    3MOL   H443 1807   6.047   6.998   4.473  0.1914  1.2820  0.5636
    3MOL   C444 1808   5.248   6.200   4.940  0.0599  0.7261 -0.0280
    3MOL   C445 1809   5.216   6.312   4.861 -0.1014  0.4076  0.4991
    3MOL   C446 1810   5.302   6.358   4.756  0.9333 -0.0116  0.6835
    3MOL   O447 1811   5.260   6.460   4.674 -0.7192 -0.1304 -0.0303
    3MOL   C448 1812   5.427   6.290   4.740  0.5394  0.0333  0.0622
    3MOL   C449 1813   5.459   6.177   4.815  0.8274  0.2258  0.1177
    3MOL   C450 1814   5.369   6.129   4.915  0.3964 -0.1113  0.1635
    3MOL   C451 1815   5.392   6.000   4.982  0.2804  0.1359 -0.1381
    3MOL   O452 1816   5.314   5.963   5.064 -0.4152 -0.1871  0.2069
    3MOL   C453 1817   5.523   5.929   4.970  0.7750 -0.3295 -0.1648
    3MOL   C454 1818   5.645   5.994   4.996 -0.9288 -0.0329 -0.4489
    3MOL   C455 1819   5.766   5.934   4.974  0.5167  0.7716  0.7018
    3MOL   C456 1820   5.772   5.802   4.923 -0.4043 -0.7788  0.1367
    3MOL   O457 1821   5.887   5.725   4.913 -0.3746 -0.1706 -0.0648
    3MOL   C458 1822   5.965   5.745   4.799  0.7980  0.9524 -0.0544
    3MOL   C459 1823   6.104   5.747   4.813  0.4496  1.0154 -0.1062
    3MOL   C460 1824   6.188   5.759   4.702  0.6783  0.1235 -0.1042
    3MOL   C461 1825   6.137   5.761   4.572  0.8500 -0.2738  0.5255
    3MOL   C462 1826   5.999   5.746   4.556  0.9443  0.2915  0.0940
    3MOL   C463 1827   5.914   5.743   4.670  0.3420 -0.2587  0.2011
    3MOL   C464 1828   5.656   5.735   4.898 -0.1646 -0.1501  0.5115
    3MOL   C465 1829   5.526   5.791   4.922 -0.1754 -0.1830 -0.4447
    3MOL   H466 1830   5.175   6.176   5.016 -2.0064 -1.6750 -2.6300
    3MOL   H467 1831   5.117   6.353   4.868 -0.0735  1.1452 -2.8352
    3MOL   H468 1832   5.475   6.314   4.646 -0.6241 -0.5201 -0.6865
    3MOL   H469 1833   5.547   6.125   4.781  0.2519 -0.3121 -0.5749
    3MOL   H470 1834   5.647   6.097   5.027  0.0558  0.2950 -1.5892
    3MOL   H471 1835   5.858   5.986   4.996  2.7286 -2.3998 -0.7323
    3MOL   H472 1836   6.148   5.746   4.911 -1.5198  0.1556  0.7994
    3MOL   H473 1837   6.292   5.770   4.731  1.1525  0.0341 -1.7535
    3MOL   H474 1838   5.951   5.764   4.462 -1.0126  0.2906  1.0689
    3MOL   H475 1839   5.807   5.735   4.659  0.3224 -2.2718  1.5783
    3MOL   H476 1840   5.660   5.628   4.885 -0.2609 -0.1988  0.8654
    3MOL   H477 1841   5.441   5.725   4.906  0.4663 -0.8536 -1.1272
    3MOL   C478 1842   6.292   5.436   4.342 -0.0280  0.3424 -0.2421
    3MOL   C479 1843   6.292   5.549   4.430 -0.4025 -0.6498 -0.1455
    3MOL   C480 1844   6.230   5.667   4.381  0.6783 -0.3664 -0.5380
    3MOL   O481 1845   6.224   5.773   4.467  0.0804 -0.5223 -0.0913
    3MOL   C482 1846   6.160   5.671   4.255  0.6294  1.2482 -0.1208
    3MOL   C483 1847   6.152   5.553   4.181  0.0409  0.6261 -0.1817
    3MOL   C484 1848   6.220   5.436   4.215 -0.6684 -0.0571  0.0800
    3MOL   C485 1849   6.228   5.317   4.114 -0.3533  0.2456  0.2612
    3MOL   O486 1850   6.131   5.286   4.053 -0.1750  0.5895 -0.0686
    3MOL   C487 1851   6.353   5.228   4.108 -0.6388 -0.2938  0.2248
    3MOL   C488 1852   6.350   5.088   4.103  0.5004  0.3789 -0.2377
    3MOL   C489 1853   6.465   5.012   4.078 -0.0350 -0.4489  0.0206
    3MOL   C490 1854   6.590   5.080   4.064  0.3253  0.0921  0.0199
    3MOL   O491 1855   6.710   5.018   4.031  0.5810 -0.4067  0.6795
    3MOL   C492 1856   6.725   4.992   3.898  0.4330 -0.8259 -0.3228
    3MOL   C493 1857   6.650   4.891   3.837  0.1194  0.5230  0.6943
    3MOL   C494 1858   6.652   4.869   3.697 -0.7298  0.0298  0.4005
    3MOL   C495 1859   6.747   4.951   3.624 -0.3046 -0.3947  0.2613
    3MOL   C496 1860   6.829   5.050   3.684  0.1809  0.1526  0.3469
    3MOL   C497 1861   6.813   5.073   3.820  0.2556  0.5211  0.6579
    3MOL   C498 1862   6.596   5.222   4.076  0.5030  0.7102 -0.3618
    3MOL   C499 1863   6.479   5.294   4.090  0.4337  0.9999 -0.1193
    3MOL   H500 1864   6.349   5.354   4.382  0.3818  1.2778  1.1568
    3MOL   H501 1865   6.327   5.553   4.532  0.2392  1.2588 -0.4376
    3MOL   H502 1866   6.109   5.758   4.216 -0.2434  1.8791  2.3123
    3MOL   H503 1867   6.107   5.557   4.083 -0.3699 -2.9163 -0.2086
    3MOL   H504 1868   6.259   5.030   4.102  0.7072 -0.0783  2.9033
    3MOL   H505 1869   6.467   4.904   4.071  1.9850 -0.4889  0.8202
    3MOL   H506 1870   6.577   4.833   3.891 -0.3771 -2.0101 -2.5828
    3MOL   H507 1871   6.595   4.786   3.659  4.2387 -2.6338 -1.7814
    3MOL   H508 1872   6.897   5.103   3.620 -0.8106 -0.0854 -0.9341
    3MOL   H509 1873   6.877   5.146   3.867 -0.6158  2.3101 -0.8368
    3MOL   H510 1874   6.690   5.277   4.072  0.5790  0.8741  2.7617
    3MOL   H511 1875   6.486   5.402   4.093 -0.6454  1.0851 -0.4640
    3MOL   C512 1876   6.530   4.881   3.205 -0.2070  0.1651 -0.1531
    3MOL   C513 1877   6.637   4.864   3.294 -0.0374  0.5285  0.0391
    3MOL   C514 1878   6.662   4.955   3.405  0.8228  0.4894  0.2295
    3MOL   O515 1879   6.767   4.935   3.493  0.0131  0.0198  0.5228
    3MOL   C516 1880   6.573   5.065   3.415  0.0524 -0.2231  0.0181
    3MOL   C517 1881   6.463   5.076   3.328 -0.8544 -0.2865 -0.2781
    3MOL   C518 1882   6.439   4.984   3.227  0.0451  0.2798  0.9126
    3MOL   C519 1883   6.320   5.003   3.139 -0.2289  0.5294 -1.5137
    3MOL   O520 1884   6.221   5.072   3.179  0.2901 -0.3126  0.3225
    3MOL   C521 1885   6.326   4.955   3.000 -0.7217 -0.0391 -0.0766
    3MOL   C522 1886   6.339   5.039   2.891 -0.0432  0.2877  0.1585
    3MOL   C523 1887   6.338   5.002   2.759 -0.5306 -0.0491 -0.1089
    3MOL   C524 1888   6.346   4.863   2.732 -0.6564  0.1024 -0.6905
    3MOL   O525 1889   6.361   4.825   2.601 -0.5682  0.4247  0.0448
    3MOL   C526 1890   6.479   4.864   2.536  0.0339  0.0680 -0.1907
    3MOL   C527 1891   6.601   4.885   2.606  0.5657  0.2410  0.5415
    3MOL   C528 1892   6.720   4.918   2.536  0.4566  0.2642  1.0891
    3MOL   C529 1893   6.713   4.936   2.396 -1.0015 -0.5348 -1.2934
    3MOL   C530 1894   6.587   4.936   2.338 -0.4452 -0.3690  0.1168
    3MOL   C531 1895   6.475   4.897   2.406  0.0924  0.3312  0.1088
    3MOL   C532 1896   6.328   4.769   2.837 -1.2464  0.5047  0.9913
    3MOL   C533 1897   6.322   4.816   2.972 -0.0146 -0.0226 -0.1414
    3MOL   H534 1898   6.515   4.807   3.127 -0.7244  0.1194 -0.0161
    3MOL   H535 1899   6.703   4.782   3.269  0.7530  1.0887  0.2575
    3MOL   H536 1900   6.587   5.141   3.490 -0.8537  0.9637 -0.9879
    3MOL   H537 1901   6.397   5.161   3.334 -1.3842 -0.8013  1.6030
    3MOL   H538 1902   6.347   5.146   2.897 -0.5880  0.4146 -1.4485
    3MOL   H539 1903   6.349   5.072   2.677  2.6211  1.6113  1.6731
    3MOL   H540 1904   6.616   4.854   2.708  0.2510 -0.9144  0.2459
    3MOL   H541 1905   6.813   4.908   2.590  0.6921  0.7286  0.7811
    3MOL   H542 1906   6.577   4.963   2.234  2.4144  0.2823 -0.0360
    3MOL   H543 1907   6.385   4.881   2.347  0.7594 -0.4067 -0.7202
    3MOL   H544 1908   6.320   4.663   2.817 -0.5958  0.9531 -1.9109
    3MOL   H545 1909   6.297   4.744   3.048  0.9460 -0.6195 -0.3966
    3MOL   C546 1910   7.075   4.687   2.284  0.6320  0.5423  0.2505
    3MOL   C547 1911   7.011   4.796   2.345 -0.0082 -0.3767  0.5121
    3MOL   C548 1912   6.899   4.848   2.281  0.3910 -0.1914  0.1049
    3MOL   O549 1913   6.829   4.960   2.327  0.1108  0.6588  0.0634
    3MOL   C550 1914   6.841   4.776   2.167  0.9652  0.1730 -0.1280
    3MOL   C551 1915   6.905   4.658   2.119  0.2266 -0.3508  0.2043
    3MOL   C552 1916   7.027   4.617   2.175  0.8291 -0.7064  1.2893
    3MOL   C553 1917   7.092   4.490   2.139 -0.2086  0.2812  0.0181
    3MOL   O554 1918   7.209   4.486   2.105  0.0157  0.2578 -0.2444
    3MOL   C555 1919   6.999   4.368   2.131  0.5472  0.0879  0.5946
    3MOL   C556 1920   6.897   4.362   2.231  0.0267 -0.2679 -0.4895
    3MOL   C557 1921   6.804   4.261   2.223  0.8653 -0.4866 -0.5811
    3MOL   C558 1922   6.821   4.158   2.125 -0.2750  0.4849  0.2859
    3MOL   O559 1923   6.730   4.059   2.114 -0.5200  0.8780 -0.1251
    3MOL   C560 1924   6.638   4.039   2.213  0.7251  0.3569  0.1034
    3MOL   C561 1925   6.669   3.965   2.327  0.2331 -0.1626 -0.2843
    3MOL   C562 1926   6.570   3.949   2.428  0.0334  0.1177 -0.7321
    3MOL   C563 1927   6.451   4.017   2.429  0.0895  0.8356 -0.4054
    3MOL   C564 1928   6.424   4.103   2.318 -0.0208  0.0806  0.0616
    3MOL   C565 1929   6.520   4.109   2.212 -0.6780  0.5525 -0.5332
    3MOL   C566 1930   6.924   4.160   2.030 -0.2636 -0.0430  0.2460
    3MOL   C567 1931   7.019   4.266   2.042  0.5578 -1.3135 -0.8646
    3MOL   H568 1932   7.167   4.650   2.327  0.9955  0.1378 -0.8559
    3MOL   H569 1933   7.046   4.847   2.433  0.1424 -0.4945  0.5214
    3MOL   H570 1934   6.750   4.807   2.119  1.0428  1.2086  0.3783
    3MOL   H571 1935   6.849   4.599   2.048 -0.3457  1.2982 -0.7202
    3MOL   H572 1936   6.898   4.439   2.307 -0.4188 -0.4822 -0.2601
    3MOL   H573 1937   6.728   4.258   2.300  2.1647 -1.2837  0.6905
    3MOL   H574 1938   6.757   3.904   2.341  0.2911 -0.6431 -2.5926
    3MOL   H575 1939   6.595   3.887   2.512 -1.1288  0.0790 -0.4159
    3MOL   H576 1940   6.330   4.153   2.303  1.4877  2.8818 -0.3432
    3MOL   H577 1941   6.498   4.151   2.115 -1.5572 -0.1412 -0.6425
    3MOL   H578 1942   6.941   4.081   1.958 -0.2578 -0.0866  0.2941
    3MOL   H579 1943   7.106   4.270   1.978  1.4787 -1.4145  0.3608
    3MOL   C580 1944   6.024   4.143   2.540  0.6917  0.9528 -0.7007
    3MOL   C581 1945   6.164   4.121   2.564  0.4995  0.3041  0.4527
    3MOL   C582 1946   6.233   4.019   2.503 -0.8943  0.3155  0.1162
    3MOL   O583 1947   6.361   3.987   2.535 -0.1623 -0.4254 -0.2989
    3MOL   C584 1948   6.165   3.931   2.417  0.9036 -0.5449  0.3230
    3MOL   C585 1949   6.024   3.951   2.385  0.0480  0.2899 -0.1440
    3MOL   C586 1950   5.953   4.056   2.458 -0.1427 -0.4926 -0.9124
    3MOL   C587 1951   5.810   4.073   2.430  0.1431 -0.4665  0.3515
    3MOL   O588 1952   5.748   4.177   2.473 -0.1268  0.2351  0.3715
    3MOL   C589 1953   5.735   3.987   2.331 -0.1887 -0.6730 -0.4478
    3MOL   C590 1954   5.700   3.855   2.361  0.6926  0.0914  0.6286
    3MOL   C591 1955   5.646   3.778   2.259  0.9173 -0.1974  0.8879
    3MOL   C592 1956   5.623   3.833   2.132 -0.1068  0.7510  0.5516
    3MOL   O593 1957   5.567   3.748   2.037  0.2901 -0.6740  0.4687
    3MOL   C594 1958   5.564   3.783   1.907 -0.5969 -0.0101  0.4467
    3MOL   C595 1959   5.658   3.737   1.810  0.0413 -0.4292  0.1949
    3MOL   C596 1960   5.637   3.770   1.674  0.1382 -0.0214  0.5369
    3MOL   C597 1961   5.526   3.842   1.634  0.3393 -0.3707  0.8163
    3MOL   C598 1962   5.432   3.891   1.727 -0.0309  0.1015 -0.0764
    3MOL   C599 1963   5.453   3.857   1.860  0.5747  0.2633 -0.0644
    3MOL   C600 1964   5.648   3.964   2.101 -0.0501  0.4032 -0.1849
    3MOL   C601 1965   5.701   4.045   2.205  0.1452 -0.5064  0.2837
    3MOL   H602 1966   5.972   4.228   2.580  0.6182 -0.3797  2.1788
    3MOL   H603 1967   6.213   4.183   2.638  5.1055  0.1303 -2.2890
    3MOL   H604 1968   6.201   3.835   2.382  0.2318 -0.2470 -1.2634
    3MOL   H605 1969   5.979   3.885   2.312  1.2351 -0.7755  0.0592
    3MOL   H606 1970   5.721   3.804   2.454 -0.7707 -1.6794  0.0122
    3MOL   H607 1971   5.640   3.671   2.269 -1.1433 -0.2037 -0.2203
    3MOL   H608 1972   5.732   3.662   1.833  0.3626 -0.1026  0.2327
    3MOL   H609 1973   5.702   3.731   1.596 -1.0111  0.0586 -0.4865
    3MOL   H610 1974   5.357   3.960   1.693  0.6946  1.3345  0.7992
    3MOL   H611 1975   5.382   3.891   1.934 -0.4386  1.4198 -1.5298
    3MOL   H612 1976   5.633   4.005   2.002 -1.6723  1.1091  0.3446
    3MOL   H613 1977   5.731   4.144   2.176  0.4921 -0.5236  0.5896
    3MOL   C614 1978   5.184   3.908   1.360 -0.9592 -0.3015  0.8658
    3MOL   C615 1979   5.311   3.944   1.402  0.2899  0.6694 -0.9794
    3MOL   C616 1980   5.395   3.840   1.442 -0.0953 -0.7034 -0.4702
    3MOL   O617 1981   5.509   3.878   1.500  0.4821 -0.3498  0.1933
    3MOL   C618 1982   5.356   3.702   1.428 -0.1512 -0.0870  0.0207
    3MOL   C619 1983   5.230   3.672   1.374  0.4072 -0.6119 -0.2696
    3MOL   C620 1984   5.138   3.774   1.345  0.1564 -0.2028 -0.1896
    3MOL   C621 1985   5.005   3.740   1.288  0.3699  0.3407 -0.5674
    3MOL   O622 1986   4.942   3.640   1.323 -0.2835 -0.0301 -0.1264
    3MOL   C623 1987   4.938   3.844   1.197  0.3639  0.5488 -0.0877
    3MOL   C624 1988   5.007   3.918   1.096 -0.4360  0.1283 -0.1827
    3MOL   C625 1989   4.942   3.999   1.007  0.8360  0.1796  0.2569
    3MOL   C626 1990   4.802   4.003   1.006  0.1028 -0.3093 -0.1781
    3MOL   O627 1991   4.744   4.098   0.922 -0.0716 -0.0036 -0.9686
    3MOL   C628 1992   4.645   4.181   0.971  0.3377 -0.0129 -0.0721
    3MOL   C629 1993   4.669   4.280   1.066 -0.1554 -0.4375  0.3032
    3MOL   C630 1994   4.571   4.371   1.111  0.0408  0.1408 -1.0401
    3MOL   C631 1995   4.443   4.369   1.046 -0.0032 -0.3642 -0.2406
    3MOL   C632 1996   4.419   4.266   0.946 -0.2799  0.3398 -0.0047
    3MOL   C633 1997   4.519   4.177   0.909  0.1776 -0.2086 -0.5061
    3MOL   C634 1998   4.726   3.934   1.104  0.5161  0.2802  0.3123
    3MOL   C635 1999   4.793   3.849   1.196  0.0615  0.2048  0.1691
    3MOL   H636 2000   5.114   3.987   1.335  0.6302  0.5275 -1.0680
    3MOL   H637 2001   5.339   4.048   1.412  1.1427  0.4278 -0.7805
    3MOL   H638 2002   5.430   3.629   1.457  0.1995  0.6864  1.1151
    3MOL   H639 2003   5.206   3.571   1.345  0.9477 -0.4354 -1.3673
    3MOL   H640 2004   5.113   3.905   1.080 -0.9363 -1.0729 -2.6555
    3MOL   H641 2005   4.993   4.060   0.933  0.2683 -0.0873 -0.3620
    3MOL   H642 2006   4.764   4.290   1.115  1.7010 -0.4166 -3.1728
    3MOL   H643 2007   4.587   4.442   1.190  0.3906  2.0135 -2.7323
    3MOL   H644 2008   4.324   4.265   0.893 -0.9746  1.6435  1.1683
    3MOL   H645 2009   4.509   4.107   0.828  3.4967 -0.8582 -0.4389
    3MOL   H646 2010   4.619   3.943   1.112  0.4642  0.4287 -0.5162
    3MOL   H647 2011   4.732   3.782   1.255 -0.4945 -0.6990 -1.4133
    3MOL   C648 2012   4.155   4.734   0.967  0.1639 -0.1478 -0.3650
    3MOL   C649 2013   4.187   4.606   1.020 -0.0598 -1.1755  0.1450
    3MOL   C650 2014   4.322   4.565   1.027  0.1264 -0.1648 -0.5921
    3MOL   O651 2015   4.346   4.446   1.097 -0.1062 -0.0124  0.2697
    3MOL   C652 2016   4.427   4.649   0.983 -0.1686 -0.2072  0.5822
    3MOL   C653 2017   4.390   4.780   0.932 -0.4648  0.3549 -0.0049
    3MOL   C654 2018   4.259   4.824   0.931  0.3545 -0.5295 -0.2135
    3MOL   C655 2019   4.230   4.959   0.881 -0.6244 -0.9698  0.1268
    3MOL   O656 2020   4.123   4.980   0.828  0.2450  0.0009  0.6403
    3MOL   C657 2021   4.321   5.073   0.907  0.4002 -0.2595 -0.1364
    3MOL   C658 2022   4.380   5.072   1.033 -0.2736 -0.4292  0.0975
    3MOL   C659 2023   4.463   5.179   1.060  0.0708  0.4451  0.4058
    3MOL   C660 2024   4.485   5.281   0.966  0.4725 -0.0571  0.1847
    3MOL   O661 2025   4.544   5.401   1.007  0.2783  0.3931  0.3640
    3MOL   C662 2026   4.614   5.466   0.912 -0.7913 -0.0836  0.4918
    3MOL   C663 2027   4.564   5.584   0.843  0.0476  0.9933  0.1872
    3MOL   C664 2028   4.646   5.653   0.752 -0.5925 -0.3408  0.0562
    3MOL   C665 2029   4.783   5.625   0.745 -0.3267 -0.0940  0.5993
    3MOL   C666 2030   4.832   5.509   0.804  0.0256  0.0614 -0.3682
    3MOL   C667 2031   4.747   5.429   0.887  0.9186  0.2325 -0.0486
    3MOL   C668 2032   4.428   5.271   0.840  0.3687 -0.7907 -0.1214
    3MOL   C669 2033   4.343   5.166   0.809 -0.5711 -0.5193 -0.0366
    3MOL   H670 2034   4.052   4.766   0.958  0.0668 -0.1864  0.5874
    3MOL   H671 2035   4.109   4.543   1.060 -1.8655  0.7795 -0.2128
    3MOL   H672 2036   4.530   4.627   1.008 -0.1545  0.3568  1.0388
    3MOL   H673 2037   4.468   4.847   0.899  0.1640 -1.1257 -1.5867
    3MOL   H674 2038   4.362   4.993   1.105 -1.9348  0.3578  0.5882
    3MOL   H675 2039   4.507   5.187   1.158  1.0490 -0.6720  0.0685
    3MOL   H676 2040   4.461   5.617   0.842 -0.0835  0.6737  2.2532
    3MOL   H677 2041   4.607   5.743   0.707  0.6001  0.2028  0.0877
    3MOL   H678 2042   4.939   5.490   0.797  0.2185  0.2934  1.6492
    3MOL   H679 2043   4.791   5.347   0.941 -0.9602  0.5883  2.1207
    3MOL   H680 2044   4.429   5.359   0.777 -3.1840 -0.1359  0.6221
    3MOL   H681 2045   4.283   5.165   0.720  0.2437 -0.5054 -0.5916
    3MOL   H682 2046   4.840   5.691   0.681 -1.6220 -0.7256 -1.2664
    4MOL     C1 2047   2.159   2.674   2.966 -0.0484 -0.3811  0.1977
    4MOL     C2 2048   2.086   2.701   2.847 -0.7157  0.3893 -0.6218
    4MOL     C3 2049   1.947   2.672   2.840  0.6836 -0.2099  0.1535
    4MOL     O4 2050   1.882   2.682   2.723  0.2652 -0.0172  0.0358
    4MOL     C5 2051   1.893   2.606   2.954  0.1738  0.2462  0.1851
    4MOL     C6 2052   1.958   2.594   3.076 -0.2555  0.1384  0.4200
    4MOL     C7 2053   2.093   2.633   3.079  0.1325  0.1714 -0.6612
    4MOL     C8 2054   2.162   2.630   3.207  0.2034  1.0250  0.6088
    4MOL     O9 2055   2.116   2.674   3.311  0.1060  0.3509  0.6866
    4MOL    C10 2056   2.293   2.565   3.205  0.2584 -0.3463  0.4274
    4MOL    C11 2057   2.312   2.441   3.141 -0.1102 -0.2095  0.3918
    4MOL    C12 2058   2.447   2.385   3.148  0.2762  0.3566 -1.0150
    4MOL    C13 2059   2.551   2.442   3.210 -0.3568  0.6067  0.1820
    4MOL    O14 2060   2.671   2.376   3.219  0.2100 -0.0684 -0.1380
    4MOL    C15 2061   2.783   2.433   3.277 -0.1195  0.3954  0.1931
    4MOL    C16 2062   2.807   2.412   3.415 -0.0956  0.3333  0.2617
    4MOL    C17 2063   2.908   2.485   3.478 -0.0432  0.0633 -0.2142
    4MOL    C18 2064   2.992   2.575   3.404  0.0332  0.0316 -0.1134
    4MOL    C19 2065   2.978   2.588   3.264  0.4392 -0.0059  0.1130
    4MOL    C20 2066   2.868   2.517   3.201  0.5320 -0.4137 -0.7345
    4MOL    C21 2067   2.530   2.568   3.268 -0.4583 -0.0040  0.5347
    4MOL    C22 2068   2.401   2.624   3.277 -0.0803  0.4702 -0.2612
    4MOL    H23 2069   2.260   2.710   2.974 -0.6040  1.7511 -1.7828
    4MOL    H24 2070   2.128   2.728   2.752  2.8263 -3.2717 -0.2194
    4MOL    H25 2071   1.793   2.564   2.954  1.4730 -2.9277  0.1210
    4MOL    H26 2072   1.896   2.558   3.156 -0.8936 -2.7030 -1.2843
    4MOL    H27 2073   2.236   2.386   3.086  0.1091  1.6790 -1.8543
    4MOL    H28 2074   2.452   2.286   3.104  2.4890  0.7911 -1.8363
    4MOL    H29 2075   2.746   2.349   3.477 -0.7927 -0.2783 -1.0255
    4MOL    H30 2076   2.923   2.461   3.582  0.4625 -0.1735 -0.3384
    4MOL    H31 2077   3.034   2.665   3.214 -0.9381  0.9273 -0.0482
    4MOL    H32 2078   2.853   2.550   3.099 -0.6733 -0.1515 -0.4849
    4MOL    H33 2079   2.604   2.614   3.332  1.5866 -2.0207 -0.3405
    4MOL    H34 2080   2.383   2.710   3.339 -0.9723  1.9246 -2.4738
    4MOL    H35 2081   1.794   2.650   2.737 -1.1801  1.7753 -4.1937
    4MOL    C36 2082   3.023   2.827   3.797  0.4656 -0.2810 -0.0924
    4MOL    C37 2083   3.025   2.796   3.656 -0.5993 -0.5318 -0.1794
    4MOL    C38 2084   3.082   2.671   3.606 -0.3649  0.0189 -0.0299
    4MOL    O39 2085   3.090   2.641   3.470  0.4300 -0.8175  0.1602
    4MOL    C40 2086   3.127   2.582   3.706 -0.1074  0.0567 -0.4823
    4MOL    C41 2087   3.123   2.607   3.844 -0.2636 -0.2721  0.1341
    4MOL    C42 2088   3.076   2.732   3.887  0.5119  0.1004  0.3244
    4MOL    C43 2089   3.084   2.767   4.035 -0.5063 -0.5514 -0.0849
    4MOL    O44 2090   3.112   2.685   4.126 -0.1288 -0.0237 -0.7556
    4MOL    C45 2091   3.041   2.902   4.081  0.1638  0.6625 -0.2123
    4MOL    C46 2092   3.135   3.006   4.073 -0.2398 -0.2372  0.7472
    4MOL    C47 2093   3.099   3.129   4.120  0.3470  0.4366 -0.3214
    4MOL    C48 2094   2.967   3.157   4.166 -0.2012  0.3190  0.1279
    4MOL    O49 2095   2.933   3.282   4.209  0.4788 -0.0529  0.3711
    4MOL    C50 2096   2.983   3.316   4.327 -0.0983  0.4391 -0.5534
    4MOL    C51 2097   3.066   3.426   4.332  0.6863  0.8768  0.0448
    4MOL    C52 2098   3.133   3.467   4.448  0.0490 -0.5741  0.0010
    4MOL    C53 2099   3.101   3.399   4.570  0.8940  0.2243  0.2421
    4MOL    C54 2100   3.016   3.284   4.560  0.2274  0.5376  0.1310
    4MOL    C55 2101   2.944   3.248   4.447 -0.0304  0.2281  0.1287
    4MOL    C56 2102   2.873   3.047   4.173  0.2959  0.7231  0.4269
    4MOL    C57 2103   2.913   2.917   4.133  0.2437 -0.2368 -0.2052
    4MOL    H58 2104   2.973   2.913   3.838  0.3172 -0.5744  0.3397
    4MOL    H59 2105   2.991   2.878   3.594  0.8326 -1.1074 -1.7471
    4MOL    H60 2106   3.182   2.494   3.675  2.8574  1.8706 -0.5937
    4MOL    H61 2107   3.161   2.538   3.918  0.1691 -2.0172 -1.6569
    4MOL    H62 2108   3.236   2.996   4.036  0.4679 -2.1704  3.0693
    4MOL    H63 2109   3.176   3.205   4.131  0.8769 -0.4976  2.9904
    4MOL    H64 2110   3.075   3.480   4.238 -0.0977 -0.2132 -0.6695
    4MOL    H65 2111   3.201   3.551   4.444 -1.9888  1.1914  1.4777
    4MOL    H66 2112   3.001   3.221   4.647  0.3960  0.9711  0.4725
    4MOL    H67 2113   2.877   3.163   4.448 -0.5957  0.6077 -2.4704
    4MOL    H68 2114   2.773   3.057   4.212  0.4082 -2.8843  1.8375
    4MOL    H69 2115   2.856   2.827   4.151 -0.0768  0.3503  1.8120
    4MOL    C70 2116   2.937   3.366   4.974 -0.4803  0.0963  0.4310
    4MOL    C71 2117   2.994   3.426   4.861  0.5012  0.5634  0.8146
    4MOL    C72 2118   3.118   3.385   4.806  0.4869  0.5093 -0.3400
    4MOL    O73 2119   3.156   3.438   4.688  0.1038 -0.6343  0.6168
    4MOL    C74 2120   3.194   3.284   4.867 -0.4587  0.1758 -0.3095
    4MOL    C75 2121   3.139   3.222   4.981 -0.2455  0.2240  0.0324
    4MOL    C76 2122   3.007   3.254   5.031 -0.9604  0.2875  0.1025
    4MOL    C77 2123   2.949   3.176   5.149  0.2556 -0.8037  0.1752
    4MOL    O78 2124   2.862   3.219   5.218  0.4362  0.1722 -0.3997
    4MOL    C79 2125   2.999   3.042   5.171  0.2241 -0.3760  0.1336
    4MOL    C80 2126   3.043   3.005   5.298 -0.2457 -0.4320  0.1312
    4MOL    C81 2127   3.084   2.869   5.312  0.7262 -0.1903  0.5668
    4MOL    C82 2128   3.101   2.781   5.202  0.6735  0.1953 -0.4293
    4MOL    O83 2129   3.150   2.659   5.219 -0.3968 -0.2484  0.1187
    4MOL    C84 2130   3.066   2.555   5.189 -0.3101  0.4746  0.6302
    4MOL    C85 2131   2.932   2.548   5.242 -0.0904 -0.1795 -0.0825
    4MOL    C86 2132   2.845   2.447   5.204  0.1013 -0.5537 -0.2244
    4MOL    C87 2133   2.892   2.340   5.127 -0.0392 -0.2437 -0.4840
    4MOL    C88 2134   3.026   2.341   5.081  0.7774  0.2378 -0.4832
    4MOL    C89 2135   3.113   2.452   5.107 -0.3576 -0.6800 -0.3146
    4MOL    C90 2136   3.066   2.825   5.075  0.5417  0.2189  0.1257
    4MOL    C91 2137   3.008   2.950   5.061  0.0398  0.0967  0.5160
    4MOL    H92 2138   2.834   3.384   5.001 -0.9423 -2.7718  0.7073
    4MOL    H93 2139   2.926   3.492   4.809  0.4637  0.6820  1.0137
    4MOL    H94 2140   3.284   3.243   4.822 -1.0706 -0.1397 -1.2552
    4MOL    H95 2141   3.204   3.151   5.031  1.5643  1.8510  0.0236
    4MOL    H96 2142   3.033   3.067   5.385  1.3843 -1.3849  1.0214
    4MOL    H97 2143   3.106   2.829   5.410 -2.0738  2.5964  2.4357
    4MOL    H98 2144   2.897   2.619   5.316 -1.4512  1.5344 -2.3055
    4MOL    H99 2145   2.745   2.454   5.244  0.4644  0.3030  0.5380
    4MOL   H100 2146   3.070   2.270   5.013 -0.3280  0.3358 -1.3279
    4MOL   H101 2147   3.216   2.462   5.074 -0.1331  1.2465  0.8905
    4MOL   H102 2148   3.085   2.759   4.991  3.1382  0.9337  0.1176
    4MOL   H103 2149   2.981   2.983   4.962 -2.4507  0.4906  1.3101
    4MOL   C104 2150   2.966   1.915   5.167 -0.2179 -0.2057 -0.1897
    4MOL   C105 2151   2.911   2.044   5.179 -1.1846  0.3942 -0.3920
    4MOL   C106 2152   2.863   2.118   5.070 -0.7907 -0.3400 -0.0072
    4MOL   O107 2153   2.808   2.243   5.075  0.2528 -0.0908 -0.3409
    4MOL   C108 2154   2.892   2.063   4.939 -0.0498 -1.0200 -0.7300
    4MOL   C109 2155   2.955   1.934   4.925 -0.4501  0.0737 -0.0233
    4MOL   C110 2156   2.994   1.867   5.037 -0.1737  0.7838  0.0095
    4MOL   C111 2157   3.056   1.736   5.026  0.6734 -0.3386 -0.3284
    4MOL   O112 2158   3.011   1.640   5.084  0.4861 -0.3321 -0.3599
    4MOL   C113 2159   3.171   1.716   4.938 -0.5784 -0.2834  0.4130
    4MOL   C114 2160   3.219   1.589   4.910  0.2203  0.2939  0.1469
    4MOL   C115 2161   3.326   1.566   4.823  0.4750  0.4710  0.6099
    4MOL   C116 2162   3.401   1.680   4.775 -0.9577  0.2386  0.1364
    4MOL   O117 2163   3.523   1.662   4.706  0.4415  0.1850 -0.0179
    4MOL   C118 2164   3.629   1.606   4.768 -0.3696  0.2237 -0.2225
    4MOL   C119 2165   3.719   1.693   4.828 -0.2859  0.6150 -0.3465
    4MOL   C120 2166   3.838   1.634   4.888  0.2433  0.1107 -0.0276
    4MOL   C121 2167   3.861   1.496   4.894  0.5143  1.1537  0.0853
    4MOL   C122 2168   3.769   1.411   4.824  0.2466  0.1956 -0.1818
    4MOL   C123 2169   3.647   1.465   4.772  0.0791 -0.1107 -0.6035
    4MOL   C124 2170   3.352   1.803   4.799  0.8319 -0.7845  0.3211
    4MOL   C125 2171   3.242   1.831   4.886 -1.0722 -0.5447  0.5705
    4MOL   H126 2172   3.003   1.856   5.250  1.1132  0.3186 -0.3912
    4MOL   H127 2173   2.897   2.090   5.276 -1.6048 -0.5147 -0.0207
    4MOL   H128 2174   2.869   2.114   4.847 -2.0183 -2.7920 -1.2608
    4MOL   H129 2175   2.981   1.896   4.828  0.6992 -1.2322  0.7689
    4MOL   H130 2176   3.173   1.501   4.951  0.9680 -1.9254 -3.5681
    4MOL   H131 2177   3.363   1.466   4.809  0.1323  0.6176 -1.5162
    4MOL   H132 2178   3.701   1.799   4.835 -2.3058  0.2611  0.1997
    4MOL   H133 2179   3.907   1.701   4.937  0.8076 -0.2337 -0.3486
    4MOL   H134 2180   3.788   1.305   4.820 -2.4163 -0.3732  1.0291
    4MOL   H135 2181   3.579   1.403   4.715 -0.9204  1.0013 -0.6444
    4MOL   H136 2182   3.407   1.885   4.755  2.0332 -1.6020  0.2714
    4MOL   H137 2183   3.218   1.934   4.909  0.7235 -0.4700  2.1488
    4MOL   C138 2184   4.312   1.336   4.881  0.3790  1.7029 -0.2600
    4MOL   C139 2185   4.196   1.368   4.938  0.2273  0.2744 -1.0117
    4MOL   C140 2186   4.095   1.443   4.880  0.2172  0.3162  0.2329
    4MOL   O141 2187   3.976   1.448   4.951 -0.9330 -0.3426  0.3290
    4MOL   C142 2188   4.129   1.498   4.758  0.1007 -0.2161  0.1497
    4MOL   C143 2189   4.250   1.468   4.692  0.2125  1.0745  0.1268
    4MOL   C144 2190   4.350   1.392   4.758  0.2244  0.7741  0.3254
    4MOL   C145 2191   4.477   1.349   4.689  0.0790 -0.5585 -0.1393
    4MOL   O146 2192   4.518   1.408   4.586  0.2290 -0.0460 -0.3610
    4MOL   C147 2193   4.563   1.246   4.753 -1.6483  0.2090 -0.1764
    4MOL   C148 2194   4.679   1.285   4.828 -0.4209 -0.2581  0.0052
    4MOL   C149 2195   4.751   1.192   4.907  0.1608  0.4082  0.8004
    4MOL   C150 2196   4.715   1.055   4.900 -0.3479 -0.6756 -0.4620
    4MOL   O151 2197   4.792   0.968   4.964 -0.3137 -0.1242  0.1301
    4MOL   C152 2198   4.866   0.877   4.895 -0.3195 -0.8707  0.4575
    4MOL   C153 2199   4.934   0.909   4.773 -0.5165  0.7044 -0.2339
    4MOL   C154 2200   5.027   0.820   4.719 -0.8710  0.1242  0.0870
    4MOL   C155 2201   5.037   0.692   4.775 -0.1561 -0.3422  0.7416
    4MOL   C156 2202   4.957   0.654   4.881  0.3566  0.1191 -0.7656
    4MOL   C157 2203   4.875   0.747   4.946  0.1947  0.3651 -0.4411
    4MOL   C158 2204   4.611   1.013   4.814 -0.4506 -0.1240  0.5671
    4MOL   C159 2205   4.532   1.110   4.749 -0.2856  0.0530 -0.2975
    4MOL   H160 2206   4.383   1.273   4.933 -1.3909 -0.2614 -0.1634
    4MOL   H161 2207   4.172   1.329   5.037 -0.9493  2.0607 -0.5695
    4MOL   H162 2208   4.058   1.565   4.712  1.2839  1.5304  0.8140
    4MOL   H163 2209   4.275   1.516   4.598 -1.3555  0.2230 -0.7381
    4MOL   H164 2210   4.710   1.387   4.846  1.1029 -0.8689  0.9796
    4MOL   H165 2211   4.840   1.214   4.965  0.2941  1.4267  0.2215
    4MOL   H166 2212   4.912   1.008   4.735 -1.4895  1.2731  1.7619
    4MOL   H167 2213   5.094   0.846   4.639  0.1972 -1.4972  0.4247
    4MOL   H168 2214   4.984   0.561   4.928 -1.3705 -0.7728 -1.5346
    4MOL   H169 2215   4.822   0.722   5.037 -1.3666  1.1154 -1.1271
    4MOL   H170 2216   4.593   0.907   4.806  4.7857 -1.2405  1.4697
    4MOL   H171 2217   4.444   1.073   4.698 -0.4116  0.3748 -0.3113
    4MOL   C172 2218   5.430   0.653   4.940 -0.1375 -0.2836  0.5470
    4MOL   C173 2219   5.304   0.606   4.894 -0.3430 -0.0128 -0.3375
    4MOL   C174 2220   5.258   0.633   4.760  0.3838  0.0378 -0.3702
    4MOL   O175 2221   5.127   0.606   4.730  0.2888 -0.4482  0.1881
    4MOL   C176 2222   5.350   0.696   4.671  0.7333  0.6707  0.3791
    4MOL   C177 2223   5.476   0.737   4.717  0.2427  0.3026 -0.2846
    4MOL   C178 2224   5.512   0.716   4.849  0.3077  0.3580 -0.1715
    4MOL   C179 2225   5.644   0.756   4.903 -0.1386  0.2755 -0.5487
    4MOL   O180 2226   5.665   0.790   5.019 -0.0136  0.5209 -0.0441
    4MOL   C181 2227   5.757   0.754   4.806  0.2746  0.5337  0.1071
    4MOL   C182 2228   5.762   0.655   4.701 -0.3948 -0.6491 -0.2991
    4MOL   C183 2229   5.864   0.652   4.603  0.5893 -0.0912  0.3916
    4MOL   C184 2230   5.960   0.756   4.605 -0.6095 -0.8588  0.0135
    4MOL   O185 2231   6.051   0.763   4.498 -0.0606  0.1737 -0.1997
    4MOL   C186 2232   6.110   0.877   4.459  0.4415  0.0790 -0.7586
    4MOL   C187 2233   6.040   0.999   4.440  0.0914  0.3400 -0.0196
    4MOL   C188 2234   6.116   1.111   4.394 -0.6871 -0.1458  0.1200
    4MOL   C189 2235   6.250   1.095   4.358  0.7708 -0.1082 -0.1427
    4MOL   C190 2236   6.314   0.972   4.373 -0.2528  0.2339  0.1238
    4MOL   C191 2237   6.247   0.865   4.427  1.2307  0.3747  0.1333
    4MOL   C192 2238   5.959   0.851   4.711 -0.2662 -0.4394 -0.1102
    4MOL   C193 2239   5.854   0.849   4.811 -0.3062  0.8823  0.2120
    4MOL   H194 2240   5.463   0.626   5.039  1.6764  1.2042  0.3743
    4MOL   H195 2241   5.244   0.564   4.974  0.4995 -1.0307 -0.2250
    4MOL   H196 2242   5.320   0.731   4.574  0.8756 -1.4358 -0.4539
    4MOL   H197 2243   5.539   0.800   4.656  0.7598 -0.9826 -1.1034
    4MOL   H198 2244   5.700   0.566   4.690 -0.3979 -0.8734  1.4371
    4MOL   H199 2245   5.862   0.587   4.517  2.0076 -2.2655  1.9213
    4MOL   H200 2246   5.936   1.014   4.466 -1.2549 -1.6067 -3.9671
    4MOL   H201 2247   6.056   1.196   4.363  1.3985  0.8923 -1.2130
    4MOL   H202 2248   6.417   0.953   4.347 -0.5155 -1.4140  0.2086
    4MOL   H203 2249   6.307   0.776   4.438 -0.5451 -1.0752 -1.4847
    4MOL   H204 2250   6.030   0.932   4.715  0.0332 -0.6802 -0.4737
    4MOL   H205 2251   5.848   0.919   4.894 -1.0308  3.1486 -1.6850
    4MOL   C206 2252   6.266   1.241   3.951  1.0601  0.2371  0.0434
    4MOL   C207 2253   6.240   1.241   4.086 -0.0750  0.0740  0.7023
    4MOL   C208 2254   6.340   1.218   4.179  0.0512 -0.4234  0.4252
    4MOL   O209 2255   6.312   1.204   4.313  0.4945  0.1324  0.2087
    4MOL   C210 2256   6.469   1.200   4.132  0.1208  0.5289  0.2228
    4MOL   C211 2257   6.502   1.193   3.992  0.7094  0.5127  0.3348
    4MOL   C212 2258   6.397   1.222   3.902 -0.6232 -0.1704 -0.4129
    4MOL   C213 2259   6.418   1.206   3.758 -0.1407  0.0263  0.0229
    4MOL   O214 2260   6.534   1.203   3.707 -0.2437 -0.0928  0.2473
    4MOL   C215 2261   6.298   1.195   3.673 -0.0943  0.5647  0.4656
    4MOL   C216 2262   6.233   1.072   3.646  0.0850  0.4711 -0.6893
    4MOL   C217 2263   6.117   1.062   3.569  0.1336  0.3483  0.7976
    4MOL   C218 2264   6.069   1.177   3.504 -1.0681 -0.8346  0.5071
    4MOL   O219 2265   5.954   1.168   3.427  0.3380  0.0896 -0.4442
    4MOL   C220 2266   5.931   1.263   3.325 -0.5481 -0.2712  0.4143
    4MOL   C221 2267   5.994   1.251   3.204  0.2986 -0.2023 -0.2506
    4MOL   C222 2268   5.969   1.326   3.091 -0.5637  1.4794 -0.3935
    4MOL   C223 2269   5.875   1.434   3.104  0.0802  0.1126  0.2067
    4MOL   C224 2270   5.816   1.449   3.232  0.0988  0.1163 -0.0269
    4MOL   C225 2271   5.844   1.366   3.343  0.3729 -0.9638 -0.6005
    4MOL   C226 2272   6.132   1.299   3.529  0.3806 -1.1982  0.3328
    4MOL   C227 2273   6.245   1.310   3.610  0.2085  0.3072  0.3025
    4MOL   H228 2274   6.184   1.253   3.882  0.6516 -0.8284  0.3317
    4MOL   H229 2275   6.141   1.259   4.127  0.4586  0.5777  1.8126
    4MOL   H230 2276   6.550   1.170   4.197  0.2558 -0.4083 -0.3768
    4MOL   H231 2277   6.601   1.171   3.954  0.2964  0.2277 -0.5670
    4MOL   H232 2278   6.260   0.983   3.701 -1.0367 -0.5726 -1.8138
    4MOL   H233 2279   6.070   0.967   3.547  1.9216 -0.5229  0.6885
    4MOL   H234 2280   6.073   1.178   3.193  0.1672 -0.5603  1.0879
    4MOL   H235 2281   6.025   1.315   2.999 -1.2706 -1.0285 -0.5640
    4MOL   H236 2282   5.745   1.528   3.254 -0.1133 -0.7157  2.4909
    4MOL   H237 2283   5.785   1.375   3.433 -1.8880 -0.0135 -2.1201
    4MOL   H238 2284   6.095   1.391   3.487  0.8546 -2.4442 -2.9492
    4MOL   H239 2285   6.295   1.403   3.629  1.3088 -0.3936  0.9037
    4MOL   C240 2286   5.516   1.634   2.894  0.3761  0.1578  0.5986
    4MOL   C241 2287   5.644   1.632   2.942 -0.1846  0.2829 -1.1037
    4MOL   C242 2288   5.717   1.510   2.953  0.2169  0.7927 -0.1553
    4MOL   O243 2289   5.846   1.517   2.996 -0.5246  0.6633  0.0976
    4MOL   C244 2290   5.663   1.387   2.911  0.3381 -0.2630 -0.0456
    4MOL   C245 2291   5.532   1.395   2.859  0.0596 -0.4217 -0.2504
    4MOL   C246 2292   5.456   1.514   2.847  0.2198 -0.3938  0.4434
    4MOL   C247 2293   5.323   1.521   2.780  0.2981 -0.1701  0.1655
    4MOL   O248 2294   5.282   1.617   2.711 -0.1697 -0.0628 -0.7516
    4MOL   C249 2295   5.230   1.399   2.791 -0.2862  0.3722  0.0197
    4MOL   C250 2296   5.141   1.378   2.683  0.2643  0.4535 -0.2278
    4MOL   C251 2297   5.052   1.260   2.686  0.1779 -0.1785 -0.3718
    4MOL   C252 2298   5.059   1.171   2.796 -0.6640 -0.1014  0.2075
    4MOL   O253 2299   4.980   1.062   2.811 -0.1133 -0.1927 -0.4103
    4MOL   C254 2300   4.844   1.083   2.841 -0.3164 -0.2566 -0.1583
    4MOL   C255 2301   4.802   1.080   2.977  0.0150 -0.2821  0.5502
    4MOL   C256 2302   4.670   1.115   3.015  0.2181 -0.1571  0.1390
    4MOL   C257 2303   4.584   1.160   2.907  0.7094  0.6181  0.0244
    4MOL   C258 2304   4.627   1.172   2.776  0.7564  0.0447  0.3152
    4MOL   C259 2305   4.749   1.120   2.742  0.0889  0.3815  0.2620
    4MOL   C260 2306   5.138   1.201   2.908 -0.6254  0.3220 -0.1471
    4MOL   C261 2307   5.239   1.308   2.902  0.5200  0.3114 -0.2497
    4MOL   H262 2308   5.460   1.725   2.878  0.1044  0.2120  1.8484
    4MOL   H263 2309   5.692   1.719   2.985 -0.1222 -1.2457  2.0553
    4MOL   H264 2310   5.725   1.299   2.907  1.2458  0.4607 -3.6211
    4MOL   H265 2311   5.494   1.302   2.820 -0.2362 -1.2231  1.8350
    4MOL   H266 2312   5.138   1.448   2.601 -1.2580  0.4812 -0.1740
    4MOL   H267 2313   4.987   1.242   2.602  0.1293 -1.2615 -0.1009
    4MOL   H268 2314   4.879   1.070   3.052  0.0753  1.0565  0.6776
    4MOL   H269 2315   4.637   1.130   3.116 -0.5653  3.5278 -0.5780
    4MOL   H270 2316   4.558   1.201   2.698  0.7072 -0.4223  0.1813
    4MOL   H271 2317   4.773   1.115   2.637  0.6306  1.3784  0.3238
    4MOL   H272 2318   5.139   1.143   2.999  0.1800  0.7740  0.1442
    4MOL   H273 2319   5.301   1.329   2.988 -2.7924 -0.1344  2.3776
    4MOL   C274 2320   4.410   1.546   2.945  0.4892  0.7186  0.5706
    4MOL   C275 2321   4.454   1.424   2.900 -0.4921 -0.4807 -0.2091
    4MOL   C276 2322   4.410   1.305   2.964 -0.3184 -0.3123  0.4323
    4MOL   O277 2323   4.449   1.180   2.931  0.2095 -0.2141  0.6254
    4MOL   C278 2324   4.310   1.305   3.066 -0.7554  0.0035 -0.0270
    4MOL   C279 2325   4.267   1.431   3.111  0.7094 -0.7505 -0.2526
    4MOL   C280 2326   4.321   1.552   3.055  0.0647  0.8878  0.1980
    4MOL   C281 2327   4.263   1.679   3.101  0.4527  0.1279  0.3186
    4MOL   O282 2328   4.185   1.737   3.024 -0.3212 -0.9445 -0.0356
    4MOL   C283 2329   4.301   1.732   3.231 -0.3119  0.0272 -0.3381
    4MOL   C284 2330   4.378   1.664   3.329 -0.1551  0.3577  0.7623
    4MOL   C285 2331   4.424   1.722   3.451 -0.2629  0.1689  0.6108
    4MOL   C286 2332   4.406   1.854   3.470  0.5052  0.2872  0.6534
    4MOL   O287 2333   4.458   1.925   3.568  0.8351  0.6792 -0.9695
    4MOL   C288 2334   4.595   1.914   3.581 -0.3347  0.3278 -0.0686
    4MOL   C289 2335   4.644   1.907   3.712  0.3835 -0.9477 -0.2442
    4MOL   C290 2336   4.787   1.921   3.730  1.0446 -0.4375  0.0209
    4MOL   C291 2337   4.867   1.940   3.618 -0.5813  0.4290 -0.6930
    4MOL   C292 2338   4.815   1.945   3.488 -0.0421  0.1212  0.2203
    4MOL   C293 2339   4.681   1.940   3.471 -0.2833  0.2900 -0.3711
    4MOL   C294 2340   4.326   1.928   3.377  0.3711 -0.2968 -0.3867
    4MOL   C295 2341   4.272   1.866   3.262  0.4992 -0.5155 -0.5941
    4MOL   H296 2342   4.456   1.631   2.896  2.5160 -0.9289 -0.4611
    4MOL   H297 2343   4.530   1.414   2.824  1.1283  0.9071  1.1970
    4MOL   H298 2344   4.282   1.213   3.113  2.9798 -0.2063  1.9695
    4MOL   H299 2345   4.199   1.437   3.195  0.9268 -0.2228 -0.1150
    4MOL   H300 2346   4.400   1.561   3.304 -0.0806  0.5187  0.1483
    4MOL   H301 2347   4.480   1.661   3.521  0.1909 -1.0980 -0.8121
    4MOL   H302 2348   4.578   1.899   3.797 -0.5446  0.7850 -0.7881
    4MOL   H303 2349   4.818   1.918   3.833 -0.3082  1.6171  0.5270
    4MOL   H304 2350   4.876   1.959   3.399 -0.2765  0.6061  0.1316
    4MOL   H305 2351   4.633   1.962   3.377  2.6448  1.5024 -1.6519
    4MOL   H306 2352   4.308   2.033   3.393  0.5225 -0.2225 -0.7044
    4MOL   H307 2353   4.236   1.929   3.182  0.9769  0.3347 -0.1507
    4MOL   C308 2354   5.161   1.624   3.763  0.4673  0.1994  0.1518
    4MOL   C309 2355   5.094   1.752   3.758 -0.2526  0.1504 -0.3017
    4MOL   C310 2356   5.056   1.807   3.637  0.3140  0.6359  0.0490
    4MOL   O311 2357   5.005   1.930   3.633 -0.5748 -0.1032  0.2176
    4MOL   C312 2358   5.087   1.735   3.515 -0.1106 -0.8175  1.0462
    4MOL   C313 2359   5.150   1.611   3.518 -0.5203 -0.2260  0.9399
    4MOL   C314 2360   5.198   1.561   3.641  0.2839 -0.5515  0.4990
    4MOL   C315 2361   5.257   1.422   3.651 -0.4831 -0.2375 -0.1356
    4MOL   O316 2362   5.240   1.356   3.751 -0.4583 -0.2913 -0.1201
    4MOL   C317 2363   5.333   1.368   3.544  0.7316  0.2217  0.5349
    4MOL   C318 2364   5.337   1.225   3.528  0.0433 -0.1660 -1.1832
    4MOL   C319 2365   5.428   1.171   3.436 -0.3629 -0.1720 -0.2026
    4MOL   C320 2366   5.504   1.245   3.346  0.2905 -0.0671  0.5721
    4MOL   O321 2367   5.572   1.198   3.231 -0.1572  0.0624  0.2510
    4MOL   C322 2368   5.647   1.084   3.222  0.3418  0.0042 -0.2987
    4MOL   C323 2369   5.694   1.012   3.331  0.0385  0.9364 -0.1757
    4MOL   C324 2370   5.778   0.902   3.313 -0.4127 -0.2391 -0.6334
    4MOL   C325 2371   5.827   0.868   3.187 -0.1909  0.4318  0.7404
    4MOL   C326 2372   5.793   0.947   3.076 -0.8209 -0.4359 -0.5628
    4MOL   C327 2373   5.698   1.053   3.093  0.4932  0.5314  0.1326
    4MOL   C328 2374   5.491   1.392   3.353 -0.5824  0.8765 -0.3248
    4MOL   C329 2375   5.408   1.450   3.454  0.3877  0.3835  0.1295
    4MOL   H330 2376   5.197   1.582   3.855  1.8145  1.0224  0.0243
    4MOL   H331 2377   5.071   1.804   3.850 -1.6004 -1.1568  0.1159
    4MOL   H332 2378   5.061   1.776   3.419 -1.1328 -0.1213  1.6158
    4MOL   H333 2379   5.170   1.553   3.429  1.3074  3.0033 -0.8585
    4MOL   H334 2380   5.275   1.166   3.595 -1.6223  3.2706  0.4070
    4MOL   H335 2381   5.444   1.064   3.433 -0.2228 -0.2189  1.7545
    4MOL   H336 2382   5.665   1.046   3.429 -1.4616 -3.1085  0.9174
    4MOL   H337 2383   5.820   0.856   3.401 -1.2502 -0.0652 -0.1367
    4MOL   H338 2384   5.825   0.924   2.975  1.3608 -0.1318  0.0384
    4MOL   H339 2385   5.661   1.094   3.000  0.0328 -0.0316  0.0630
    4MOL   H340 2386   5.537   1.447   3.272 -0.5942  0.0226 -0.9185
    4MOL   H341 2387   5.409   1.557   3.464 -0.2041  0.2263  2.1018
    4MOL   C342 2388   5.696   0.452   3.257  0.2701  0.1227  0.7743
    4MOL   C343 2389   5.775   0.568   3.273 -0.5791  0.0419 -0.4665
    4MOL   C344 2390   5.819   0.641   3.160 -0.2552 -0.4515  0.0310
    4MOL   O345 2391   5.896   0.752   3.175  0.2379  0.5419  0.2163
    4MOL   C346 2392   5.786   0.595   3.033  0.3602  0.1303  0.0463
    4MOL   C347 2393   5.711   0.481   3.014 -0.0437  1.1608 -0.2183
    4MOL   C348 2394   5.665   0.406   3.124  0.1442 -0.5810 -0.9872
    4MOL   C349 2395   5.558   0.303   3.102  0.2417 -0.3963 -0.0368
    4MOL   O350 2396   5.562   0.224   3.009  0.0528 -0.2112  0.3420
    4MOL   C351 2397   5.433   0.305   3.186 -0.1778 -0.3169  0.4578
    4MOL   C352 2398   5.378   0.184   3.229 -0.1042 -0.0263  0.5396
    4MOL   C353 2399   5.250   0.182   3.296 -0.0704 -0.6294 -0.5907
    4MOL   C354 2400   5.192   0.301   3.340  0.1071  0.3060 -0.1363
    4MOL   O355 2401   5.072   0.312   3.409 -0.0418  0.2325 -0.1766
    4MOL   C356 2402   5.019   0.195   3.467 -0.7924 -0.4781 -0.6706
    4MOL   C357 2403   5.076   0.128   3.580 -0.4886 -0.0525 -0.5538
    4MOL   C358 2404   5.018   0.006   3.620  0.1598  0.5792 -0.0148
    4MOL   C359 2405   4.894   8.276   3.571  0.0253  0.5204  0.5030
    4MOL   C360 2406   4.835   0.035   3.467  0.7387 -0.0795  0.3820
    4MOL   C361 2407   4.900   0.143   3.409  0.2474  0.4751  0.3586
    4MOL   C362 2408   5.248   0.424   3.296 -0.2221  0.0921  0.7914
    4MOL   C363 2409   5.367   0.428   3.227  0.1615  0.1909  0.1252
    4MOL   H364 2410   5.648   0.412   3.345  0.6041 -1.7153  0.1486
    4MOL   H365 2411   5.799   0.596   3.374 -0.6905 -1.7302  0.0732
    4MOL   H366 2412   5.823   0.649   2.946  2.1411  2.5173  2.2026
    4MOL   H367 2413   5.683   0.457   2.913 -0.7635 -0.9876  0.4488
    4MOL   H368 2414   5.425   0.089   3.206  0.7383  0.5443 -0.1430
    4MOL   H369 2415   5.202   0.089   3.325 -0.2997 -0.3189  0.0306
    4MOL   H370 2416   5.171   0.153   3.625 -0.9112 -1.1560  0.9817
    4MOL   H371 2417   5.060   8.263   3.703  0.4797 -0.3349 -0.7756
    4MOL   H372 2418   4.739   0.011   3.424  1.6030 -2.9632 -0.0377
    4MOL   H373 2419   4.849   0.188   3.325 -0.4753  0.3155  0.7114
    4MOL   H374 2420   5.197   0.515   3.324  0.3372  0.1340  1.6964
    4MOL   H375 2421   5.410   0.523   3.198  1.0309  0.6634  2.8440
    4MOL   C376 2422   4.746   7.933   3.343 -0.7192  0.6893  0.4827
    4MOL   C377 2423   4.810   8.040   3.407 -0.0334 -0.3744  0.0772
    4MOL   C378 2424   4.774   8.071   3.539 -0.4699 -0.1120  0.0720
    4MOL   O379 2425   4.833   8.161   3.619 -0.0572  0.2960  0.4118
    4MOL   C380 2426   4.681   7.982   3.607 -0.1393  0.3581  0.1600
    4MOL   C381 2427   4.634   7.862   3.548  0.0321  0.1992  0.4813
    4MOL   C382 2428   4.658   7.845   3.409 -0.0174  0.4403  0.1987
    4MOL   C383 2429   4.595   7.732   3.326  0.7715  0.1372 -0.0344
    4MOL   O384 2430   4.491   7.663   3.354 -0.0098 -0.5545 -0.8163
    4MOL   C385 2431   4.653   7.696   3.198 -0.3469  0.8032  0.4041
    4MOL   C386 2432   4.589   7.729   3.075  0.2018 -0.0520 -0.7587
    4MOL   C387 2433   4.635   7.679   2.951  0.3813 -0.6036 -0.6715
    4MOL   C388 2434   4.747   7.592   2.942  0.3861  0.3024 -0.6068
    4MOL   O389 2435   4.790   7.553   2.821 -0.0377  0.2088 -0.6039
    4MOL   C390 2436   4.858   7.648   2.743 -0.3379  0.0599  0.2720
    4MOL   C391 2437   4.813   7.668   2.612  0.0011 -0.3750 -0.6520
    4MOL   C392 2438   4.880   7.756   2.526 -0.4125 -0.4587  0.1572
    4MOL   C393 2439   5.002   7.818   2.569 -0.4499 -0.0627  0.0296
    4MOL   C394 2440   5.052   7.788   2.698  0.1446 -0.6120 -0.1938
    4MOL   C395 2441   4.976   7.707   2.786  0.2137  0.1098  0.5027
    4MOL   C396 2442   4.813   7.567   3.059  0.4746  0.1347  0.0847
    4MOL   C397 2443   4.770   7.618   3.185 -0.2789 -0.6234 -0.4323
    4MOL   H398 2444   4.757   7.933   3.235  1.0107  1.5289  0.6320
    4MOL   H399 2445   4.899   8.072   3.354  0.4793 -1.0042  0.5449
    4MOL   H400 2446   4.657   8.005   3.709  3.5103 -2.4144  1.7463
    4MOL   H401 2447   4.566   7.801   3.605 -1.2126  1.0748 -0.0370
    4MOL   H402 2448   4.502   7.793   3.083 -0.4813 -0.9880 -0.5409
    4MOL   H403 2449   4.581   7.693   2.858 -1.3369 -1.8606  0.0981
    4MOL   H404 2450   4.728   7.605   2.587 -0.8707  1.6008 -2.7390
    4MOL   H405 2451   4.847   7.773   2.425  0.8035 -0.7638 -0.3003
    4MOL   H406 2452   5.138   7.842   2.735 -0.1528  1.5348 -2.5083
    4MOL   H407 2453   5.006   7.693   2.888  1.3560 -2.0765 -0.1000
    4MOL   H408 2454   4.910   7.520   3.058  1.1903  1.5996 -1.5772
    4MOL   H409 2455   4.810   7.583   3.279  0.9819 -0.1216 -0.7772
    4MOL   C410 2456   5.039   7.974   2.140 -0.5288  0.5176  0.5074
    4MOL   C411 2457   5.093   7.912   2.250  0.9909  1.1528 -0.5449
    4MOL   C412 2458   5.044   7.954   2.378 -0.3715 -0.0855 -0.1111
    4MOL   O413 2459   5.089   7.888   2.490  0.2438  0.3336  0.0316
    4MOL   C414 2460   4.958   8.065   2.389 -0.1606  0.6710  0.2599
    4MOL   C415 2461   4.909   8.131   2.277 -0.2285  0.1441 -0.2773
    4MOL   C416 2462   4.955   8.088   2.151  0.0904 -0.4613  0.1668
    4MOL   C417 2463   4.924   8.171   2.035 -0.1778  0.9592 -0.3423
    4MOL   O418 2464   4.822   8.157   1.965 -0.1237 -0.3307  0.4663
    4MOL   C419 2465   5.026   8.270   2.002  0.2637 -0.4786 -0.1935
    4MOL   C420 2466   5.043   8.302   1.866 -0.6971  0.5118 -0.2178
    4MOL   C421 2467   5.142   0.080   1.827  0.1542 -0.7057  0.5494
    4MOL   C422 2468   5.243   0.126   1.915 -0.1272 -0.1918  0.6624
    4MOL   O423 2469   5.347   0.202   1.866  0.3276 -0.1314  0.0027
    4MOL   C424 2470   5.471   0.197   1.923  0.2530 -0.4128 -0.4443
    4MOL   C425 2471   5.553   0.310   1.916 -0.2858  0.7477  0.6415
    4MOL   C426 2472   5.686   0.302   1.967  0.8065 -0.2126  0.3031
    4MOL   C427 2473   5.732   0.181   2.028 -0.0656  0.8438 -0.5301
    4MOL   C428 2474   5.656   0.066   2.027 -0.2505 -0.5270 -0.1043
    4MOL   C429 2475   5.532   0.080   1.964  0.4232  0.2140 -0.5450
    4MOL   C430 2476   5.235   0.087   2.052  0.3199 -0.3704  0.2501
    4MOL   C431 2477   5.128   0.001   2.095  0.5093  0.0205  0.4951
    4MOL   H432 2478   5.087   7.951   2.046 -1.9484  2.3976 -0.7247
    4MOL   H433 2479   5.171   7.838   2.254  0.5792  0.7382 -0.1538
    4MOL   H434 2480   4.928   8.106   2.485 -1.5296 -2.4803  1.2175
    4MOL   H435 2481   4.845   8.217   2.292  0.2504  0.2439  1.2773
    4MOL   H436 2482   4.971   8.267   1.794  1.5272 -1.7698 -1.4291
    4MOL   H437 2483   5.158   0.118   1.727  3.9479 -2.7724  0.2770
    4MOL   H438 2484   5.518   0.407   1.885 -1.4735 -0.3301 -1.4713
    4MOL   H439 2485   5.752   0.387   1.963  0.1362  0.3773  1.6331
    4MOL   H440 2486   5.680   8.285   2.076 -0.9681 -0.2371  0.8189
    4MOL   H441 2487   5.474   8.302   1.957  0.0290  0.2515  1.7953
    4MOL   H442 2488   5.302   0.127   2.126  1.0559 -0.5929 -0.2806
    4MOL   H443 2489   5.131   8.294   2.201  0.4267 -0.0842  0.4780
    4MOL   C444 2490   6.124   0.367   1.929 -0.1769  0.1717 -0.3658
    4MOL   C445 2491   6.021   0.270   1.955 -0.1607  1.1126  0.0049
    4MOL   C446 2492   5.957   0.263   2.076  0.6607 -0.2065 -0.1347
    4MOL   O447 2493   5.851   0.179   2.104 -0.4508  0.2407 -0.3679
    4MOL   C448 2494   6.009   0.347   2.182  0.4018  0.1348 -0.0165
    4MOL   C449 2495   6.109   0.445   2.154 -0.2403 -0.2584  0.9647
    4MOL   C450 2496   6.167   0.457   2.028 -0.4217 -0.1554  0.6092
    4MOL   C451 2497   6.262   0.567   1.995 -0.6759 -0.3622  0.5492
    4MOL   O452 2498   6.376   0.561   2.042  0.3638 -0.1653 -0.1468
    4MOL   C453 2499   6.218   0.686   1.916  0.1937 -0.1171 -0.2231
    4MOL   C454 2500   6.286   0.811   1.921 -0.6243  0.0047 -0.4306
    4MOL   C455 2501   6.245   0.924   1.844  0.5636 -0.3204  0.3537
    4MOL   C456 2502   6.123   0.914   1.772  0.2122 -0.0788  0.5192
    4MOL   O457 2503   6.087   1.022   1.696  0.1193 -0.7368 -0.6305
    4MOL   C458 2504   5.981   1.106   1.743 -0.3714 -0.3957 -0.2057
    4MOL   C459 2505   5.850   1.090   1.689 -0.3562  0.4728 -0.6885
    4MOL   C460 2506   5.741   1.159   1.751  0.2033 -0.1109 -0.6366
    4MOL   C461 2507   5.771   1.250   1.851  0.4233  0.0542  0.3491
    4MOL   C462 2508   5.900   1.261   1.910  0.7224 -0.3488 -0.0726
    4MOL   C463 2509   6.003   1.186   1.856  0.2339  0.5849  0.7115
    4MOL   C464 2510   6.047   0.799   1.777 -0.9625 -0.1288 -0.0972
    4MOL   C465 2511   6.100   0.687   1.846 -0.1079  0.1476 -0.3738
    4MOL   H466 2512   6.163   0.377   1.829  1.6966 -0.1520  0.3132
    4MOL   H467 2513   5.993   0.202   1.876  3.0579 -0.3952  0.0907
    4MOL   H468 2514   5.964   0.328   2.279 -0.0359 -0.1712 -0.2735
    4MOL   H469 2515   6.140   0.518   2.227 -0.0023  1.8609 -1.1949
    4MOL   H470 2516   6.381   0.817   1.972 -0.6126 -2.9336 -0.0313
    4MOL   H471 2517   6.306   1.010   1.825 -1.5120  0.9485 -0.7749
    4MOL   H472 2518   5.830   1.030   1.602  1.7188  0.4135 -1.1332
    4MOL   H473 2519   5.638   1.144   1.719 -0.4059  2.7333 -0.1184
    4MOL   H474 2520   5.906   1.316   2.003 -0.0294  1.9822 -1.3681
    4MOL   H475 2521   6.103   1.200   1.896  1.4827 -3.3055 -0.7952
    4MOL   H476 2522   5.957   0.791   1.718 -0.4059 -0.1434 -0.9493
    4MOL   H477 2523   6.043   0.596   1.847 -0.1178  0.1216 -2.4943
    4MOL   C478 2524   5.643   1.187   2.268  0.3231  0.7131  0.2981
    4MOL   C479 2525   5.672   1.188   2.130  0.5120  0.3521 -0.3423
    4MOL   C480 2526   5.624   1.293   2.048  0.9455 -0.5358 -0.5988
    4MOL   O481 2527   5.660   1.310   1.914  0.0887 -0.5960  0.3596
    4MOL   C482 2528   5.537   1.397   2.098 -0.3376 -0.0955  0.6818
    4MOL   C483 2529   5.504   1.389   2.233 -0.5453 -0.8070 -0.2966
    4MOL   C484 2530   5.561   1.293   2.318  0.8317 -1.2276 -0.2442
    4MOL   C485 2531   5.510   1.284   2.458 -0.4022  0.2288 -0.2819
    4MOL   O486 2532   5.482   1.389   2.517 -0.1522 -0.0342 -0.4719
    4MOL   C487 2533   5.473   1.152   2.519  0.1532  0.0874  0.1890
    4MOL   C488 2534   5.338   1.109   2.543 -0.7401 -0.2512  0.2960
    4MOL   C489 2535   5.316   0.985   2.604 -1.1303  0.5081 -0.1018
    4MOL   C490 2536   5.422   0.904   2.649 -0.5442  0.1151 -0.8881
    4MOL   O491 2537   5.396   0.782   2.700 -0.6257 -0.0110  0.3182
    4MOL   C492 2538   5.379   0.777   2.836 -1.0453  0.1340  0.6838
    4MOL   C493 2539   5.491   0.787   2.921 -0.2504 -0.1094  0.2156
    4MOL   C494 2540   5.471   0.777   3.058 -0.0140 -0.4123  0.6594
    4MOL   C495 2541   5.344   0.766   3.114  1.9264  1.2287  0.3450
    4MOL   C496 2542   5.232   0.748   3.026 -0.6612  0.5916  0.0701
    4MOL   C497 2543   5.252   0.756   2.887 -0.1865  0.0923 -0.2832
    4MOL   C498 2544   5.554   0.948   2.633  0.1510  0.2311 -0.6669
    4MOL   C499 2545   5.580   1.081   2.580  0.8086  0.5583 -0.3791
    4MOL   H500 2546   5.671   1.109   2.338 -0.7461 -1.0344 -1.1684
    4MOL   H501 2547   5.732   1.107   2.092  0.9388 -0.0280  1.1132
    4MOL   H502 2548   5.498   1.469   2.027 -1.3439 -1.4329 -0.1474
    4MOL   H503 2549   5.445   1.465   2.282  0.0279 -1.9056  2.1608
    4MOL   H504 2550   5.259   1.174   2.511  0.5884  0.4669 -1.6252
    4MOL   H505 2551   5.213   0.967   2.630 -1.2242  0.6966 -0.3378
    4MOL   H506 2552   5.585   0.805   2.873 -0.8687  0.4679 -0.7782
    4MOL   H507 2553   5.556   0.804   3.119  0.6898 -1.0050 -0.0414
    4MOL   H508 2554   5.132   0.737   3.064 -1.2662  3.3316 -0.6601
    4MOL   H509 2555   5.172   0.751   2.815  0.5342  1.5624 -1.1963
    4MOL   H510 2556   5.635   0.880   2.655  2.1513  2.4456 -1.0185
    4MOL   H511 2557   5.682   1.113   2.562  0.4658  1.1257 -1.3153
    4MOL   C512 2558   5.069   0.931   3.459 -0.2878 -0.1841 -0.0604
    4MOL   C513 2559   5.158   0.835   3.406 -0.0632  0.7353  0.3394
    4MOL   C514 2560   5.240   0.863   3.295  1.2340  0.0793 -0.3990
    4MOL   O515 2561   5.322   0.764   3.256 -0.6150 -0.2148 -0.5119
    4MOL   C516 2562   5.225   0.992   3.236 -0.4468  0.0007 -0.2735
    4MOL   C517 2563   5.151   1.091   3.298 -0.0420  0.2738  0.0353
    4MOL   C518 2564   5.065   1.063   3.413  0.2577 -0.4156 -0.1964
    4MOL   C519 2565   4.981   1.170   3.472  0.2274  0.4329 -0.5886
    4MOL   O520 2566   4.989   1.287   3.434  0.2719 -0.3991 -0.2850
    4MOL   C521 2567   4.894   1.130   3.585 -0.2056 -0.0578 -0.0245
    4MOL   C522 2568   4.790   1.034   3.569  0.0172 -0.3257  0.3513
    4MOL   C523 2569   4.713   0.996   3.676 -0.5262 -0.3029 -0.3758
    4MOL   C524 2570   4.739   1.046   3.803  0.6088  0.7111 -0.0813
    4MOL   O525 2571   4.665   1.008   3.911  0.0407 -0.3511 -0.0303
    4MOL   C526 2572   4.552   1.080   3.955 -0.2951 -0.4227  0.5970
    4MOL   C527 2573   4.525   1.078   4.090  0.6955 -0.2845  0.7382
    4MOL   C528 2574   4.417   1.154   4.134 -0.2714  0.0775 -0.1114
    4MOL   C529 2575   4.336   1.235   4.050  0.5936  0.8019 -0.2686
    4MOL   C530 2576   4.375   1.247   3.915 -0.4385 -0.5636 -0.9347
    4MOL   C531 2577   4.485   1.176   3.873 -0.3224 -0.3650 -0.2947
    4MOL   C532 2578   4.838   1.142   3.823 -0.0047  0.2545  0.1804
    4MOL   C533 2579   4.915   1.180   3.712  1.0603 -0.0306  0.0556
    4MOL   H534 2580   5.011   0.890   3.541  1.6611 -1.1835  0.8608
    4MOL   H535 2581   5.161   0.736   3.447 -0.2808  0.5745 -0.0317
    4MOL   H536 2582   5.280   1.026   3.149 -0.0418 -0.7460 -0.3137
    4MOL   H537 2583   5.152   1.189   3.252 -0.3152 -0.6414 -1.9615
    4MOL   H538 2584   4.759   0.996   3.473 -0.8634 -0.4141  0.6640
    4MOL   H539 2585   4.631   0.927   3.661  0.1096 -0.9678 -0.8041
    4MOL   H540 2586   4.586   1.016   4.154  2.0872 -0.8801 -1.1039
    4MOL   H541 2587   4.399   1.139   4.239  1.2141  3.7898  0.7253
    4MOL   H542 2588   4.323   1.316   3.851 -0.4009 -0.9513 -1.3829
    4MOL   H543 2589   4.500   1.184   3.766  1.6859 -1.3677 -0.1164
    4MOL   H544 2590   4.853   1.190   3.918  0.4013  1.3567 -0.4198
    4MOL   H545 2591   4.995   1.250   3.732  1.4203  0.0199 -1.4999
    4MOL   C546 2592   3.891   1.400   3.990  0.0121 -0.1098 -0.1005
    4MOL   C547 2593   4.021   1.402   4.042 -0.2491 -0.4093 -0.6706
    4MOL   C548 2594   4.101   1.286   4.052 -0.4802 -0.0062 -0.4294
    4MOL   O549 2595   4.227   1.305   4.103 -0.2773  0.5079  0.5183
    4MOL   C550 2596   4.049   1.156   4.023 -0.1305  0.5947 -0.2961
    4MOL   C551 2597   3.918   1.149   3.980  0.0568  0.7504  0.7390
    4MOL   C552 2598   3.839   1.267   3.972 -0.1148  0.2305  0.2890
    4MOL   C553 2599   3.696   1.264   3.923  0.3152  0.5344 -0.5449
    4MOL   O554 2600   3.661   1.320   3.819  0.4632 -0.0521 -0.0947
    4MOL   C555 2601   3.594   1.192   4.011  0.2979  0.6617 -0.1039
    4MOL   C556 2602   3.461   1.185   3.971  0.3369 -0.0005 -0.1075
    4MOL   C557 2603   3.369   1.129   4.053  0.0327  0.1726 -0.4181
    4MOL   C558 2604   3.399   1.074   4.180 -0.8553  0.1222 -0.8059
    4MOL   O559 2605   3.304   1.011   4.260 -0.1904  0.1971  0.1961
    4MOL   C560 2606   3.213   0.927   4.202 -0.6658 -0.3050  0.4536
    4MOL   C561 2607   3.241   0.789   4.200 -0.1007 -0.6569  0.2202
    4MOL   C562 2608   3.145   0.703   4.146 -0.2322  0.7376  0.5090
    4MOL   C563 2609   3.018   0.744   4.102  0.2093 -0.3190 -0.1133
    4MOL   C564 2610   2.996   0.886   4.102  0.9254  0.3827 -0.1341
    4MOL   C565 2611   3.093   0.977   4.151 -0.7011 -0.9553 -0.4510
    4MOL   C566 2612   3.532   1.087   4.221  0.0330 -0.0877 -0.2161
    4MOL   C567 2613   3.630   1.146   4.139  0.0499 -0.5695 -0.6457
    4MOL   H568 2614   3.826   1.485   3.976 -0.5068 -0.5209 -0.1702
    4MOL   H569 2615   4.071   1.495   4.067  2.5709 -1.2767 -2.7612
    4MOL   H570 2616   4.112   1.068   4.018 -1.7093 -0.4970 -1.3636
    4MOL   H571 2617   3.881   1.049   3.966  0.4611  0.7816 -0.6353
    4MOL   H572 2618   3.426   1.240   3.885 -0.5878  2.0226  1.5014
    4MOL   H573 2619   3.268   1.142   4.017 -0.0983 -1.0950 -0.5317
    4MOL   H574 2620   3.336   0.753   4.236 -0.3803  0.4000  2.0625
    4MOL   H575 2621   3.174   0.599   4.147 -0.3223  0.7128  0.5766
    4MOL   H576 2622   2.902   0.927   4.068 -0.2928 -2.0005  0.2404
    4MOL   H577 2623   3.073   1.083   4.159  1.2018 -0.5769 -0.4953
    4MOL   H578 2624   3.554   1.059   4.323 -0.0388 -0.7617 -0.3793
    4MOL   H579 2625   3.729   1.152   4.182  0.1177 -0.7352 -0.7748
    4MOL   C580 2626   2.654   0.415   4.093 -0.7804 -1.1335 -0.2843
    4MOL   C581 2627   2.753   0.497   4.032  0.1328 -0.2828  0.1696
    4MOL   C582 2628   2.841   0.573   4.112 -0.3802 -0.7678 -0.6553
    4MOL   O583 2629   2.930   0.657   4.050  0.6535  0.5196 -0.8210
    4MOL   C584 2630   2.831   0.567   4.251  0.5742  0.3179 -0.0202
    4MOL   C585 2631   2.728   0.494   4.315 -0.7547  0.0834  0.6259
    4MOL   C586 2632   2.642   0.415   4.236  0.0320 -0.0903  0.6225
    4MOL   C587 2633   2.554   0.322   4.305  1.2431 -0.1129  0.3182
    4MOL   O588 2634   2.537   0.316   4.428 -0.0980 -0.3830  0.0825
    4MOL   C589 2635   2.481   0.227   4.213  0.2918 -0.3204 -0.0053
    4MOL   C590 2636   2.344   0.257   4.185  0.4295  0.2686 -0.0467
    4MOL   C591 2637   2.268   0.170   4.105 -0.0052 -0.1694  0.2059
    4MOL   C592 2638   2.327   0.048   4.061  0.0840 -0.2869  0.3601
    4MOL   O593 2639   2.249   8.274   3.988 -0.0968  0.0019 -0.0222
    4MOL   C594 2640   2.140   8.219   4.058 -0.2538 -0.0534  0.5162
    4MOL   C595 2641   2.160   8.136   4.175  0.5765  0.0965 -0.7667
    4MOL   C596 2642   2.047   8.106   4.257  0.2598 -0.5464 -0.2721
    4MOL   C597 2643   1.917   8.159   4.218  0.3591 -0.3259  1.0244
    4MOL   C598 2644   1.907   8.229   4.094  0.0121 -0.6901 -0.2505
    4MOL   C599 2645   2.012   8.265   4.019  0.2893  0.2024  0.8583
    4MOL   C600 2646   2.456   0.011   4.106 -0.4951 -0.0484  0.0306
    4MOL   C601 2647   2.534   0.103   4.182 -0.9535  0.5335 -0.9533
    4MOL   H602 2648   2.591   0.356   4.027 -0.8587  0.1865 -1.4046
    4MOL   H603 2649   2.767   0.502   3.925 -1.7165  1.6819 -0.0324
    4MOL   H604 2650   2.901   0.625   4.309 -0.1831  1.0810  0.1273
    4MOL   H605 2651   2.726   0.490   4.423 -2.1988 -1.7881  0.5498
    4MOL   H606 2652   2.302   0.353   4.212  1.1206  0.8339 -0.9380
    4MOL   H607 2653   2.167   0.192   4.072 -0.2542 -1.5748 -0.0057
    4MOL   H608 2654   2.258   8.102   4.205  0.7557 -0.9408 -2.4373
    4MOL   H609 2655   2.055   8.059   4.354 -2.4364  1.3804  0.9491
    4MOL   H610 2656   1.809   8.257   4.058  0.2498  0.9751  0.3414
    4MOL   H611 2657   2.002   8.309   3.921  1.0208  0.6884  1.0056
    4MOL   H612 2658   2.496   8.229   4.071 -0.0509 -0.1137  0.7036
    4MOL   H613 2659   2.631   0.076   4.222 -0.7317  0.2614 -1.6700
    4MOL   C614 2660   1.683   7.786   4.286  0.2452  0.2441  0.0818
    4MOL   C615 2661   1.727   7.908   4.232 -0.0709  0.5346 -0.7031
    4MOL   C616 2662   1.773   8.007   4.320  0.4593  0.8174  0.0965
    4MOL   O617 2663   1.801   8.133   4.279  0.0060  0.3222  0.2373
    4MOL   C618 2664   1.788   7.973   4.457 -0.2798 -0.0676  0.4470
    4MOL   C619 2665   1.749   7.848   4.506 -0.3996 -0.4083  0.1225
    4MOL   C620 2666   1.687   7.754   4.420 -0.3896  0.2715 -0.1907
    4MOL   C621 2667   1.645   7.620   4.468 -0.2648  0.0993  0.5709
    4MOL   O622 2668   1.654   7.529   4.383 -0.1010 -0.1697  0.0925
    4MOL   C623 2669   1.612   7.603   4.611  1.1314 -0.5299  0.9282
    4MOL   C624 2670   1.660   7.482   4.665  0.1736 -0.0357  0.0959
    4MOL   C625 2671   1.609   7.444   4.788 -0.1919  0.3233  0.3771
    4MOL   C626 2672   1.509   7.519   4.857 -0.5127  0.1324  0.0162
    4MOL   O627 2673   1.461   7.476   4.976 -0.1607  0.6299  0.4777
    4MOL   C628 2674   1.326   7.480   5.007  0.6983 -0.1627  0.5379
    4MOL   C629 2675   1.223   7.520   4.917  0.4420  0.4440  0.1886
    4MOL   C630 2676   1.085   7.513   4.953 -0.1012 -0.2380  0.0303
    4MOL   C631 2677   1.048   7.477   5.082 -0.1448  0.1218  0.0648
    4MOL   C632 2678   1.147   7.426   5.171 -0.8256 -0.0141  0.6752
    4MOL   C633 2679   1.282   7.439   5.136  0.0391 -0.1314 -1.7272
    4MOL   C634 2680   1.483   7.650   4.812  0.1808  0.7031  0.0624
    4MOL   C635 2681   1.520   7.685   4.677 -0.1697  0.2930 -0.0008
    4MOL   H636 2682   1.637   7.712   4.222  0.5335  0.5094 -0.4324
    4MOL   H637 2683   1.709   7.929   4.128 -1.4607  0.0897 -0.5696
    4MOL   H638 2684   1.837   8.043   4.523  0.1495 -0.0711  0.1345
    4MOL   H639 2685   1.768   7.828   4.611  0.8450  0.8121  0.1368
    4MOL   H640 2686   1.729   7.421   4.608 -1.5129 -1.0920 -0.8790
    4MOL   H641 2687   1.634   7.350   4.835  2.3592  0.4512 -0.6408
    4MOL   H642 2688   1.237   7.541   4.812 -0.1080 -0.2756 -0.0280
    4MOL   H643 2689   1.005   7.548   4.890 -1.5638 -1.5497  1.1158
    4MOL   H644 2690   1.120   7.403   5.273 -1.9039  0.1288  0.4285
    4MOL   H645 2691   1.350   7.411   5.214 -0.5896  2.0042 -0.3643
    4MOL   H646 2692   1.424   7.720   4.868  0.0908  1.3330 -0.8067
    4MOL   H647 2693   1.492   7.776   4.627  1.5590  1.6462  1.4452
    4MOL   C648 2694   0.865   7.848   5.192  0.4920 -0.1010 -0.3404
    4MOL   C649 2695   0.883   7.727   5.124  0.1507  0.0724 -0.3511
    4MOL   C650 2696   0.899   7.604   5.187 -0.2822  0.3887 -0.3308
    4MOL   O651 2697   0.921   7.492   5.124  0.0330  0.4840 -0.0492
    4MOL   C652 2698   0.917   7.603   5.328  0.4610 -0.1012 -0.1567
    4MOL   C653 2699   0.900   7.725   5.403  0.3941  0.0199  0.4603
    4MOL   C654 2700   0.867   7.839   5.333  0.2278 -0.6366 -0.6330
    4MOL   C655 2701   0.843   7.967   5.414  0.4501 -0.2279  0.3363
    4MOL   O656 2702   0.905   7.985   5.520 -0.7122 -0.3849 -0.3037
    4MOL   C657 2703   0.756   8.074   5.355 -0.3957 -0.4147  0.6113
    4MOL   C658 2704   0.787   8.207   5.384  0.3371 -0.2876  0.2566
    4MOL   C659 2705   0.718   8.312   5.322  0.3772  0.2430  0.2014
    4MOL   C660 2706   0.604   8.286   5.236 -0.4822  0.5989 -0.1075
    4MOL   O661 2707   0.525   0.073   5.186  0.2153 -0.5644  0.4963
    4MOL   C662 2708   0.582   0.175   5.110 -0.2876 -0.3166  0.3626
    4MOL   C663 2709   0.552   0.308   5.139  0.0522 -0.0530 -0.2239
    4MOL   C664 2710   0.599   0.412   5.056  0.9803 -0.6604  0.3911
    4MOL   C665 2711   0.697   0.384   4.958  0.2903  0.3967  0.0088
    4MOL   C666 2712   0.737   0.254   4.944 -0.1013  0.0072  0.1742
    4MOL   C667 2713   0.680   0.147   5.014  0.4959 -0.1652  0.2734
    4MOL   C668 2714   0.573   8.149   5.210 -0.3198  0.5136  0.1320
    4MOL   C669 2715   0.647   8.045   5.268  0.1948  0.0190  0.4647
    4MOL   H670 2716   0.848   7.941   5.140  0.9431 -0.2218 -0.7036
    4MOL   H671 2717   0.873   7.720   5.016 -3.0973 -0.6110 -0.0608
    4MOL   H672 2718   0.949   7.512   5.378 -0.5814  0.1737  1.0353
    4MOL   H673 2719   0.903   7.721   5.511  0.0805 -0.2107  0.4596
    4MOL   H674 2720   0.871   8.227   5.448  0.2980 -2.6593  1.1106
    4MOL   H675 2721   0.752   0.101   5.336  1.4535 -0.2271  0.9939
    4MOL   H676 2722   0.490   0.337   5.222  1.4966  1.1829  0.4454
    4MOL   H677 2723   0.564   0.514   5.062 -0.3552 -1.1903  2.2850
    4MOL   H678 2724   0.801   0.242   4.858 -1.5674 -1.6589 -0.7095
    4MOL   H679 2725   0.728   0.052   5.001  1.5731  0.4767 -0.4800
    4MOL   H680 2726   0.491   8.133   5.142 -0.3054  1.1306 -0.0272
    4MOL   H681 2727   0.628   7.940   5.250 -1.2503  0.3539 -0.0179
    4MOL   H682 2728   0.726   0.461   4.887  0.1942  0.5634  0.1484
    5MOL     C1 2729   3.868   2.516   3.557 -0.0137 -0.2571 -0.2868
    5MOL     C2 2730   3.787   2.562   3.450 -0.6787  0.9406  0.2078
    5MOL     C3 2731   3.793   2.698   3.415 -0.5368  0.6688  0.8086
    5MOL     O4 2732   3.726   2.737   3.306 -0.0325  0.0766 -0.6219
    5MOL     C5 2733   3.887   2.786   3.474 -0.2634 -0.1235  0.4009
    5MOL     C6 2734   3.958   2.740   3.583  0.6564 -0.1999 -0.5203
    5MOL     C7 2735   3.954   2.602   3.627  0.1360 -0.7488 -0.1999
    5MOL     C8 2736   4.019   2.545   3.751  0.4882  0.1231 -0.5950
    5MOL     O9 2737   4.036   2.424   3.769  0.3190 -0.5755  0.1826
    5MOL    C10 2738   4.054   2.638   3.857 -0.1888  0.1808 -0.9016
    5MOL    C11 2739   4.161   2.730   3.845  0.6060  0.1441  0.4191
    5MOL    C12 2740   4.198   2.814   3.953 -0.2457 -0.6528 -0.0160
    5MOL    C13 2741   4.131   2.802   4.078 -0.3480  0.0066 -0.3109
    5MOL    O14 2742   4.182   2.882   4.181  0.0045  0.1388  0.3467
    5MOL    C15 2743   4.111   2.924   4.289  0.1910  0.1872 -0.7298
    5MOL    C16 2744   4.010   3.027   4.273 -0.2396  1.6272  0.7231
    5MOL    C17 2745   3.937   3.077   4.385  0.3402  0.0106  0.0821
    5MOL    C18 2746   3.955   3.020   4.514 -0.0433 -0.2903 -0.6993
    5MOL    C19 2747   4.047   2.914   4.529 -0.3316 -0.1278 -0.0912
    5MOL    C20 2748   4.126   2.870   4.420  0.5863  0.0774  0.0209
    5MOL    C21 2749   4.018   2.714   4.087 -0.1581  0.7724  0.1337
    5MOL    C22 2750   3.986   2.625   3.980  0.2136  0.1168  0.4995
    5MOL    H23 2751   3.845   2.416   3.590 -0.1573  0.5876  2.3225
    5MOL    H24 2752   3.731   2.487   3.396  0.4082  1.1770 -1.2717
    5MOL    H25 2753   3.890   2.888   3.441 -1.0148  0.1204  1.0988
    5MOL    H26 2754   4.030   2.804   3.633 -1.4909  1.2720  0.7456
    5MOL    H27 2755   4.212   2.727   3.750 -0.0951 -1.7987  0.0666
    5MOL    H28 2756   4.293   2.865   3.944 -1.0107  0.8425  0.3053
    5MOL    H29 2757   3.995   3.075   4.177  1.8119  0.5838 -0.1525
    5MOL    H30 2758   3.865   3.157   4.373 -0.8476 -0.6762  2.3291
    5MOL    H31 2759   4.081   2.890   4.629  2.6681  0.1414 -0.9894
    5MOL    H32 2760   4.196   2.789   4.428  1.2440  0.6377 -0.0230
    5MOL    H33 2761   3.977   2.700   4.186  0.7239 -0.9856  0.2798
    5MOL    H34 2762   3.901   2.559   3.986  1.6094 -1.6565  1.3317
    5MOL    H35 2763   3.665   2.669   3.280  1.3074 -0.9044 -1.2623
    5MOL    C36 2764   4.101   3.140   4.919 -0.0398  0.6736 -0.4036
    5MOL    C37 2765   4.047   3.150   4.792  0.1936  0.8013  0.1996
    5MOL    C38 2766   3.943   3.064   4.752  0.5199 -0.8632  0.5052
    5MOL    O39 2767   3.893   3.074   4.625 -0.0711  0.0239  0.1861
    5MOL    C40 2768   3.887   2.966   4.839  0.3942 -0.4476  0.1005
    5MOL    C41 2769   3.929   2.972   4.973  0.0857 -0.3247 -0.3998
    5MOL    C42 2770   4.046   3.049   5.012  0.7729  0.5064 -0.8928
    5MOL    C43 2771   4.098   3.043   5.146 -0.8629  0.3531 -0.2075
    5MOL    O44 2772   4.221   3.023   5.155  0.1963 -0.7413 -0.1580
    5MOL    C45 2773   4.011   3.048   5.264 -0.3529  0.5113  0.3215
    5MOL    C46 2774   3.882   3.114   5.250  0.8158 -0.7302 -0.1095
    5MOL    C47 2775   3.807   3.143   5.363  0.1552  0.1840  0.1192
    5MOL    C48 2776   3.848   3.093   5.490  0.3044  0.1438  0.3173
    5MOL    O49 2777   3.775   3.112   5.606  0.0482 -0.6479 -0.0145
    5MOL    C50 2778   3.683   3.017   5.639 -0.3649 -0.4682 -0.2116
    5MOL    C51 2779   3.580   2.982   5.549  1.0008 -0.0987  0.0883
    5MOL    C52 2780   3.495   2.874   5.585 -1.3336 -0.2753 -0.2061
    5MOL    C53 2781   3.501   2.806   5.707 -0.1445 -0.2880  0.2111
    5MOL    C54 2782   3.594   2.853   5.798 -0.7304 -0.6044 -0.1281
    5MOL    C55 2783   3.684   2.957   5.768 -0.7176  0.1636 -0.6948
    5MOL    C56 2784   3.965   3.020   5.503  1.0965 -0.2560  0.8976
    5MOL    C57 2785   4.045   2.996   5.391  0.3974  0.6373  0.3433
    5MOL    H58 2786   4.185   3.203   4.943  1.1009 -1.0022  0.0533
    5MOL    H59 2787   4.087   3.230   4.731 -1.8493 -0.6418 -3.1896
    5MOL    H60 2788   3.807   2.902   4.804 -0.7929  1.3829 -0.6227
    5MOL    H61 2789   3.890   2.905   5.048  3.8065 -1.6733  0.4159
    5MOL    H62 2790   3.846   3.163   5.161  1.5727  2.2468  1.1565
    5MOL    H63 2791   3.710   3.192   5.364 -2.4487 -4.6561  2.9049
    5MOL    H64 2792   3.566   3.024   5.450 -2.3531 -2.4125 -0.5055
    5MOL    H65 2793   3.423   2.839   5.513 -1.9100  1.9746 -0.7742
    5MOL    H66 2794   3.607   2.802   5.893  3.7049 -1.0125 -0.8522
    5MOL    H67 2795   3.763   2.974   5.840 -0.7972  0.8368 -0.7651
    5MOL    H68 2796   4.000   2.994   5.602  1.6742  0.8758  1.0034
    5MOL    H69 2797   4.138   2.942   5.395 -0.2177 -0.5551 -0.8557
    5MOL    C70 2798   3.067   2.819   5.706 -0.2855  0.6922 -0.1943
    5MOL    C71 2799   3.207   2.821   5.701 -0.4190  0.3842 -0.1223
    5MOL    C72 2800   3.285   2.710   5.744  0.3818 -0.1038  0.2228
    5MOL    O73 2801   3.418   2.704   5.737 -0.0440 -0.4320  0.3358
    5MOL    C74 2802   3.211   2.596   5.784  0.0026 -0.2446 -0.1623
    5MOL    C75 2803   3.071   2.594   5.781 -0.6694  0.0170 -0.6404
    5MOL    C76 2804   2.998   2.705   5.747  0.0167  0.3281  0.3883
    5MOL    C77 2805   2.854   2.713   5.758  0.2124 -0.2790  0.1726
    5MOL    O78 2806   2.786   2.809   5.724 -0.4334 -0.2284 -0.0620
    5MOL    C79 2807   2.781   2.595   5.816 -0.4673 -0.1589  0.2055
    5MOL    C80 2808   2.805   2.546   5.944  1.0225  0.4266  0.5298
    5MOL    C81 2809   2.743   2.428   5.989 -0.5390  0.0675 -0.2253
    5MOL    C82 2810   2.651   2.360   5.914 -0.4274 -0.6370  0.1417
    5MOL    O83 2811   2.575   2.256   5.971  0.1358  0.0375  0.0155
    5MOL    C84 2812   2.460   2.223   5.912 -0.1840 -0.9129 -0.3562
    5MOL    C85 2813   2.357   2.317   5.904  0.0039  0.0503 -0.1435
    5MOL    C86 2814   2.241   2.294   5.831 -0.4403  0.2265 -0.4189
    5MOL    C87 2815   2.219   2.169   5.768 -0.5062 -0.0505 -0.3108
    5MOL    C88 2816   2.320   2.068   5.783 -0.0232 -0.3718  0.1236
    5MOL    C89 2817   2.438   2.099   5.853  0.1501  1.0922 -0.5138
    5MOL    C90 2818   2.632   2.394   5.780  0.1702  0.2648  0.7851
    5MOL    C91 2819   2.694   2.511   5.732  0.2652 -0.8412 -0.3825
    5MOL    H92 2820   3.008   2.902   5.672 -0.4313  0.9130  0.5903
    5MOL    H93 2821   3.249   2.911   5.660 -0.5753  0.3948 -0.2546
    5MOL    H94 2822   3.260   2.505   5.817 -0.3375 -0.1919  0.5011
    5MOL    H95 2823   3.030   2.498   5.810  0.2723 -0.1025  0.3271
    5MOL    H96 2824   2.865   2.595   6.018 -0.3703 -0.2731  2.1499
    5MOL    H97 2825   2.753   2.401   6.093 -2.2112  2.0423  0.4823
    5MOL    H98 2826   2.369   2.404   5.966  0.7855  0.3305 -0.6900
    5MOL    H99 2827   2.157   2.362   5.828 -2.0367 -1.7149 -0.3556
    5MOL   H100 2828   2.315   1.976   5.727  2.1400 -0.1774 -0.4603
    5MOL   H101 2829   2.516   2.026   5.867 -2.3476 -1.8129 -1.2833
    5MOL   H102 2830   2.559   2.341   5.720  0.2451  1.3101 -0.2630
    5MOL   H103 2831   2.679   2.534   5.627  1.0747  2.0249  0.1018
    5MOL   C104 2832   1.992   1.844   5.538 -0.1114 -0.0295  0.8352
    5MOL   C105 2833   1.994   1.949   5.629 -0.4911  0.4542  0.3294
    5MOL   C106 2834   2.085   2.054   5.614 -0.2984  0.5460  0.6771
    5MOL   O107 2835   2.098   2.151   5.711 -0.1284 -0.0675 -0.3960
    5MOL   C108 2836   2.162   2.059   5.494 -0.6220 -0.5358 -0.6475
    5MOL   C109 2837   2.159   1.949   5.402 -0.0420 -1.1454 -0.3510
    5MOL   C110 2838   2.081   1.834   5.429 -0.1016 -0.2537 -0.7956
    5MOL   C111 2839   2.078   1.723   5.328  0.6529  0.7470 -0.0256
    5MOL   O112 2840   2.040   1.743   5.214 -0.0640  0.1627 -0.7254
    5MOL   C113 2841   2.127   1.588   5.382  0.0879 -0.7125  0.1100
    5MOL   C114 2842   2.159   1.569   5.519 -0.4836  0.0620  0.2344
    5MOL   C115 2843   2.211   1.447   5.558  0.4178 -0.0500  0.2809
    5MOL   C116 2844   2.236   1.344   5.464 -0.7270  0.7444 -0.2001
    5MOL   O117 2845   2.289   1.222   5.507  0.6227  0.2940  0.1337
    5MOL   C118 2846   2.421   1.211   5.504  0.7636 -0.1597 -0.6656
    5MOL   C119 2847   2.465   1.095   5.451 -0.4758  0.5454 -0.0951
    5MOL   C120 2848   2.602   1.074   5.434 -0.1170  0.7461  0.0853
    5MOL   C121 2849   2.699   1.165   5.487 -0.4288  0.1769 -1.1379
    5MOL   C122 2850   2.650   1.289   5.547 -0.0896 -0.2313  0.6983
    5MOL   C123 2851   2.510   1.310   5.552 -0.1752 -0.6098 -0.0255
    5MOL   C124 2852   2.194   1.355   5.329 -0.3442  0.1370 -0.0481
    5MOL   C125 2853   2.143   1.480   5.288  0.2794  0.4971 -0.0400
    5MOL   H126 2854   1.926   1.764   5.570 -1.3597  0.5072 -0.3074
    5MOL   H127 2855   1.913   1.955   5.700 -0.3259  1.9338  0.4093
    5MOL   H128 2856   2.231   2.141   5.482 -0.9275  0.2555  2.4056
    5MOL   H129 2857   2.223   1.946   5.315 -0.3679 -0.5153 -0.6217
    5MOL   H130 2858   2.128   1.644   5.591 -1.5915  1.4738 -1.6763
    5MOL   H131 2859   2.228   1.421   5.661 -1.3509 -1.1213  0.3087
    5MOL   H132 2860   2.392   1.023   5.417 -0.6586  0.2360  0.9355
    5MOL   H133 2861   2.627   0.983   5.382 -0.5636  0.8203 -0.2623
    5MOL   H134 2862   2.728   1.361   5.568  0.7942  0.8347 -5.1339
    5MOL   H135 2863   2.467   1.401   5.592 -0.5678 -0.1866 -1.3548
    5MOL   H136 2864   2.227   1.276   5.263  0.4981  1.9802 -1.8909
    5MOL   H137 2865   2.117   1.493   5.184 -1.1967  0.0761  0.2718
    5MOL   C138 2866   2.974   0.812   5.509  0.3564 -0.1832 -0.3716
    5MOL   C139 2867   2.920   0.935   5.540  0.8277  0.0673  0.2631
    5MOL   C140 2868   2.895   1.032   5.443  0.0589 -0.5795 -0.1708
    5MOL   O141 2869   2.842   1.151   5.476  0.1185  0.4995  0.8556
    5MOL   C142 2870   2.929   1.001   5.310 -0.1466 -0.0564  0.0907
    5MOL   C143 2871   2.996   0.884   5.279 -0.1461 -0.7597  0.1087
    5MOL   C144 2872   3.034   0.792   5.383  0.0485 -0.9332  1.5547
    5MOL   C145 2873   3.106   0.666   5.343 -0.6189 -0.0382 -0.0316
    5MOL   O146 2874   3.066   0.584   5.258 -0.4102 -0.0661  0.3401
    5MOL   C147 2875   3.249   0.654   5.404  0.0800 -0.3804  0.7744
    5MOL   C148 2876   3.298   0.766   5.480 -0.9054  0.1394  0.3550
    5MOL   C149 2877   3.432   0.757   5.529  0.7763 -0.0390  0.2318
    5MOL   C150 2878   3.507   0.644   5.502  0.7762  0.2624  0.3371
    5MOL   O151 2879   3.630   0.629   5.551 -0.7574  0.5857  0.2187
    5MOL   C152 2880   3.729   0.726   5.554 -0.5159  1.1274  0.0708
    5MOL   C153 2881   3.832   0.718   5.455 -0.2377  0.7189  0.6338
    5MOL   C154 2882   3.942   0.808   5.462  0.4528 -0.5424 -0.7241
    5MOL   C155 2883   3.949   0.899   5.565  0.3996 -0.7487  0.6252
    5MOL   C156 2884   3.845   0.912   5.658  0.6171  0.5524 -0.0003
    5MOL   C157 2885   3.733   0.829   5.649  0.2633  0.2208  0.0856
    5MOL   C158 2886   3.463   0.539   5.421 -0.4572 -0.5381  0.6130
    5MOL   C159 2887   3.332   0.544   5.372 -0.2935 -0.3688  0.2964
    5MOL   H160 2888   2.997   0.737   5.584 -0.3584  1.9529  2.0414
    5MOL   H161 2889   2.876   0.953   5.638 -0.5092  4.8133 -1.0617
    5MOL   H162 2890   2.913   1.077   5.236  0.1936 -0.5592 -0.5047
    5MOL   H163 2891   3.037   0.875   5.179 -3.1324 -0.6086 -1.1787
    5MOL   H164 2892   3.241   0.857   5.491  0.0347  0.5055  2.3098
    5MOL   H165 2893   3.472   0.842   5.584 -0.0459 -0.5704  1.6975
    5MOL   H166 2894   3.822   0.635   5.386  0.7237  0.5973  0.6410
    5MOL   H167 2895   4.021   0.806   5.389  1.2769 -2.2987  0.1852
    5MOL   H168 2896   3.841   0.991   5.732  2.3680  1.4429 -0.8250
    5MOL   H169 2897   3.655   0.841   5.722 -0.2187  1.0546 -0.5650
    5MOL   H170 2898   3.531   0.461   5.388 -1.4214 -0.9967 -0.2926
    5MOL   H171 2899   3.298   0.472   5.299 -2.2123 -1.2068  1.9674
    5MOL   C172 2900   4.022   1.341   5.578 -0.4769  0.3264 -0.6793
    5MOL   C173 2901   4.018   1.207   5.530  0.1310  0.0745 -0.2685
    5MOL   C174 2902   4.047   1.100   5.622  0.8948  0.1634  0.4798
    5MOL   O175 2903   4.059   0.978   5.568  0.2985 -0.5038  0.4142
    5MOL   C176 2904   4.061   1.131   5.759  0.1042  0.1671 -0.1611
    5MOL   C177 2905   4.061   1.270   5.803  0.0797  0.4743  0.4503
    5MOL   C178 2906   4.036   1.376   5.713  1.0399 -0.2459  0.0246
    5MOL   C179 2907   4.032   1.519   5.768 -0.2935 -0.2195 -0.3657
    5MOL   O180 2908   3.939   1.598   5.741  0.6773 -0.6008 -0.0134
    5MOL   C181 2909   4.141   1.563   5.854 -0.0907 -0.1607  0.4643
    5MOL   C182 2910   4.118   1.674   5.941 -0.0508  0.3936  0.1730
    5MOL   C183 2911   4.226   1.725   6.016  0.3074 -0.2043 -0.0965
    5MOL   C184 2912   4.355   1.674   6.002  0.6437 -0.2534 -0.1262
    5MOL   O185 2913   4.461   1.719   6.083  0.1009  0.2416 -0.2466
    5MOL   C186 2914   4.490   1.853   6.087 -0.1773 -0.8283  0.1276
    5MOL   C187 2915   4.523   1.930   5.974 -0.3158 -0.4564  0.0115
    5MOL   C188 2916   4.564   2.062   5.983  0.4252 -0.1216 -0.3551
    5MOL   C189 2917   4.592   2.116   6.113  0.0687  0.2329 -0.1060
    5MOL   C190 2918   4.568   2.039   6.230  0.6139  0.5719  0.1718
    5MOL   C191 2919   4.512   1.912   6.216 -0.1793  0.4091 -0.2522
    5MOL   C192 2920   4.377   1.565   5.916  0.1304 -0.6230 -0.5512
    5MOL   C193 2921   4.272   1.515   5.842  0.1612 -0.2468  0.1266
    5MOL   H194 2922   3.992   1.422   5.513 -2.4568 -0.0876 -0.3011
    5MOL   H195 2923   4.013   1.193   5.423  0.3899  1.2661 -0.4477
    5MOL   H196 2924   4.073   1.046   5.823  2.6608  1.1807  0.7712
    5MOL   H197 2925   4.082   1.291   5.907  0.9470  1.5079  0.0764
    5MOL   H198 2926   4.015   1.699   5.961  0.6281  2.1305  1.5488
    5MOL   H199 2927   4.202   1.800   6.091 -1.5377  0.5722 -1.4211
    5MOL   H200 2928   4.497   1.889   5.878  0.7979 -0.4623 -0.2858
    5MOL   H201 2929   4.576   2.117   5.891  0.7535  0.8373  0.2497
    5MOL   H202 2930   4.595   2.085   6.324  0.9255 -2.7220  1.7402
    5MOL   H203 2931   4.496   1.851   6.304  2.0688 -0.1587 -0.1999
    5MOL   H204 2932   4.480   1.544   5.890  0.0539  0.4564 -1.7438
    5MOL   H205 2933   4.294   1.450   5.759 -0.5320  0.7210 -0.8265
    5MOL   C206 2934   4.976   2.375   6.196 -0.1357  0.7151  0.2544
    5MOL   C207 2935   4.839   2.334   6.214 -0.2322 -0.4443  0.1373
    5MOL   C208 2936   4.760   2.291   6.104  0.8707 -0.1709 -0.0469
    5MOL   O209 2937   4.622   2.250   6.119 -0.5814  0.9464 -0.4241
    5MOL   C210 2938   4.817   2.302   5.978 -0.0169 -0.0634  0.5796
    5MOL   C211 2939   4.950   2.343   5.954  0.0916  0.1757  0.1292
    5MOL   C212 2940   5.033   2.382   6.063 -0.5867  0.2160  0.2106
    5MOL   C213 2941   5.174   2.430   6.039  0.2514 -0.1285 -0.7075
    5MOL   O214 2942   5.215   2.460   5.925  0.1680  0.1058 -0.3678
    5MOL   C215 2943   5.266   2.452   6.160  0.3987 -0.1958  0.2225
    5MOL   C216 2944   5.340   2.573   6.174  0.3195  0.8770  0.1663
    5MOL   C217 2945   5.414   2.603   6.286 -0.2622 -0.8778 -0.0413
    5MOL   C218 2946   5.428   2.505   6.386 -0.5912 -0.4692  0.0072
    5MOL   O219 2947   5.496   2.528   6.506 -0.0669  0.4763  0.3094
    5MOL   C220 2948   5.423   2.588   6.605 -0.3173 -0.5176 -0.1422
    5MOL   C221 2949   5.354   2.515   6.705 -0.4826  1.1107  0.3170
    5MOL   C222 2950   5.272   2.576   6.795  0.6820  0.2511 -0.6522
    5MOL   C223 2951   5.264   2.719   6.797 -0.2835  0.0620  0.2047
    5MOL   C224 2952   5.334   2.798   6.706 -0.6112 -0.3837 -0.0682
    5MOL   C225 2953   5.425   2.734   6.617 -0.3688 -0.0875  0.7458
    5MOL   C226 2954   5.366   2.381   6.373  0.6097 -0.3380 -0.1229
    5MOL   C227 2955   5.287   2.356   6.260 -0.2676  0.0334 -0.6452
    5MOL   H228 2956   5.042   2.407   6.275  0.3330 -1.3917  0.7276
    5MOL   H229 2957   4.800   2.332   6.315 -2.2172  2.4989 -0.5045
    5MOL   H230 2958   4.752   2.277   5.896  3.0118 -1.6484 -1.4674
    5MOL   H231 2959   4.985   2.352   5.852  1.3283  0.7800  0.5915
    5MOL   H232 2960   5.330   2.655   6.104 -0.4037  2.5293  2.1669
    5MOL   H233 2961   5.469   2.695   6.300 -2.2902  0.7519 -2.3775
    5MOL   H234 2962   5.366   2.408   6.702 -0.2730  1.1875 -1.7891
    5MOL   H235 2963   5.219   2.525   6.874  1.9606  1.2286  0.8683
    5MOL   H236 2964   5.333   2.906   6.704 -0.2494 -0.3217  1.7586
    5MOL   H237 2965   5.492   2.802   6.567 -1.6698 -0.2743 -1.2738
    5MOL   H238 2966   5.368   2.322   6.463  0.7761 -0.1246  0.0130
    5MOL   H239 2967   5.237   2.261   6.248  0.4615 -0.2803 -1.2204
    5MOL   C240 2968   5.162   2.736   7.239 -0.0328  0.4459  0.8686
    5MOL   C241 2969   5.177   2.698   7.105  0.0607  0.2811 -0.6079
    5MOL   C242 2970   5.211   2.799   7.013 -0.1453 -0.1091 -0.2203
    5MOL   O243 2971   5.185   2.781   6.881  0.4479 -0.3341  0.4910
    5MOL   C244 2972   5.254   2.921   7.054  0.5300 -1.0211  0.1004
    5MOL   C245 2973   5.245   2.953   7.189 -0.4413  0.5629  0.1135
    5MOL   C246 2974   5.188   2.865   7.282  0.0901  0.6163  0.3741
    5MOL   C247 2975   5.156   2.911   7.420  0.2844 -0.0667  0.6000
    5MOL   O248 2976   5.051   2.880   7.475 -0.2081 -0.0690  0.2131
    5MOL   C249 2977   5.243   3.023   7.478 -0.3373  0.1900  0.0441
    5MOL   C250 2978   5.188   3.114   7.571  0.3040  0.2636 -0.4268
    5MOL   C251 2979   5.273   3.208   7.626 -0.5172 -0.2385 -0.1968
    5MOL   C252 2980   5.411   3.214   7.606  0.0906 -0.4740  0.3601
    5MOL   O253 2981   5.498   3.298   7.668  0.0891 -0.3765 -0.1792
    5MOL   C254 2982   5.463   3.351   7.786  0.6827 -0.0962 -0.5812
    5MOL   C255 2983   5.446   3.270   7.893  0.0039  0.2823  0.0357
    5MOL   C256 2984   5.405   3.331   8.012  0.0293  0.6830 -0.6237
    5MOL   C257 2985   5.370   3.468   8.022  0.1121  0.5734 -0.6058
    5MOL   C258 2986   5.389   3.548   7.914  0.8022 -0.5755  0.0724
    5MOL   C259 2987   5.440   3.492   7.792  0.3242  0.1537  0.4332
    5MOL   C260 2988   5.464   3.129   7.515 -0.5785  0.3860 -0.1012
    5MOL   C261 2989   5.382   3.028   7.457 -0.0687  0.0190 -1.0073
    5MOL   H262 2990   5.114   2.667   7.307 -0.1164 -0.5913 -0.2298
    5MOL   H263 2991   5.143   2.601   7.070 -0.8151  0.0104  0.9667
    5MOL   H264 2992   5.277   2.994   6.977 -0.2056 -1.0730 -0.1791
    5MOL   H265 2993   5.271   3.055   7.215  1.2964 -0.1250  1.1398
    5MOL   H266 2994   5.088   3.098   7.609  1.0411 -0.4048  1.2771
    5MOL   H267 2995   5.222   3.265   7.702 -2.0412  1.4228 -2.3951
    5MOL   H268 2996   5.466   3.164   7.897  2.5632  0.6653 -1.7045
    5MOL   H269 2997   5.401   3.258   8.091 -2.2503  0.4011 -0.9827
    5MOL   H270 2998   5.368   3.655   7.911  1.5141 -0.4658 -1.2087
    5MOL   H271 2999   5.441   3.555   7.705 -1.2512 -1.4660 -0.7993
    5MOL   H272 3000   5.565   3.128   7.478 -1.7844  1.8076 -3.6973
    5MOL   H273 3001   5.425   2.959   7.386  1.2606 -0.1123 -0.1016
    5MOL   C274 3002   4.954   3.394   8.081  0.0467 -1.4534 -0.6180
    5MOL   C275 3003   5.086   3.428   8.052 -0.2611 -0.0293 -0.0040
    5MOL   C276 3004   5.168   3.475   8.158 -0.2077 -0.8708 -0.5604
    5MOL   O277 3005   5.300   3.510   8.136  0.0483  0.1688 -0.6689
    5MOL   C278 3006   5.120   3.497   8.289 -0.4023  0.6849 -0.3036
    5MOL   C279 3007   4.992   3.451   0.007 -0.1370 -0.2621 -0.4844
    5MOL   C280 3008   4.907   3.397   8.215  0.5472 -0.7755 -0.8064
    5MOL   C281 3009   4.770   3.359   8.253  0.2541 -0.1304  0.1633
    5MOL   O282 3010   4.674   3.435   8.229  0.0563  0.4582 -0.5640
    5MOL   C283 3011   4.745   3.220   8.294 -0.3026  0.4792  0.1089
    5MOL   C284 3012   4.630   3.187   0.054 -0.6759  0.4470  0.2389
    5MOL   C285 3013   4.600   3.051   0.089 -0.5047 -0.2335 -0.0928
    5MOL   C286 3014   4.690   2.949   0.062 -0.3894 -0.3757 -0.0007
    5MOL   O287 3015   4.670   2.825   0.116  0.2991  0.5101  0.1566
    5MOL   C288 3016   4.705   2.718   0.038 -0.0768 -0.7550  0.4116
    5MOL   C289 3017   4.650   2.716   8.221  0.2339  0.2370 -0.6047
    5MOL   C290 3018   4.678   2.608   8.131 -0.1137 -0.8012 -0.0760
    5MOL   C291 3019   4.766   2.507   8.172 -0.3218 -0.2040 -0.4470
    5MOL   C292 3020   4.809   2.506   8.308 -0.1410 -0.4513 -0.3847
    5MOL   C293 3021   4.784   2.614   0.083  0.8496  0.2670  0.2160
    5MOL   C294 3022   4.809   2.980   8.295  0.0939 -0.3114  0.0468
    5MOL   C295 3023   4.837   3.116   8.256  0.1814  0.3404  0.8713
    5MOL   H296 3024   4.881   3.362   8.008 -1.6353 -0.2305  0.4802
    5MOL   H297 3025   5.124   3.423   7.951  0.6634  1.5466  0.2524
    5MOL   H298 3026   5.188   3.528   0.055  0.0105  0.7341 -0.6756
    5MOL   H299 3027   4.942   3.455   0.102 -2.9660 -0.2599 -1.9171
    5MOL   H300 3028   4.561   3.265   0.082  0.5930  0.8168  2.4308
    5MOL   H301 3029   4.518   3.020   0.151  2.2591  1.3713  4.7147
    5MOL   H302 3030   4.586   2.801   8.197  1.3731  1.1846 -0.3221
    5MOL   H303 3031   4.635   2.605   8.033  0.4240  3.7009 -0.5425
    5MOL   H304 3032   4.858   2.422   0.043  1.0731  0.4375 -0.0484
    5MOL   H305 3033   4.816   2.623   0.186 -0.7839 -0.7162  0.8140
    5MOL   H306 3034   4.878   2.899   8.277 -1.2064 -1.3286 -0.3714
    5MOL   H307 3035   4.926   3.137   8.199  0.7973 -0.7529  1.4201
    5MOL   C308 3036   4.636   2.196   7.841  0.5463 -0.8188 -0.7930
    5MOL   C309 3037   4.724   2.287   7.898  0.7096  0.0970 -0.6929
    5MOL   C310 3038   4.703   2.332   8.029 -0.4025  0.1402 -0.0675
    5MOL   O311 3039   4.801   2.407   8.085 -0.2691 -0.2544  0.2602
    5MOL   C312 3040   4.579   2.311   8.094  0.1674  0.2054  0.2906
    5MOL   C313 3041   4.481   2.231   8.030 -0.0719 -0.0854 -0.1385
    5MOL   C314 3042   4.509   2.173   7.904  0.1596  0.6036  0.5378
    5MOL   C315 3043   4.401   2.103   7.834  0.9994  0.5687 -0.3137
    5MOL   O316 3044   4.285   2.140   7.839 -0.6622  0.8764 -0.2810
    5MOL   C317 3045   4.433   1.988   7.750 -0.2554  0.5057 -0.3678
    5MOL   C318 3046   4.407   1.985   7.606 -0.0865  0.4051  0.1489
    5MOL   C319 3047   4.438   1.868   7.534 -0.1284  0.7617  0.3289
    5MOL   C320 3048   4.484   1.751   7.598 -0.7835 -0.1884 -0.7721
    5MOL   O321 3049   4.497   1.639   7.523 -0.1795 -0.2231  0.0880
    5MOL   C322 3050   4.623   1.598   7.508 -0.0650 -0.1444 -0.4110
    5MOL   C323 3051   4.691   1.638   7.392 -0.9956 -0.1717 -0.4980
    5MOL   C324 3052   4.820   1.586   7.362  0.0198 -0.1521 -0.2038
    5MOL   C325 3053   4.863   1.471   7.436 -0.9125 -0.2510 -0.1405
    5MOL   C326 3054   4.800   1.431   7.556  0.8257  0.2866 -0.4085
    5MOL   C327 3055   4.681   1.498   7.593 -0.4051  0.0444 -0.2170
    5MOL   C328 3056   4.497   1.749   7.740  0.3839  0.5329 -0.2077
    5MOL   C329 3057   4.474   1.868   7.810 -0.0565  0.0923 -0.1474
    5MOL   H330 3058   4.657   2.154   7.743 -0.3863 -0.5482 -1.1134
    5MOL   H331 3059   4.811   2.309   7.838 -0.0145  0.7008 -1.5494
    5MOL   H332 3060   4.552   2.353   8.190  1.5693 -2.0518  1.7021
    5MOL   H333 3061   4.383   2.225   8.075 -0.6802  1.6641 -1.1406
    5MOL   H334 3062   4.372   2.072   7.553 -1.6449  0.1375  0.7244
    5MOL   H335 3063   4.422   1.870   7.427  1.8406 -0.7866 -0.0319
    5MOL   H336 3064   4.640   1.710   7.330  0.8980  0.9291 -0.7972
    5MOL   H337 3065   4.880   1.608   7.275 -0.6813 -2.2082 -1.2464
    5MOL   H338 3066   4.838   1.355   7.623 -1.2031  0.4214  0.9344
    5MOL   H339 3067   4.627   1.469   7.682 -1.0359  0.2948 -0.5088
    5MOL   H340 3068   4.530   1.657   7.786 -1.0586  0.8247  1.4146
    5MOL   H341 3069   4.480   1.869   7.917 -1.1004 -1.1227 -0.0713
    5MOL   C342 3070   4.858   1.090   7.257  0.0802  0.4422 -0.0477
    5MOL   C343 3071   4.852   1.219   7.319 -0.2201 -0.1178 -0.3907
    5MOL   C344 3072   4.978   1.281   7.356  0.3753  0.3544  0.5101
    5MOL   O345 3073   4.982   1.407   7.407 -0.7829 -0.1261 -0.2240
    5MOL   C346 3074   5.096   1.204   7.356  0.3567  0.0807  0.6125
    5MOL   C347 3075   5.100   1.074   7.301 -0.6232  0.2812 -0.2119
    5MOL   C348 3076   4.979   1.024   7.240 -0.4039  0.0279  0.0525
    5MOL   C349 3077   4.981   0.880   7.203 -0.2340  0.0014 -0.4671
    5MOL   O350 3078   5.047   0.804   7.275 -0.3572  0.0476  0.0721
    5MOL   C351 3079   4.937   0.833   7.068 -0.5119 -0.0817 -0.2321
    5MOL   C352 3080   4.880   0.924   6.969  0.1384 -0.2772 -0.6292
    5MOL   C353 3081   4.849   0.880   6.836  0.2855 -0.1786 -0.2770
    5MOL   C354 3082   4.865   0.741   6.808  0.6436  0.3597  0.0180
    5MOL   O355 3083   4.835   0.699   6.681  0.2309  0.0892 -0.6991
    5MOL   C356 3084   4.940   0.633   6.612 -0.7341 -0.3706  0.1724
    5MOL   C357 3085   4.913   0.527   6.520 -0.2378 -0.2532 -0.1032
    5MOL   C358 3086   5.009   0.472   6.438  0.4479  0.6246 -0.4033
    5MOL   C359 3087   5.140   0.496   6.468 -0.2924  0.4198  0.6211
    5MOL   C360 3088   5.174   0.585   6.574 -0.3642  0.5706 -0.1735
    5MOL   C361 3089   5.074   0.661   6.635 -0.1516  0.7242 -0.3306
    5MOL   C362 3090   4.910   0.648   6.901 -0.3549  0.3939 -0.1448
    5MOL   C363 3091   4.953   0.695   7.028  0.2704 -0.0622 -0.0311
    5MOL   H364 3092   4.764   1.046   7.226 -0.6711  0.9562  1.4833
    5MOL   H365 3093   4.759   1.265   7.348 -0.2549 -0.9620  0.8650
    5MOL   H366 3094   5.189   1.244   7.395  0.8061  0.2320 -0.5770
    5MOL   H367 3095   5.195   1.024   7.289  0.1193  1.3282  1.1412
    5MOL   H368 3096   4.875   1.030   6.988 -0.2317 -0.3584 -0.2618
    5MOL   H369 3097   4.809   0.945   6.760 -0.5496 -1.0137 -0.5602
    5MOL   H370 3098   4.813   0.505   6.486  0.7686 -0.1700 -3.2228
    5MOL   H371 3099   4.977   0.417   6.351  2.1974  0.0446 -0.6955
    5MOL   H372 3100   5.276   0.608   6.601 -0.4863 -0.8046  1.5641
    5MOL   H373 3101   5.103   0.739   6.704 -2.1320 -0.1518  1.5365
    5MOL   H374 3102   4.922   0.546   6.868  1.1329  0.3844  0.4043
    5MOL   H375 3103   4.995   0.625   7.099 -2.0027 -1.9239 -0.4958
    5MOL   C376 3104   5.528   0.614   6.286  1.0882 -0.2074  0.7863
    5MOL   C377 3105   5.392   0.574   6.302 -1.0652  0.2257 -0.1140
    5MOL   C378 3106   5.359   0.463   6.382 -0.0530 -0.7563  0.2625
    5MOL   O379 3107   5.233   0.420   6.398  0.2293  0.2746 -0.2851
    5MOL   C380 3108   5.465   0.396   6.446  0.2333 -0.0558 -0.0552
    5MOL   C381 3109   5.599   0.432   6.422  0.1747  0.3784 -0.3575
    5MOL   C382 3110   5.632   0.545   6.354  0.2782 -0.6057 -0.0437
    5MOL   C383 3111   5.775   0.586   6.336 -0.0298  0.4191  0.2088
    5MOL   O384 3112   5.819   0.644   6.238  0.1408  0.4810 -0.6231
    5MOL   C385 3113   5.864   0.546   6.453  0.3152 -0.1968 -0.1544
    5MOL   C386 3114   5.974   0.462   6.420 -0.3289 -0.5512 -0.0571
    5MOL   C387 3115   6.056   0.410   6.524  0.1946  0.0645  0.4713
    5MOL   C388 3116   6.031   0.445   6.654  0.0459 -0.1335 -0.0838
    5MOL   O389 3117   6.101   0.392   6.757 -0.0857 -0.2161 -0.1288
    5MOL   C390 3118   6.239   0.384   6.750 -0.1779 -0.4123  1.2626
    5MOL   C391 3119   6.303   0.256   6.757 -0.5799  0.1317 -0.2225
    5MOL   C392 3120   6.448   0.249   6.743  0.1081  0.2623 -0.8031
    5MOL   C393 3121   6.524   0.370   6.716  0.3004 -0.2015 -0.8885
    5MOL   C394 3122   6.459   0.498   6.716  0.2163  0.4202 -0.4073
    5MOL   C395 3123   6.317   0.501   6.737 -0.7169  0.1924  0.0656
    5MOL   C396 3124   5.915   0.527   6.685 -0.1526 -0.0310 -0.4033
    5MOL   C397 3125   5.829   0.580   6.582 -0.5543  0.2864 -0.5477
    5MOL   H398 3126   5.558   0.690   6.216  2.1900 -0.0496  1.4223
    5MOL   H399 3127   5.315   0.623   6.244 -0.9159 -0.6539 -1.0641
    5MOL   H400 3128   5.444   0.307   6.503 -2.5965 -0.9498 -2.3286
    5MOL   H401 3129   5.674   0.367   6.465 -0.7156 -0.7651 -0.4800
    5MOL   H402 3130   5.993   0.429   6.319 -0.9921 -0.4549 -0.2178
    5MOL   H403 3131   6.140   0.351   6.491  0.4683  0.8661 -0.2835
    5MOL   H404 3132   6.249   0.164   6.776 -0.2397  0.2838  1.6103
    5MOL   H405 3133   6.503   0.157   6.747 -0.1696  0.1532  2.0292
    5MOL   H406 3134   6.508   0.594   6.706  0.2917  1.0021  4.2035
    5MOL   H407 3135   6.263   0.594   6.746 -0.6365  0.2759 -0.2996
    5MOL   H408 3136   5.908   0.550   6.790 -0.0032 -0.6644 -0.2510
    5MOL   H409 3137   5.740   0.639   6.594 -0.9240  0.0059 -1.7971
    5MOL   C410 3138   6.649   0.331   6.328 -0.3690 -0.7440  0.6855
    5MOL   C411 3139   6.634   0.300   6.465 -0.0884 -0.0762 -0.0028
    5MOL   C412 3140   6.703   0.374   6.561  0.4010 -0.0210  0.8003
    5MOL   O413 3141   6.658   0.366   6.690 -0.1589 -0.3004  0.2617
    5MOL   C414 3142   6.797   0.470   6.524  0.1995  0.2006 -0.5718
    5MOL   C415 3143   6.822   0.490   6.389 -0.2965  0.1227  0.3596
    5MOL   C416 3144   6.749   0.419   6.286 -0.2828 -0.9013 -0.1576
    5MOL   C417 3145   6.785   0.456   6.145  0.2091  0.0299  0.1863
    5MOL   O418 3146   6.880   0.528   6.121 -0.0838 -0.0872 -0.4620
    5MOL   C419 3147   6.694   0.400   6.037 -0.1363  0.2524  0.4927
    5MOL   C420 3148   6.567   0.453   6.014  0.2885 -0.2811 -0.3952
    5MOL   C421 3149   6.492   0.409   5.901  0.2903  0.6172  0.1955
    5MOL   C422 3150   6.534   0.303   5.820 -0.2093  0.1652 -0.3728
    5MOL   O423 3151   6.452   0.259   5.713  0.1524  0.2014 -0.4284
    5MOL   C424 3152   6.497   0.289   5.585 -0.4610  0.5743  0.0883
    5MOL   C425 3153   6.489   0.178   5.492 -0.5155  0.2665 -1.0880
    5MOL   C426 3154   6.507   0.208   5.355  0.2310  0.3755  0.0308
    5MOL   C427 3155   6.546   0.338   5.314 -0.5417 -0.0233 -1.0337
    5MOL   C428 3156   6.555   0.442   5.409  0.4608 -0.0814  0.0106
    5MOL   C429 3157   6.532   0.420   5.544 -0.2700 -0.6061  0.3279
    5MOL   C430 3158   6.663   0.246   5.844 -0.2797 -0.8293  0.0505
    5MOL   C431 3159   6.740   0.301   5.948 -0.5110 -1.1203 -0.5320
    5MOL   H432 3160   6.585   0.277   6.260  0.4705  0.1584 -0.8512
    5MOL   H433 3161   6.561   0.239   6.515 -0.2740 -0.9355 -1.2823
    5MOL   H434 3162   6.853   0.527   6.597  0.3188 -1.0093  0.3003
    5MOL   H435 3163   6.890   0.571   6.368  0.5209  0.3221  3.6015
    5MOL   H436 3164   6.537   0.533   6.080  4.0939  0.3568  0.6544
    5MOL   H437 3165   6.400   0.463   5.884  0.9645  1.3301 -1.3021
    5MOL   H438 3166   6.464   0.076   5.516  0.8228  0.1659 -0.0458
    5MOL   H439 3167   6.499   0.133   5.278 -1.8216  0.0909  0.4992
    5MOL   H440 3168   6.589   0.542   5.386 -3.0307  1.1926  0.0995
    5MOL   H441 3169   6.549   0.506   5.608 -2.4428  0.3900 -0.3820
    5MOL   H442 3170   6.701   0.172   5.775  0.6602  2.0308 -2.6260
    5MOL   H443 3171   6.845   0.278   5.950 -0.2758 -0.1528 -1.4618
    5MOL   C444 3172   6.306   0.571   5.013  0.2493  0.6210  1.0273
    5MOL   C445 3173   6.428   0.536   5.069 -0.6235  0.0012  0.6612
    5MOL   C446 3174   6.451   0.400   5.114  0.2972  0.2380  0.2812
    5MOL   O447 3175   6.564   0.363   5.181 -0.0894 -0.1748  0.2440
    5MOL   C448 3176   6.348   0.312   5.111  0.6360  0.5758  0.5343
    5MOL   C449 3177   6.220   0.354   5.062  0.5056 -0.3681 -0.1330
    5MOL   C450 3178   6.196   0.482   5.013 -0.4886 -0.6455 -0.7123
    5MOL   C451 3179   6.061   0.526   4.974  0.7305 -0.1706  0.2405
    5MOL   O452 3180   6.035   0.646   4.969 -0.1714  0.5599  0.0779
    5MOL   C453 3181   5.958   0.433   4.928  1.2371 -0.6791  0.2464
    5MOL   C454 3182   5.824   0.463   4.954 -0.5706 -0.1883  0.2364
    5MOL   C455 3183   5.719   0.376   4.911 -0.1713 -0.2462  0.5225
    5MOL   C456 3184   5.750   0.253   4.845 -0.4576  0.6094  0.0573
    5MOL   O457 3185   5.647   0.174   4.806  0.0872 -0.6295 -0.2508
    5MOL   C458 3186   5.616   0.158   4.675  0.6610  0.4805 -0.5171
    5MOL   C459 3187   5.548   0.047   4.624  0.3674 -0.1360  0.0245
    5MOL   C460 3188   5.547   0.019   4.483  0.0055 -0.5458  0.2633
    5MOL   C461 3189   5.581   0.123   4.396 -0.4053  0.5208 -0.2765
    5MOL   C462 3190   5.642   0.239   4.446 -0.3106 -0.1006 -1.4133
    5MOL   C463 3191   5.661   0.255   4.585  0.2274  0.0022  0.7169
    5MOL   C464 3192   5.888   0.219   4.816  0.4770 -0.4631 -0.7141
    5MOL   C465 3193   5.985   0.316   4.848 -0.1396 -0.2765  0.1544
    5MOL   H466 3194   6.291   0.672   4.979  0.6372 -0.1770 -1.6701
    5MOL   H467 3195   6.505   0.612   5.077 -1.2840  0.8935 -1.2639
    5MOL   H468 3196   6.350   0.214   5.155  1.3064  1.4648  2.5108
    5MOL   H469 3197   6.139   0.284   5.080 -0.1179  0.1569 -0.8506
    5MOL   H470 3198   5.810   0.547   5.020  3.7895  1.5373 -0.8967
    5MOL   H471 3199   5.618   0.390   4.946 -0.6956  0.2097 -1.1526
    5MOL   H472 3200   5.509   8.296   4.702  1.3706 -0.1926  0.4870
    5MOL   H473 3201   5.508   8.238   4.446  2.0455 -0.8248 -1.2891
    5MOL   H474 3202   5.663   0.329   4.391 -1.1261  1.1131  0.2127
    5MOL   H475 3203   5.699   0.353   4.612 -0.2756  0.7767 -1.2726
    5MOL   H476 3204   5.911   0.132   4.757 -0.1255 -0.9502 -0.2340
    5MOL   H477 3205   6.086   0.301   4.813  0.2713 -1.1763  1.6731
    5MOL   C478 3206   5.897   8.292   4.097 -0.2040  0.5541 -0.1706
    5MOL   C479 3207   5.806   0.071   4.157  0.2300  0.0669 -0.3810
    5MOL   C480 3208   5.676   0.024   4.205  0.3948 -0.7015 -0.6626
    5MOL   O481 3209   5.582   0.104   4.262  0.0962  0.3129 -0.1049
    5MOL   C482 3210   5.645   8.202   4.195 -0.5009 -0.4178  0.1096
    5MOL   C483 3211   5.724   8.113   4.125  0.5792 -0.1002  0.2557
    5MOL   C484 3212   5.852   8.156   4.083 -0.4504  0.6635  0.5891
    5MOL   C485 3213   5.951   8.059   4.024  0.5000 -0.6067  0.1166
    5MOL   O486 3214   6.050   8.103   3.958  0.1307 -0.0821  0.2143
    5MOL   C487 3215   5.924   7.914   4.039  0.2693 -0.3906 -0.1034
    5MOL   C488 3216   5.925   7.847   4.161  0.4681  0.3243  0.0442
    5MOL   C489 3217   5.886   7.712   4.172  0.0894 -0.3185 -0.0025
    5MOL   C490 3218   5.839   7.639   4.060 -0.3724 -0.0125  0.2008
    5MOL   O491 3219   5.799   7.511   4.068  0.3481  0.2549  0.1175
    5MOL   C492 3220   5.903   7.418   4.079  0.5087 -0.9827  0.5823
    5MOL   C493 3221   5.972   7.370   3.967  0.4844  0.2865  0.3780
    5MOL   C494 3222   6.076   7.277   3.983  0.0928  0.4772 -0.1269
    5MOL   C495 3223   6.112   7.238   4.117 -0.0992 -0.1169 -0.3034
    5MOL   C496 3224   6.037   7.285   4.233  0.2190 -0.5428 -0.2173
    5MOL   C497 3225   5.939   7.385   4.211  0.0137 -0.1989 -0.0053
    5MOL   C498 3226   5.850   7.699   3.930  0.1606  0.3630 -0.4169
    5MOL   C499 3227   5.900   7.836   3.923  0.0062  0.1131  0.2087
    5MOL   H500 3228   5.996   0.004   4.063 -0.1507 -0.5563 -0.8463
    5MOL   H501 3229   5.828   0.177   4.163 -2.0352  0.4351  3.9775
    5MOL   H502 3230   5.554   8.160   4.234 -1.1263  0.8072  0.0077
    5MOL   H503 3231   5.684   8.012   4.126  1.4364 -0.4396  2.5066
    5MOL   H504 3232   5.954   7.893   4.255  1.5685 -2.2637  1.0306
    5MOL   H505 3233   5.889   7.658   4.265  0.1702  1.0000  0.7559
    5MOL   H506 3234   5.939   7.406   3.871 -0.3308  1.1673  0.9805
    5MOL   H507 3235   6.118   7.236   3.892 -0.3190  1.9207 -0.9749
    5MOL   H508 3236   6.058   7.246   4.331  0.1765 -1.3872 -0.5361
    5MOL   H509 3237   5.893   7.431   4.296 -0.9311 -0.1471 -0.5395
    5MOL   H510 3238   5.810   7.651   3.842 -0.5596  2.5308 -1.3110
    5MOL   H511 3239   5.900   7.892   3.830 -3.0253  0.3745  0.2922
    5MOL   C512 3240   6.271   6.796   4.097 -0.3623 -0.5998 -0.1083
    5MOL   C513 3241   6.297   6.935   4.117 -0.4125 -0.6067 -0.1539
    5MOL   C514 3242   6.187   7.015   4.122  0.4398  0.5541  0.2991
    5MOL   O515 3243   6.212   7.147   4.151 -0.3721 -0.0105  0.7625
    5MOL   C516 3244   6.057   6.959   4.109  0.2542 -0.0911  0.2812
    5MOL   C517 3245   6.036   6.822   4.090 -0.6301 -0.1785  0.0669
    5MOL   C518 3246   6.149   6.736   4.082 -0.5043  0.2331 -0.2995
    5MOL   C519 3247   6.138   6.589   4.076  0.4118  0.2960 -0.0230
    5MOL   O520 3248   6.220   6.528   4.005 -0.1966  0.3642  0.0542
    5MOL   C521 3249   6.024   6.525   4.142 -1.0417  0.1935  0.2741
    5MOL   C522 3250   5.984   6.406   4.082 -0.6280  0.2737 -0.2131
    5MOL   C523 3251   5.864   6.341   4.126 -0.2379 -0.2533  0.1914
    5MOL   C524 3252   5.783   6.405   4.223  0.5380  1.2950 -0.2685
    5MOL   O525 3253   5.664   6.346   4.272 -0.3422 -0.4947 -0.8062
    5MOL   C526 3254   5.555   6.335   4.185  0.7049  0.3662 -0.4567
    5MOL   C527 3255   5.479   6.446   4.135 -0.0741  0.0828  0.3199
    5MOL   C528 3256   5.369   6.426   4.047  0.2004  0.1799  0.4795
    5MOL   C529 3257   5.354   6.299   3.983 -0.0599 -0.3923 -0.1006
    5MOL   C530 3258   5.435   6.191   4.023  0.1453 -0.3372 -0.1574
    5MOL   C531 3259   5.530   6.210   4.120 -0.0362  0.2196 -0.3763
    5MOL   C532 3260   5.827   6.522   4.289 -0.1719  0.0962  0.6854
    5MOL   C533 3261   5.945   6.584   4.246 -0.6206  0.2813  0.4927
    5MOL   H534 3262   6.360   6.735   4.100  0.4590  0.6431  2.0891
    5MOL   H535 3263   6.391   6.979   4.146  0.5674 -2.1686 -0.9408
    5MOL   H536 3264   5.967   7.017   4.115 -0.7803 -1.5568 -0.7242
    5MOL   H537 3265   5.936   6.782   4.081 -0.2904 -1.3123  1.1458
    5MOL   H538 3266   6.034   6.361   3.998 -1.8918 -0.5173 -0.5638
    5MOL   H539 3267   5.834   6.245   4.088 -3.0877  0.6944 -0.1183
    5MOL   H540 3268   5.504   6.544   4.172 -2.2720  1.1688 -0.9538
    5MOL   H541 3269   5.301   6.505   4.020  1.2966  0.1693 -2.5020
    5MOL   H542 3270   5.426   6.104   3.959  2.5933 -0.7950  0.0621
    5MOL   H543 3271   5.603   6.135   4.145  0.4770  0.7544 -0.2645
    5MOL   H544 3272   5.775   6.570   4.370  0.4059  2.4745 -0.3143
    5MOL   H545 3273   5.969   6.685   4.278 -0.2592 -0.2353  1.8900
    5MOL   C546 3274   4.929   6.208   4.064 -0.3683 -0.1808 -0.4043
    5MOL   C547 3275   5.060   6.260   4.040  0.0260 -0.1848  0.0449
    5MOL   C548 3276   5.131   6.229   3.920  0.0170  0.2942  0.3390
    5MOL   O549 3277   5.257   6.282   3.888 -0.4622 -0.1541  0.4958
    5MOL   C550 3278   5.070   6.136   3.832 -0.5514 -0.5198 -0.2301
    5MOL   C551 3279   4.942   6.090   3.862 -0.5028  0.2988 -0.1054
    5MOL   C552 3280   4.864   6.128   3.974 -0.4605  0.7682  0.1795
    5MOL   C553 3281   4.729   6.069   3.998 -0.0623  0.2597 -0.0652
    5MOL   O554 3282   4.670   6.084   4.101 -0.1608  0.2747 -0.6412
    5MOL   C555 3283   4.668   5.991   3.886 -0.6339 -0.8201 -0.2200
    5MOL   C556 3284   4.671   5.851   3.899  0.1963 -0.2993 -0.3357
    5MOL   C557 3285   4.629   5.768   3.786 -0.8575 -0.2817 -0.8726
    5MOL   C558 3286   4.583   5.835   3.672  0.1694 -0.7778 -0.3121
    5MOL   O559 3287   4.530   5.754   3.575 -0.0431  0.0766  0.6842
    5MOL   C560 3288   4.543   5.791   3.436 -0.1801 -0.0115  0.4228
    5MOL   C561 3289   4.441   5.858   3.373  0.5943 -0.3111 -0.0338
    5MOL   C562 3290   4.462   5.930   3.255  0.5838 -0.2761 -0.2103
    5MOL   C563 3291   4.584   5.922   3.188  0.2910  0.3697 -0.2384
    5MOL   C564 3292   4.692   5.853   3.247  0.4004 -0.0138 -0.1858
    5MOL   C565 3293   4.672   5.787   3.373 -0.4584  0.6302  0.4929
    5MOL   C566 3294   4.579   5.974   3.663 -0.1721 -0.3926  0.3904
    5MOL   C567 3295   4.628   6.056   3.768  0.4662 -0.4332  0.4303
    5MOL   H568 3296   4.895   6.217   4.167  1.8310  1.8522  0.2027
    5MOL   H569 3297   5.100   6.322   4.119 -0.4716 -0.8883  0.8659
    5MOL   H570 3298   5.113   6.091   3.744  1.6259 -0.8398  0.9706
    5MOL   H571 3299   4.916   6.009   3.796  1.8310 -0.0673 -0.6207
    5MOL   H572 3300   4.715   5.811   3.989  2.0636  2.7325  0.1821
    5MOL   H573 3301   4.637   5.661   3.790 -0.9825 -0.2335  1.2880
    5MOL   H574 3302   4.344   5.868   3.419 -0.1149 -1.8153 -1.1624
    5MOL   H575 3303   4.379   5.986   3.214  1.4579  1.1347 -0.0845
    5MOL   H576 3304   4.791   5.861   3.207  0.3212  1.3415 -0.1477
    5MOL   H577 3305   4.754   5.732   3.414 -1.1881  0.9706  2.4369
    5MOL   H578 3306   4.540   6.018   3.573 -2.4741 -3.1796 -0.0165
    5MOL   H579 3307   4.624   6.164   3.768 -0.4301 -0.4647 -0.9542
    5MOL   C580 3308   4.339   5.854   2.850  0.6491  0.1244 -0.2515
    5MOL   C581 3309   4.428   5.859   2.956 -0.3983 -0.1869 -0.8527
    5MOL   C582 3310   4.513   5.967   2.964  0.0128 -0.2835 -0.2266
    5MOL   O583 3311   4.604   5.985   3.070  0.7639 -0.2512 -0.2512
    5MOL   C584 3312   4.509   6.068   2.868  0.4865 -0.9622 -0.5152
    5MOL   C585 3313   4.418   6.057   2.758  0.5043 -0.3954  0.6308
    5MOL   C586 3314   4.334   5.949   2.750  1.0876 -0.0471  0.0058
    5MOL   C587 3315   4.244   5.939   2.635 -0.2614  0.3023  0.2844
    5MOL   O588 3316   4.282   5.949   2.521  0.4912  0.2954  0.2112
    5MOL   C589 3317   4.098   5.923   2.667  1.2407  1.1641 -0.8695
    5MOL   C590 3318   4.023   5.817   2.608  0.6278 -0.4675 -0.3716
    5MOL   C591 3319   3.887   5.801   2.639  0.2075 -0.4788 -0.1832
    5MOL   C592 3320   3.819   5.899   2.718 -0.2178 -0.0965 -0.4693
    5MOL   O593 3321   3.695   5.890   2.765 -0.3103  0.1390  0.0200
    5MOL   C594 3322   3.661   5.785   2.840  0.2019  0.4094 -1.1004
    5MOL   C595 3323   3.609   5.666   2.790  0.4978  0.9387 -0.2050
    5MOL   C596 3324   3.567   5.565   2.883 -0.1615  0.5282  0.1566
    5MOL   C597 3325   3.563   5.594   3.022 -0.0880 -0.5755  0.0305
    5MOL   C598 3326   3.632   5.710   3.071 -0.0963  0.1264 -0.5537
    5MOL   C599 3327   3.673   5.805   2.977  0.6699  0.2374  1.0541
    5MOL   C600 3328   3.890   6.002   2.770  0.3889  0.1948 -1.0274
    5MOL   C601 3329   4.032   6.014   2.758  0.5491 -0.0914 -0.0810
    5MOL   H602 3330   4.271   5.770   2.845  0.4173  0.3173 -0.3623
    5MOL   H603 3331   4.438   5.771   3.017 -3.1478  0.3275  0.4078
    5MOL   H604 3332   4.563   6.160   2.877 -1.4922  0.2193 -0.4207
    5MOL   H605 3333   4.403   6.133   2.683 -1.7509 -2.2360 -0.8628
    5MOL   H606 3334   4.059   5.753   2.529 -0.9682 -1.3261 -0.4399
    5MOL   H607 3335   3.837   5.717   2.594 -0.8574 -0.3625  0.7586
    5MOL   H608 3336   3.596   5.650   2.684 -1.5168 -2.4367  0.4728
    5MOL   H609 3337   3.527   5.469   2.855 -0.7733  0.8836 -0.1864
    5MOL   H610 3338   3.649   5.722   3.177  3.3276 -1.7678 -0.8230
    5MOL   H611 3339   3.708   5.903   3.007 -2.7531  2.2164 -1.0964
    5MOL   H612 3340   3.844   6.069   2.842  0.8884 -0.0869 -0.4376
    5MOL   H613 3341   4.099   6.083   2.807 -0.9948 -0.3022  2.3843
    5MOL   C614 3342   3.334   5.203   3.003  0.8651  0.0032 -1.1738
    5MOL   C615 3343   3.438   5.288   3.040  0.1690  0.7022 -0.2390
    5MOL   C616 3344   3.414   5.425   3.079  0.4721  0.5278 -0.3586
    5MOL   O617 3345   3.507   5.512   3.115  0.2376  0.1906  0.1606
    5MOL   C618 3346   3.281   5.471   3.070 -0.2824 -0.0812 -0.3042
    5MOL   C619 3347   3.179   5.389   3.021 -0.3697  0.4180 -0.1923
    5MOL   C620 3348   3.203   5.256   2.988  0.0803 -0.3076 -0.5081
    5MOL   C621 3349   3.090   5.163   2.964  0.4398  0.4673  0.1644
    5MOL   O622 3350   3.006   5.154   3.049  0.1548  0.3339 -0.2524
    5MOL   C623 3351   3.095   5.083   2.835  0.2669 -0.4711 -0.7730
    5MOL   C624 3352   3.197   5.103   2.747  0.1578 -0.4577 -0.8926
    5MOL   C625 3353   3.194   5.044   2.617  0.8634  0.2483  0.4035
    5MOL   C626 3354   3.078   4.972   2.581 -0.1017  0.3132  0.1550
    5MOL   O627 3355   3.086   4.906   2.460  0.0953 -0.5276  0.2096
    5MOL   C628 3356   2.989   4.932   2.367 -0.0324 -0.3114 -0.1530
    5MOL   C629 3357   2.883   4.842   2.347 -0.3205 -0.1229  0.4939
    5MOL   C630 3358   2.786   4.862   2.249  0.8351  0.3363 -0.5515
    5MOL   C631 3359   2.795   4.977   2.169  0.3134  0.3989  0.0856
    5MOL   C632 3360   2.900   5.070   2.185  0.6716  0.0385  0.0003
    5MOL   C633 3361   2.999   5.048   2.289 -0.0603  0.1863 -0.1586
    5MOL   C634 3362   2.968   4.964   2.669  0.0347 -0.5855  0.7702
    5MOL   C635 3363   2.976   5.012   2.798  0.4098  0.0759 -0.2315
    5MOL   H636 3364   3.358   5.102   2.974  1.2654 -0.1004 -0.4986
    5MOL   H637 3365   3.539   5.250   3.042  0.0761  0.4045 -0.9834
    5MOL   H638 3366   3.250   5.573   3.090 -2.2970 -0.4758 -1.2900
    5MOL   H639 3367   3.085   5.435   2.996 -0.1768  0.1685 -1.4009
    5MOL   H640 3368   3.284   5.165   2.764  1.2068 -2.2028  0.2098
    5MOL   H641 3369   3.279   5.046   2.551 -0.0507 -0.1864 -0.8089
    5MOL   H642 3370   2.873   4.762   2.418  2.5951  0.1745  1.3114
    5MOL   H643 3371   2.701   4.797   2.235  0.6995  0.6442 -1.1632
    5MOL   H644 3372   2.895   5.160   2.126  1.9960  1.2013  1.5916
    5MOL   H645 3373   3.079   5.119   2.301 -0.1268  0.4275 -1.0969
    5MOL   H646 3374   2.887   4.895   2.648 -0.7400  0.0872  1.5302
    5MOL   H647 3375   2.894   4.998   2.867 -0.2271  2.5634 -0.4550
    5MOL   C648 3376   2.427   5.167   2.283 -0.0368  0.5715 -0.3795
    5MOL   C649 3377   2.553   5.135   2.234 -0.8148 -0.1762  0.8743
    5MOL   C650 3378   2.569   5.030   2.137 -0.2250 -0.0507  0.4120
    5MOL   O651 3379   2.692   4.999   2.079  0.2849 -0.1920 -0.4458
    5MOL   C652 3380   2.456   4.962   2.082 -0.9683 -0.6215  0.5953
    5MOL   C653 3381   2.331   4.999   2.133  0.3601  0.8828  0.9144
    5MOL   C654 3382   2.314   5.100   2.229  0.3881  0.6998 -0.1137
    5MOL   C655 3383   2.174   5.141   2.273 -1.0255 -0.3977  0.3861
    5MOL   O656 3384   2.147   5.160   2.391 -0.1594  0.6125  0.0521
    5MOL   C657 3385   2.078   5.176   2.166 -0.2843 -0.5241  0.2565
    5MOL   C658 3386   2.115   5.204   2.038  0.3977  0.5436  0.1312
    5MOL   C659 3387   2.023   5.245   1.944  1.1183  0.1251  0.8597
    5MOL   C660 3388   1.887   5.247   1.971  0.4299 -0.2732  0.0845
    5MOL   O661 3389   1.796   5.298   1.879  0.1259  0.3752 -0.4197
    5MOL   C662 3390   1.703   5.206   1.836  0.3533  0.2553  0.3829
    5MOL   C663 3391   1.740   5.075   1.803  0.0306  0.4289  0.4167
    5MOL   C664 3392   1.648   4.980   1.760  0.5400  0.1576 -0.5676
    5MOL   C665 3393   1.513   5.010   1.772 -0.2901 -0.3005 -0.0561
    5MOL   C666 3394   1.471   5.141   1.806  0.0158 -0.2769  0.7971
    5MOL   C667 3395   1.565   5.238   1.836  0.5103  0.3555 -0.0961
    5MOL   C668 3396   1.845   5.232   2.103 -0.2319  0.0868 -0.1947
    5MOL   C669 3397   1.943   5.186   2.201 -0.5763 -0.4857  0.5346
    5MOL   H670 3398   2.424   5.237   2.365  0.2797 -1.4607  1.4208
    5MOL   H671 3399   2.632   5.200   2.269  0.1298 -0.9130  0.1596
    5MOL   H672 3400   2.475   4.877   2.018  2.6619 -0.9653  1.9981
    5MOL   H673 3401   2.239   4.952   2.103 -1.4407  3.7118  1.8242
    5MOL   H674 3402   2.218   5.218   2.010  0.7135  0.0164  0.9991
    5MOL   H675 3403   2.063   5.267   1.846  1.5082  0.3784  1.0759
    5MOL   H676 3404   1.838   5.032   1.808 -0.0565 -0.0069 -1.3700
    5MOL   H677 3405   1.693   4.886   1.734  0.9969  0.6667 -1.6404
    5MOL   H678 3406   1.370   5.175   1.823 -0.0802  0.1817 -0.6341
    5MOL   H679 3407   1.541   5.340   1.865  2.1915  0.5241  0.8160
    5MOL   H680 3408   1.746   5.257   2.136 -0.4068 -2.0204  0.9345
    5MOL   H681 3409   1.907   5.183   2.303  1.9815  0.6745  1.5221
    5MOL   H682 3410   1.448   4.928   1.746  1.1537 -2.0871  1.7551
    6MOL     C1 3411   5.539   0.900   6.506 -0.0176 -0.6031 -0.0693
    6MOL     C2 3412   5.411   0.901   6.563 -0.6810  0.8367  0.3848
    6MOL     C3 3413   5.371   1.015   6.636 -0.1625 -0.0594 -0.1450
    6MOL     O4 3414   5.255   1.017   6.704  0.3494  0.4862 -0.1325
    6MOL     C5 3415   5.453   1.130   6.651 -0.5079  0.8246 -0.0515
    6MOL     C6 3416   5.575   1.133   6.586  0.9751  0.2933 -0.8906
    6MOL     C7 3417   5.619   1.016   6.516  0.4664 -0.0812  0.8024
    6MOL     C8 3418   5.744   1.012   6.436  0.4178 -0.5465 -0.7336
    6MOL     O9 3419   5.779   0.907   6.387 -0.7469 -0.4046 -0.6264
    6MOL    C10 3420   5.831   1.137   6.437 -0.3104 -0.2282  0.5074
    6MOL    C11 3421   5.886   1.185   6.555 -0.3899 -0.8499  0.5673
    6MOL    C12 3422   5.966   1.299   6.553  0.4820  0.5918  0.0223
    6MOL    C13 3423   5.999   1.364   6.433  0.2855  0.2844  0.4828
    6MOL    O14 3424   6.092   1.466   6.432  0.0310 -0.2769 -0.1063
    6MOL    C15 3425   6.222   1.437   6.396  0.2429  0.2223 -0.4646
    6MOL    C16 3426   6.297   1.346   6.471 -0.2099 -0.5157  0.0821
    6MOL    C17 3427   6.428   1.313   6.445 -0.3871 -0.1333 -0.6597
    6MOL    C18 3428   6.485   1.371   6.331  0.1969 -0.1053  0.2270
    6MOL    C19 3429   6.409   1.454   6.241  0.4049  0.2380  0.2184
    6MOL    C20 3430   6.275   1.479   6.276 -0.1120 -0.3018  0.7790
    6MOL    C21 3431   5.930   1.320   6.319  0.4143  0.1794 -0.0557
    6MOL    C22 3432   5.855   1.200   6.315 -0.2554 -0.0816  0.2148
    6MOL    H23 3433   5.565   0.812   6.450 -1.1534 -1.0396  0.0798
    6MOL    H24 3434   5.348   0.813   6.558 -0.0775  0.4143  0.2370
    6MOL    H25 3435   5.416   1.218   6.701  0.7113  2.7852 -2.4749
    6MOL    H26 3436   5.630   1.226   6.592 -2.0739  2.0100  1.5253
    6MOL    H27 3437   5.861   1.142   6.651 -1.9933 -2.3564 -0.4976
    6MOL    H28 3438   6.019   1.331   6.641  1.9798  0.7353 -0.8991
    6MOL    H29 3439   6.247   1.312   6.560 -0.6166 -2.7156 -0.9346
    6MOL    H30 3440   6.482   1.240   6.504  0.4715 -1.1115 -2.6265
    6MOL    H31 3441   6.459   1.496   6.156  1.9583 -0.7922  0.5873
    6MOL    H32 3442   6.222   1.548   6.211  2.2186  1.2692  0.5049
    6MOL    H33 3443   5.941   1.377   6.227 -0.4307  0.0425 -0.2406
    6MOL    H34 3444   5.801   1.157   6.232 -0.7917 -0.6078  0.8353
    6MOL    H35 3445   5.185   0.963   6.673  0.5230 -1.2710  2.4373
    6MOL    C36 3446   6.853   1.570   6.116  0.0932 -0.0571 -0.1976
    6MOL    C37 3447   6.782   1.453   6.162 -0.1588 -0.0881 -0.0759
    6MOL    C38 3448   6.691   1.466   6.270 -0.3346  0.0599 -0.3957
    6MOL    O39 3449   6.617   1.353   6.305  0.1985  0.5469 -0.8502
    6MOL    C40 3450   6.674   1.595   6.328 -0.1951  0.0467  0.1311
    6MOL    C41 3451   6.743   1.711   6.289  0.0757 -0.0152  0.2845
    6MOL    C42 3452   6.831   1.701   6.175  0.7546 -0.2473 -0.3730
    6MOL    C43 3453   6.919   1.818   6.145  0.3616 -0.4619 -0.4231
    6MOL    O44 3454   6.934   1.912   6.219 -0.2055 -0.0867 -0.4696
    6MOL    C45 3455   6.975   1.822   6.001 -0.2757  0.7684  0.3966
    6MOL    C46 3456   7.100   1.878   5.971 -0.0782  0.0463 -0.9291
    6MOL    C47 3457   7.150   1.896   5.841  0.2757  0.3967 -0.0128
    6MOL    C48 3458   7.068   1.863   5.732  0.4377 -0.0686  0.0023
    6MOL    O49 3459   7.111   1.872   5.601  0.1662  0.0872 -0.1943
    6MOL    C50 3460   7.226   1.810   5.561 -0.3391  0.4210 -0.2367
    6MOL    C51 3461   7.280   1.696   5.628  0.8518 -0.5091  0.2757
    6MOL    C52 3462   7.398   1.628   5.589  0.1775  0.9027 -0.0285
    6MOL    C53 3463   7.476   1.693   5.489 -0.9278  0.0624  0.1115
    6MOL    C54 3464   7.417   1.798   5.408 -0.1924 -0.2123 -0.3779
    6MOL    C55 3465   7.293   1.860   5.447  0.9268  0.3058 -1.0750
    6MOL    C56 3466   6.940   1.805   5.753  0.2177 -0.1878 -0.3960
    6MOL    C57 3467   6.899   1.787   5.888  0.3471 -0.4076 -0.4731
    6MOL    H58 3468   6.933   1.550   6.045  0.4427  1.0412 -0.1174
    6MOL    H59 3469   6.800   1.362   6.108  0.1557  0.0806 -0.2553
    6MOL    H60 3470   6.606   1.589   6.412 -1.5751  1.0407 -0.8785
    6MOL    H61 3471   6.738   1.793   6.359  0.1323 -0.1351  0.4294
    6MOL    H62 3472   7.157   1.915   6.055 -1.5750  0.7173 -0.1871
    6MOL    H63 3473   7.242   1.950   5.831  0.8893 -0.9773 -2.0674
    6MOL    H64 3474   7.224   1.648   5.707  1.6203 -0.7566  0.6784
    6MOL    H65 3475   7.439   1.549   5.650 -0.0256  0.0651 -0.9742
    6MOL    H66 3476   7.471   1.834   5.321 -0.0470 -0.7394 -0.5036
    6MOL    H67 3477   7.245   1.933   5.384 -0.8137 -0.5968 -0.8405
    6MOL    H68 3478   6.867   1.775   5.680 -0.5234  2.7130 -0.9013
    6MOL    H69 3479   6.796   1.758   5.898 -0.3404  2.3364  0.9808
    6MOL    C70 3480   7.676   1.418   5.186  0.0230  0.1051 -0.0168
    6MOL    C71 3481   7.625   1.530   5.261  0.3672  0.9963  0.4937
    6MOL    C72 3482   7.617   1.527   5.400  0.2995 -0.2385 -1.0637
    6MOL    O73 3483   7.607   1.649   5.462  0.7534 -0.0895  0.2028
    6MOL    C74 3484   7.663   1.415   5.470  0.3411  0.0773 -0.6386
    6MOL    C75 3485   7.717   1.300   5.402  0.2128 -0.2420  0.3578
    6MOL    C76 3486   7.719   1.300   5.263 -0.1970 -0.1924  0.4742
    6MOL    C77 3487   7.773   1.179   5.188 -0.3742 -0.2210 -0.7887
    6MOL    O78 3488   7.716   1.072   5.194  0.4245  0.1691  0.0743
    6MOL    C79 3489   7.892   1.197   5.098  0.7296  0.2740  0.3600
    6MOL    C80 3490   7.975   1.312   5.109  0.2308  0.1749 -0.0176
    6MOL    C81 3491   8.093   1.327   5.035 -0.0322 -0.0688  0.0691
    6MOL    C82 3492   8.132   1.220   4.955 -0.3711  0.3314 -0.2869
    6MOL    O83 3493   8.245   1.234   4.878 -0.4111  0.3812  0.1420
    6MOL    C84 3494   8.249   1.351   4.800  0.4478 -0.2448 -0.4010
    6MOL    C85 3495   0.045   1.439   4.810 -0.0598 -0.1082  0.3362
    6MOL    C86 3496   0.044   1.563   4.746  0.5726 -0.3463  0.2750
    6MOL    C87 3497   8.261   1.586   4.645  0.0781 -0.0795 -0.2818
    6MOL    C88 3498   8.161   1.487   4.625  0.2087 -0.0454  0.1481
    6MOL    C89 3499   8.151   1.372   4.702 -0.6642 -0.1317 -0.2343
    6MOL    C90 3500   8.052   1.106   4.939  0.1317 -0.6446  0.3932
    6MOL    C91 3501   7.939   1.090   5.016 -0.4469 -0.2960 -0.3381
    6MOL    H92 3502   7.686   1.424   5.079  3.2488 -0.9259  0.1665
    6MOL    H93 3503   7.598   1.619   5.206  2.9732  0.9347 -0.9394
    6MOL    H94 3504   7.669   1.408   5.577 -1.0431 -0.5469 -0.5843
    6MOL    H95 3505   7.757   1.220   5.462 -0.3353 -0.3298  0.6146
    6MOL    H96 3506   7.945   1.390   5.178  2.9457  1.4508 -0.2049
    6MOL    H97 3507   8.155   1.415   5.042  0.6207 -0.5798  0.7560
    6MOL    H98 3508   0.111   1.412   4.891 -0.3971  1.7236  1.2640
    6MOL    H99 3509   0.107   1.645   4.778 -0.6241  0.5525  0.3641
    6MOL   H100 3510   8.086   1.500   4.548  0.2660  0.8215  0.2304
    6MOL   H101 3511   8.076   1.296   4.687  2.1993 -2.9538 -0.9962
    6MOL   H102 3512   8.092   1.018   4.892  0.7534  0.3357 -0.9687
    6MOL   H103 3513   7.876   1.002   5.008  0.9467 -1.4709  1.2181
    6MOL   C104 3514   8.040   1.926   4.787  0.2351 -0.2310 -0.2356
    6MOL   C105 3515   8.088   1.812   4.721  1.1546  0.1796 -0.2435
    6MOL   C106 3516   8.204   1.813   4.638  0.1265 -0.5352 -0.4831
    6MOL   O107 3517   8.260   1.707   4.576 -0.1531 -0.0714  0.1534
    6MOL   C108 3518   8.267   1.938   4.622 -0.7945  0.0851 -0.1840
    6MOL   C109 3519   8.208   2.059   4.669 -0.6100  0.2041  0.0559
    6MOL   C110 3520   8.092   2.050   4.750  0.0082 -0.2951  0.5289
    6MOL   C111 3521   8.032   2.171   4.799  0.0718  0.8251  0.6428
    6MOL   O112 3522   8.103   2.256   4.847 -0.5311 -0.3058  0.4862
    6MOL   C113 3523   7.890   2.181   4.779 -0.0084  0.7181  0.6895
    6MOL   C114 3524   7.819   2.245   4.879 -0.0171  0.8245 -0.6498
    6MOL   C115 3525   7.682   2.272   4.860  0.0693 -0.2843  0.5994
    6MOL   C116 3526   7.621   2.244   4.739 -0.8778 -0.3018 -0.1662
    6MOL   O117 3527   7.490   2.284   4.721  0.5549 -0.3291 -0.9679
    6MOL   C118 3528   7.468   2.396   4.647 -0.5380 -0.1943 -0.0188
    6MOL   C119 3529   7.416   2.386   4.520  0.2985  0.6324  0.5926
    6MOL   C120 3530   7.403   2.498   4.439 -0.4188 -0.2528  0.3994
    6MOL   C121 3531   7.419   2.627   4.495 -0.2140  0.0338  0.1698
    6MOL   C122 3532   7.457   2.637   4.627  0.3034 -0.2192 -0.5727
    6MOL   C123 3533   7.492   2.522   4.703  0.1670 -0.2146  0.4010
    6MOL   C124 3534   7.685   2.172   4.643  0.6459  0.2838  0.3379
    6MOL   C125 3535   7.821   2.136   4.664 -0.1845 -1.0657  0.1988
    6MOL   H126 3536   7.952   1.917   4.848  0.6491  2.3176  0.8041
    6MOL   H127 3537   8.050   1.713   4.736 -1.7901  0.7547 -3.3690
    6MOL   H128 3538   0.038   1.938   4.554 -1.1819 -0.1390 -0.6644
    6MOL   H129 3539   8.246   2.154   4.634 -0.9843  1.8556  3.7698
    6MOL   H130 3540   7.868   2.280   4.968  2.1314 -2.2219 -0.5378
    6MOL   H131 3541   7.629   2.329   4.935  0.9619  2.3212 -0.6766
    6MOL   H132 3542   7.389   2.287   4.489 -0.1514  1.6017 -2.2269
    6MOL   H133 3543   7.365   2.494   4.338 -0.1578  4.9490 -0.0499
    6MOL   H134 3544   7.465   2.731   4.680 -2.3535  0.9004 -2.0588
    6MOL   H135 3545   7.522   2.535   4.806  0.1707 -2.2413  0.6665
    6MOL   H136 3546   7.636   2.151   4.549  3.0057 -1.3011 -0.5762
    6MOL   H137 3547   7.864   2.073   4.587 -0.5085 -0.3720 -0.5534
    6MOL   C138 3548   7.660   2.748   4.151  0.1900 -0.5116 -0.2521
    6MOL   C139 3549   7.601   2.730   4.279  0.5615 -0.0716  0.4289
    6MOL   C140 3550   7.463   2.761   4.297 -0.9396  0.0163 -0.3915
    6MOL   O141 3551   7.400   2.740   4.418 -0.1586  0.6443  0.0904
    6MOL   C142 3552   7.391   2.819   4.194 -0.3192 -0.1205 -0.8115
    6MOL   C143 3553   7.454   2.847   4.069 -0.1738  0.9130  0.2961
    6MOL   C144 3554   7.587   2.815   4.050 -0.3620  0.3741  0.4500
    6MOL   C145 3555   7.645   2.851   3.918 -0.1237  0.0595 -0.3220
    6MOL   O146 3556   7.665   2.767   3.829 -0.3325  0.4186  0.9013
    6MOL   C147 3557   7.686   2.996   3.911  0.5553 -0.3253 -0.5351
    6MOL   C148 3558   7.686   3.093   4.020 -0.0138  0.1281  0.3087
    6MOL   C149 3559   7.733   3.221   4.007 -0.3042 -0.7527 -0.1107
    6MOL   C150 3560   7.773   3.269   3.878  0.3753  1.1682  0.8085
    6MOL   O151 3561   7.823   3.392   3.859 -0.3833 -0.3357  0.4084
    6MOL   C152 3562   7.958   3.398   3.816  0.5718 -0.1374  0.2695
    6MOL   C153 3563   7.996   3.392   3.679  0.1240  0.1197  0.0038
    6MOL   C154 3564   8.135   3.391   3.647  0.2312  1.0936 -0.1530
    6MOL   C155 3565   8.235   3.371   3.743  1.0290 -0.1757  0.3766
    6MOL   C156 3566   8.197   3.379   3.876  0.2945  0.1575 -0.1248
    6MOL   C157 3567   8.057   3.391   3.918 -0.7591 -0.5400  0.1245
    6MOL   C158 3568   7.770   3.182   3.771  0.1949  0.2506 -0.7993
    6MOL   C159 3569   7.726   3.051   3.787  0.3085 -0.6937  0.5243
    6MOL   H160 3570   7.766   2.732   4.136  0.7179  2.5740 -0.2556
    6MOL   H161 3571   7.669   2.693   4.354  1.0643  0.8089  0.4163
    6MOL   H162 3572   7.287   2.837   4.215 -0.1911  1.8365 -1.6553
    6MOL   H163 3573   7.395   2.898   3.994 -1.2123 -0.4419  0.1777
    6MOL   H164 3574   7.631   3.068   4.109  0.1503 -0.9128  0.1140
    6MOL   H165 3575   7.726   3.298   4.082  2.7316  2.8122 -3.2577
    6MOL   H166 3576   7.918   3.385   3.605 -1.5351 -0.9432  1.7894
    6MOL   H167 3577   8.172   3.382   3.546  0.5376  0.6471 -0.0011
    6MOL   H168 3578   8.261   3.363   3.961 -0.2229 -0.7325  0.1008
    6MOL   H169 3579   8.028   3.381   4.021  0.3934 -2.8960  0.2593
    6MOL   H170 3580   7.790   3.222   3.673  1.2987  1.6620 -0.0206
    6MOL   H171 3581   7.720   2.979   3.706 -0.0773 -2.2034  1.8617
    6MOL   C172 3582   0.252   3.140   3.900 -0.2214  0.0217  0.0423
    6MOL   C173 3583   0.148   3.191   3.819  0.2196 -0.2615  0.6227
    6MOL   C174 3584   0.143   3.325   3.784 -0.1207 -0.2556  0.7417
    6MOL   O175 3585   0.046   3.370   3.696 -0.0029  0.2344 -0.2734
    6MOL   C176 3586   0.252   3.408   3.825 -0.0320 -0.3114  0.1102
    6MOL   C177 3587   0.349   3.362   3.913 -0.1016 -0.2173 -0.7990
    6MOL   C178 3588   0.357   3.227   3.949  0.0874  0.6182  0.3726
    6MOL   C179 3589   0.464   3.184   4.045  0.3385 -0.3139  0.1013
    6MOL   O180 3590   0.461   3.067   4.086 -0.0175 -0.4578 -0.3736
    6MOL   C181 3591   0.567   3.277   4.091 -0.7200 -0.3839  0.3081
    6MOL   C182 3592   0.591   3.290   4.231 -0.0413  0.5998 -0.2497
    6MOL   C183 3593   0.693   3.383   4.278 -1.0759 -0.6271 -0.1738
    6MOL   C184 3594   0.766   3.457   4.183 -0.5328 -0.1701  0.5289
    6MOL   O185 3595   0.874   3.541   4.214  0.0800  0.3271  0.3724
    6MOL   C186 3596   0.933   3.536   4.338  0.4552  0.2728  0.3305
    6MOL   C187 3597   0.915   3.644   4.433  0.3104  0.1327  0.2929
    6MOL   C188 3598   0.987   3.645   4.553  0.0903  0.0340 -0.4196
    6MOL   C189 3599   1.072   3.533   4.591  0.2441  0.1712  0.5009
    6MOL   C190 3600   1.076   3.421   4.506 -0.3832  0.1863 -0.2939
    6MOL   C191 3601   1.010   3.424   4.381  0.0187 -0.8833 -0.2132
    6MOL   C192 3602   0.736   3.446   4.042  0.4315 -0.1541  0.1206
    6MOL   C193 3603   0.645   3.352   3.999  0.4655 -0.5953 -0.1883
    6MOL   H194 3604   0.260   3.033   3.907 -3.3224 -0.5521 -3.4925
    6MOL   H195 3605   0.065   3.132   3.786 -1.6866  1.5591  2.0349
    6MOL   H196 3606   0.251   3.515   3.810  1.7964 -0.3932 -0.6587
    6MOL   H197 3607   0.408   3.443   3.954 -1.9492  0.6370  0.2265
    6MOL   H198 3608   0.543   3.228   4.306 -0.9175  2.0906  0.4296
    6MOL   H199 3609   0.710   3.381   4.385  0.4136  2.2956 -0.3126
    6MOL   H200 3610   0.863   3.734   4.402  1.5342  1.4602  2.0308
    6MOL   H201 3611   0.965   3.731   4.614 -4.3836 -0.0772 -1.7620
    6MOL   H202 3612   1.152   3.346   4.526 -0.5370  0.5823  1.8596
    6MOL   H203 3613   1.040   3.347   4.312  0.6553 -0.0329 -0.8901
    6MOL   H204 3614   0.777   3.514   3.968 -0.7249 -0.1526 -0.5217
    6MOL   H205 3615   0.629   3.345   3.892  0.5126 -2.8793 -0.0699
    6MOL   C206 3616   1.489   3.602   4.669  0.1537  0.2676 -0.0152
    6MOL   C207 3617   1.367   3.533   4.681  0.4302  0.4745 -0.1805
    6MOL   C208 3618   1.248   3.594   4.722 -0.0055 -0.2933 -0.1069
    6MOL   O209 3619   1.127   3.533   4.712 -0.5892  0.0826 -0.2968
    6MOL   C210 3620   1.253   3.726   4.757 -0.3464 -0.1468 -0.1876
    6MOL   C211 3621   1.375   3.803   4.755 -0.0815  0.3132 -0.0955
    6MOL   C212 3622   1.489   3.739   4.697  0.1387 -0.1043 -0.5933
    6MOL   C213 3623   1.606   3.827   4.671  0.0821  0.2667 -0.2438
    6MOL   O214 3624   1.600   3.944   4.637 -0.2473 -0.2303 -0.1885
    6MOL   C215 3625   1.740   3.766   4.697  0.5732  0.2247  0.3699
    6MOL   C216 3626   1.768   3.682   4.802 -0.4368 -0.2462  0.7789
    6MOL   C217 3627   1.898   3.633   4.827  0.5303 -0.3091 -0.2070
    6MOL   C218 3628   1.998   3.649   4.723 -0.5369  0.4028  0.0555
    6MOL   O219 3629   2.121   3.589   4.737 -0.3501 -0.1366  0.2639
    6MOL   C220 3630   2.227   3.672   4.744  0.4380  0.6034  0.1865
    6MOL   C221 3631   2.317   3.693   4.635 -0.7623  0.0462  0.0811
    6MOL   C222 3632   2.429   3.776   4.658  0.0816 -0.5695 -0.6095
    6MOL   C223 3633   2.459   3.828   4.786 -0.4996 -0.1764 -0.7538
    6MOL   C224 3634   2.375   3.802   4.892  0.5272  0.5900  0.4460
    6MOL   C225 3635   2.255   3.722   4.873  0.4241 -0.2199  0.3458
    6MOL   C226 3636   1.971   3.741   4.619  0.1844  0.9244  0.3206
    6MOL   C227 3637   1.845   3.791   4.606  0.7219  0.1560 -0.0551
    6MOL   H228 3638   1.579   3.551   4.639  0.5746  0.2552  1.2119
    6MOL   H229 3639   1.355   3.430   4.652  1.5006  1.1527 -3.1761
    6MOL   H230 3640   1.156   3.772   4.761  0.1551  1.0045 -1.0404
    6MOL   H231 3641   1.377   3.908   4.782 -1.5590  1.1285 -2.8979
    6MOL   H232 3642   1.702   3.681   4.888 -0.9311 -0.7523  0.3964
    6MOL   H233 3643   1.914   3.584   4.922 -2.3432 -0.2803  0.3202
    6MOL   H234 3644   2.290   3.654   4.538 -0.4627 -0.9647  0.3927
    6MOL   H235 3645   2.493   3.800   4.574 -2.0509 -1.3492 -2.5089
    6MOL   H236 3646   2.392   3.837   4.992 -2.2780  4.9452 -0.4618
    6MOL   H237 3647   2.189   3.698   4.954 -1.2572 -1.3723 -1.3332
    6MOL   H238 3648   2.048   3.767   4.548 -0.6756  0.7736 -0.6638
    6MOL   H239 3649   1.826   3.850   4.517 -1.8196 -0.6686 -0.0764
    6MOL   C240 3650   2.610   4.252   4.698 -0.0789  0.4253 -0.3019
    6MOL   C241 3651   2.601   4.110   4.700 -0.2281  0.1187 -0.6204
    6MOL   C242 3652   2.570   4.038   4.815  0.0858 -0.2881 -0.3639
    6MOL   O243 3653   2.573   3.898   4.812 -0.3319 -0.5579  0.1850
    6MOL   C244 3654   2.529   4.107   4.929 -0.6500 -0.5369  0.0319
    6MOL   C245 3655   2.521   4.247   4.929  0.3006  0.2764 -0.2021
    6MOL   C246 3656   2.568   4.322   4.815 -0.0337 -0.6163  0.0933
    6MOL   C247 3657   2.576   4.470   4.811  0.4101 -0.0820 -0.0469
    6MOL   O248 3658   2.501   4.531   4.738  0.3014 -0.1176 -0.3100
    6MOL   C249 3659   2.671   4.533   4.901 -0.0990  1.1442  0.0765
    6MOL   C250 3660   2.642   4.643   4.984  0.3114  0.4776 -0.0833
    6MOL   C251 3661   2.734   4.707   5.067 -0.0906  0.5527 -0.0239
    6MOL   C252 3662   2.864   4.656   5.070  0.3468 -0.3383  0.3985
    6MOL   O253 3663   2.955   4.729   5.141  0.3274 -0.2507 -0.3404
    6MOL   C254 3664   3.019   4.657   5.231  0.3858  0.6040  0.0876
    6MOL   C255 3665   2.971   4.628   5.356 -0.2935  0.2355  0.7449
    6MOL   C256 3666   3.045   4.557   5.450 -0.0924  0.0580  0.3467
    6MOL   C257 3667   3.176   4.518   5.415 -1.1558  0.1142 -0.6716
    6MOL   C258 3668   3.232   4.552   5.293 -0.1709  0.6267 -0.4435
    6MOL   C259 3669   3.154   4.622   5.196  0.3015 -0.0026 -0.0352
    6MOL   C260 3670   2.902   4.543   4.991 -0.0130  0.6402  0.7141
    6MOL   C261 3671   2.807   4.483   4.905  1.2055  0.0056  0.0338
    6MOL   H262 3672   2.635   4.300   4.604  0.9601 -0.5427 -0.5387
    6MOL   H263 3673   2.631   4.055   4.612  0.7077  0.8433 -0.7641
    6MOL   H264 3674   2.497   4.057   5.019 -3.2235  0.0353 -0.5032
    6MOL   H265 3675   2.495   4.303   5.018  0.3769 -1.3106  0.8433
    6MOL   H266 3676   2.541   4.679   4.979  0.6295  1.2144 -1.5415
    6MOL   H267 3677   2.702   4.789   5.130  1.5430  0.4701  0.9357
    6MOL   H268 3678   2.873   4.661   5.388 -0.5348  0.9990 -0.7313
    6MOL   H269 3679   2.998   4.544   5.546 -4.4365  2.8556 -1.2356
    6MOL   H270 3680   3.335   4.530   5.268 -0.3668 -1.2996  0.3873
    6MOL   H271 3681   3.200   4.647   5.102 -0.3864  0.8328 -0.1503
    6MOL   H272 3682   3.005   4.510   4.996 -0.0174  0.3963 -0.7397
    6MOL   H273 3683   2.822   4.402   4.836  0.1784 -1.2380  1.2417
    6MOL   C274 3684   3.184   4.097   5.396  0.3322  0.2437  0.4384
    6MOL   C275 3685   3.167   4.237   5.420  0.4211  0.2962  0.3707
    6MOL   C276 3686   3.272   4.311   5.476 -0.9709 -0.3681 -0.2959
    6MOL   O277 3687   3.253   4.441   5.506  0.4824 -0.4131 -0.4963
    6MOL   C278 3688   3.398   4.253   5.497  0.1814  0.6772  0.0561
    6MOL   C279 3689   3.425   4.120   5.461  0.0884 -0.3121 -0.6081
    6MOL   C280 3690   3.319   4.038   5.408 -0.2889 -0.4312  0.3995
    6MOL   C281 3691   3.339   3.897   5.375 -0.1946 -0.1017 -0.0763
    6MOL   O282 3692   3.282   3.811   5.431  0.6138  0.0538 -0.3528
    6MOL   C283 3693   3.432   3.861   5.268  0.4971  0.5672 -0.1516
    6MOL   C284 3694   3.484   3.728   5.269  0.1589  0.2941  0.3207
    6MOL   C285 3695   3.565   3.681   5.170 -0.3402 -0.2284 -0.0299
    6MOL   C286 3696   3.600   3.764   5.055  0.3390  1.1431  0.1347
    6MOL   O287 3697   3.689   3.718   4.967 -1.4340 -0.1788  0.1885
    6MOL   C288 3698   3.646   3.616   4.884 -0.5576 -0.0116  0.0529
    6MOL   C289 3699   3.525   3.623   4.813 -1.0083 -0.3928  0.4200
    6MOL   C290 3700   3.483   3.517   4.729  1.3199  0.1801  0.1107
    6MOL   C291 3701   3.554   3.396   4.726  0.9714  0.6988  0.1611
    6MOL   C292 3702   3.680   3.388   4.792  0.3679 -0.4685  0.1079
    6MOL   C293 3703   3.729   3.502   4.868 -0.7300 -0.8916  0.1977
    6MOL   C294 3704   3.561   3.899   5.055  0.1373 -0.0952 -0.1013
    6MOL   C295 3705   3.480   3.949   5.164  0.0471 -0.8318  0.5011
    6MOL   H296 3706   3.104   4.040   5.350  1.1807 -1.0464  0.5449
    6MOL   H297 3707   3.071   4.286   5.411 -0.1469 -1.2278 -2.6639
    6MOL   H298 3708   3.485   4.311   5.523  1.1800 -0.8947  0.2634
    6MOL   H299 3709   3.524   4.078   5.472 -0.0869 -0.3953  0.6869
    6MOL   H300 3710   3.470   3.668   5.357 -2.7594  1.7372  0.9181
    6MOL   H301 3711   3.605   3.581   5.172 -0.7756 -0.3898  0.7485
    6MOL   H302 3712   3.478   3.720   4.810  0.2229  0.2236  0.8109
    6MOL   H303 3713   3.400   3.523   4.661  0.5983 -0.8592  0.8827
    6MOL   H304 3714   3.734   3.294   4.791  1.4783  0.1166  2.1855
    6MOL   H305 3715   3.826   3.498   4.916 -0.2970 -0.8982 -0.6644
    6MOL   H306 3716   3.590   3.962   4.972 -0.1931  1.6761  1.0862
    6MOL   H307 3717   3.450   4.053   5.169  0.0579 -0.7443 -0.9076
    6MOL   C308 3718   3.447   3.304   4.287 -0.2144  0.8013 -0.2683
    6MOL   C309 3719   3.423   3.302   4.426  0.0044  0.5752  0.1810
    6MOL   C310 3720   3.529   3.300   4.519 -0.9166  0.8078 -0.0892
    6MOL   O311 3721   3.511   3.294   4.651 -0.3968 -0.0411  0.1747
    6MOL   C312 3722   3.658   3.300   4.467  0.1401 -0.5088 -0.0892
    6MOL   C313 3723   3.675   3.306   4.325 -0.1586 -0.3780 -0.2540
    6MOL   C314 3724   3.571   3.311   4.232 -0.4853 -0.5297 -0.3500
    6MOL   C315 3725   3.606   3.321   4.084  0.4919 -0.5553  0.4889
    6MOL   O316 3726   3.716   3.301   4.046 -0.3028  0.5280  0.6536
    6MOL   C317 3727   3.493   3.339   3.989 -0.0675 -0.3482  0.1333
    6MOL   C318 3728   3.413   3.453   3.989 -0.3580 -0.3075 -0.7385
    6MOL   C319 3729   3.300   3.464   3.906 -0.4943  0.4134 -0.5906
    6MOL   C320 3730   3.270   3.364   3.817 -0.0227  0.4263  0.2175
    6MOL   O321 3731   3.163   3.377   3.740  0.4548  0.1760 -0.5943
    6MOL   C322 3732   3.042   3.356   3.801  0.6969 -0.3365 -0.0492
    6MOL   C323 3733   2.989   3.226   3.813  0.0190 -0.5323  0.1774
    6MOL   C324 3734   2.863   3.199   3.866 -0.4030  0.0617 -0.3854
    6MOL   C325 3735   2.781   3.309   3.917  0.3820 -0.0906 -0.6243
    6MOL   C326 3736   2.829   3.444   3.899 -0.6343 -1.3610 -1.0442
    6MOL   C327 3737   2.960   3.464   3.846  0.1654 -0.4147 -0.0804
    6MOL   C328 3738   3.351   3.248   3.811 -0.1240 -0.0255  0.3096
    6MOL   C329 3739   3.463   3.236   3.895 -0.1817  0.6822 -0.7960
    6MOL   H330 3740   3.368   3.310   4.214  2.1614  1.6111 -2.8546
    6MOL   H331 3741   3.322   3.280   4.456 -0.3371  3.8881  1.6364
    6MOL   H332 3742   3.740   3.300   4.537 -0.6174  3.9688  0.9834
    6MOL   H333 3743   3.774   3.315   4.284 -0.5034  1.2979 -0.7579
    6MOL   H334 3744   3.437   3.527   4.064 -1.0303 -3.1425  2.4097
    6MOL   H335 3745   3.240   3.554   3.911 -0.3420  0.4434  0.8419
    6MOL   H336 3746   3.043   3.138   3.780 -0.0285  0.1343 -1.7112
    6MOL   H337 3747   2.827   3.098   3.874  3.5487 -1.5292 -1.3884
    6MOL   H338 3748   2.766   3.529   3.919  2.0280  0.4080  0.0621
    6MOL   H339 3749   2.991   3.564   3.823  1.4900 -0.3289  1.9512
    6MOL   H340 3750   3.315   3.171   3.744 -2.0076 -0.3657  1.6785
    6MOL   H341 3751   3.515   3.142   3.893 -0.4447  0.5307 -0.5300
    6MOL   C342 3752   2.397   3.533   4.036  0.6339 -1.1733  0.7529
    6MOL   C343 3753   2.476   3.432   3.980  0.3132 -0.5409  0.1948
    6MOL   C344 3754   2.591   3.383   4.039  0.3267 -0.2606 -0.4641
    6MOL   O345 3755   2.660   3.283   3.978 -0.1977 -0.1484 -0.0678
    6MOL   C346 3756   2.640   3.450   4.156  0.4590  0.3373  0.7110
    6MOL   C347 3757   2.570   3.564   4.202 -0.0561  0.1002 -0.8701
    6MOL   C348 3758   2.446   3.607   4.145 -0.3849 -0.3060 -0.5905
    6MOL   C349 3759   2.375   3.721   4.213  0.1142  0.8764  0.7066
    6MOL   O350 3760   2.381   3.737   4.334  0.2173 -0.1855  0.2854
    6MOL   C351 3761   2.290   3.799   4.129  0.3448  0.4565 -0.2653
    6MOL   C352 3762   2.158   3.842   4.169  0.3734  0.7801  0.0811
    6MOL   C353 3763   2.084   3.931   4.094 -0.3167  0.5438  0.2504
    6MOL   C354 3764   2.133   3.980   3.972 -0.5229 -0.6958 -0.3483
    6MOL   O355 3765   2.059   4.071   3.894  0.4652 -0.3152  0.0516
    6MOL   C356 3766   2.021   4.039   3.767  0.6906  0.7918 -0.3865
    6MOL   C357 3767   2.057   4.125   3.655  0.2024 -0.5995 -0.1108
    6MOL   C358 3768   2.017   4.085   3.524 -0.4978 -0.2675  0.0252
    6MOL   C359 3769   1.930   3.972   3.513  0.4855 -1.0664  0.1521
    6MOL   C360 3770   1.885   3.897   3.622 -0.6534 -0.0550 -0.1218
    6MOL   C361 3771   1.939   3.928   3.753 -0.6056  0.3356 -0.5185
    6MOL   C362 3772   2.258   3.930   3.923  0.7792 -0.0523  0.0791
    6MOL   C363 3773   2.337   3.838   4.001 -0.0943  0.4671 -0.3785
    6MOL   H364 3774   2.304   3.562   3.988  1.5078 -0.4249 -0.5168
    6MOL   H365 3775   2.458   3.384   3.885 -1.5130 -0.8656  0.6885
    6MOL   H366 3776   2.723   3.405   4.208  1.1254  0.6239 -0.1000
    6MOL   H367 3777   2.609   3.612   4.290 -2.2188 -0.3145  0.3492
    6MOL   H368 3778   2.123   3.821   4.269  1.3650 -4.1046 -0.4939
    6MOL   H369 3779   1.992   3.972   4.132 -0.1502  0.8553  0.3145
    6MOL   H370 3780   2.114   4.215   3.673 -0.6955  0.4640 -2.3267
    6MOL   H371 3781   2.043   4.150   3.442 -2.3904 -0.6515 -0.8947
    6MOL   H372 3782   1.812   3.818   3.611  2.0765 -2.5611 -0.6518
    6MOL   H373 3783   1.909   3.872   3.841  2.0722 -0.1625  0.1363
    6MOL   H374 3784   2.311   3.966   3.836  0.8368  0.1168  0.1844
    6MOL   H375 3785   2.436   3.808   3.970 -0.2999 -2.3876  1.4939
    6MOL   C376 3786   2.112   3.795   3.113  0.3973 -0.3066 -0.2086
    6MOL   C377 3787   2.034   3.889   3.190 -0.0520 -0.2236  0.1901
    6MOL   C378 3788   1.981   3.855   3.317  0.1997 -0.2176 -0.3610
    6MOL   O379 3789   1.897   3.945   3.383 -0.0520 -0.4458 -0.0146
    6MOL   C380 3790   2.010   3.725   3.373 -0.3229 -0.5754 -0.8221
    6MOL   C381 3791   2.075   3.635   3.292  0.4262 -0.2405 -0.1121
    6MOL   C382 3792   2.123   3.664   3.165  0.2498 -0.4065  0.6211
    6MOL   C383 3793   2.188   3.560   3.081 -0.0529 -0.6125  0.2492
    6MOL   O384 3794   2.259   3.469   3.133 -0.3510 -0.1499 -0.0725
    6MOL   C385 3795   2.179   3.578   2.934  0.4318  0.4457 -0.4728
    6MOL   C386 3796   2.067   3.634   2.866 -0.3178  0.1874 -0.2908
    6MOL   C387 3797   2.063   3.645   2.723  0.2050 -0.5968  0.2152
    6MOL   C388 3798   2.168   3.593   2.650  0.0349 -0.3265 -0.0244
    6MOL   O389 3799   2.181   3.589   2.513  0.1861 -0.1411  0.5124
    6MOL   C390 3800   2.065   3.548   2.442  0.6004 -0.2312  0.0610
    6MOL   C391 3801   2.003   3.636   2.352 -0.1151 -0.2847  0.6312
    6MOL   C392 3802   1.889   3.590   2.278  0.3403 -0.4242  0.2539
    6MOL   C393 3803   1.851   3.449   2.280  0.6630 -0.3387  0.0366
    6MOL   C394 3804   1.919   3.361   2.370 -0.4506 -0.1045  0.0986
    6MOL   C395 3805   2.028   3.414   2.451  0.1938  0.0803 -0.4742
    6MOL   C396 3806   2.276   3.531   2.718  0.1315 -0.4798  0.2928
    6MOL   C397 3807   2.283   3.517   2.855  0.6428 -0.6962 -0.3040
    6MOL   H398 3808   2.154   3.827   3.019  0.6637  2.4348  0.7926
    6MOL   H399 3809   2.017   3.990   3.156  0.1956 -0.6245 -1.1693
    6MOL   H400 3810   1.981   3.696   3.472  0.4341  1.7841  0.1355
    6MOL   H401 3811   2.100   3.536   3.328  0.6677 -0.3568 -0.5900
    6MOL   H402 3812   1.988   3.684   2.921 -2.1863 -0.4017 -2.4039
    6MOL   H403 3813   1.981   3.693   2.671 -0.0497  0.9292  1.9770
    6MOL   H404 3814   2.035   3.739   2.339 -0.7055 -0.2867 -0.9762
    6MOL   H405 3815   1.841   3.655   2.207  1.6566  1.1490  0.7782
    6MOL   H406 3816   1.899   3.255   2.368 -1.3041  0.0567  0.0554
    6MOL   H407 3817   2.075   3.350   2.525  1.4717  0.9411 -0.5242
    6MOL   H408 3818   2.362   3.496   2.663 -0.3141 -0.3601 -0.4922
    6MOL   H409 3819   2.364   3.467   2.905  1.1571 -0.3963 -0.8374
    6MOL   C410 3820   1.705   3.495   1.850 -0.5321  0.2824  0.1408
    6MOL   C411 3821   1.685   3.471   1.985 -0.0425 -0.5280  0.2480
    6MOL   C412 3822   1.791   3.412   2.058  0.3204 -0.0051 -0.3618
    6MOL   O413 3823   1.770   3.385   2.190  0.1025 -0.1894  0.5280
    6MOL   C414 3824   1.914   3.385   2.000 -0.6650  0.1358 -0.0702
    6MOL   C415 3825   1.931   3.406   1.861 -0.4284  0.2465  0.1234
    6MOL   C416 3826   1.828   3.462   1.784 -0.4776 -0.1620  0.9425
    6MOL   C417 3827   1.842   3.479   1.634  0.7041 -0.1879  0.4034
    6MOL   O418 3828   1.740   3.472   1.561 -0.7847  0.5523 -0.2880
    6MOL   C419 3829   1.975   3.490   1.572  0.6220 -0.2394  0.1892
    6MOL   C420 3830   1.987   3.451   1.439 -0.5326 -0.1823 -0.1135
    6MOL   C421 3831   2.113   3.457   1.376  0.3140  0.0399 -0.3668
    6MOL   C422 3832   2.223   3.509   1.449 -0.1018  0.8523 -0.3655
    6MOL   O423 3833   2.346   3.520   1.390 -0.3557  0.0246 -0.7530
    6MOL   C424 3834   2.361   3.634   1.318  0.7391  0.1023 -0.2823
    6MOL   C425 3835   2.334   3.633   1.182 -0.6052  0.4475  0.3255
    6MOL   C426 3836   2.370   3.745   1.103  0.4032  0.2105 -0.4108
    6MOL   C427 3837   2.420   3.869   1.151  0.2736  0.0240 -0.5816
    6MOL   C428 3838   2.444   3.867   1.295  0.3847 -0.2924 -0.1775
    6MOL   C429 3839   2.416   3.751   1.373  0.1392 -0.4652  0.2134
    6MOL   C430 3840   2.207   3.557   1.579 -0.5142 -0.0509 -0.4967
    6MOL   C431 3841   2.085   3.548   1.639  0.3951  0.4126 -0.1042
    6MOL   H432 3842   1.626   3.532   1.788 -1.6244  0.0846  1.3929
    6MOL   H433 3843   1.589   3.481   2.034  1.1989  0.8112  2.5178
    6MOL   H434 3844   1.989   3.337   2.061  1.7406  1.2997 -2.0664
    6MOL   H435 3845   2.020   3.361   1.821  0.0879  3.4352 -2.4433
    6MOL   H436 3846   1.898   3.416   1.387 -0.1334 -1.4610  0.0505
    6MOL   H437 3847   2.127   3.434   1.272 -0.7497  0.2395 -0.5612
    6MOL   H438 3848   2.311   3.540   1.132  0.6469  1.9409 -3.1922
    6MOL   H439 3849   2.365   3.735   0.995  1.5831 -3.1071 -0.2228
    6MOL   H440 3850   2.475   3.958   1.345 -2.6169  0.3187  0.6155
    6MOL   H441 3851   2.426   3.762   1.480 -0.2979  0.4552  0.1707
    6MOL   H442 3852   2.287   3.598   1.640 -0.1220 -2.3136  0.5702
    6MOL   H443 3853   2.070   3.587   1.739  0.8202  0.6916 -0.1489
    6MOL   C444 3854   2.221   4.063   0.814  0.5117 -0.4442 -0.2533
    6MOL   C445 3855   2.327   4.011   0.885  0.5731  0.2541 -0.4917
    6MOL   C446 3856   2.358   4.046   1.017 -0.2860 -0.3875 -0.0677
    6MOL   O447 3857   2.454   3.980   1.088  0.5490  0.3209  0.0368
    6MOL   C448 3858   2.274   4.143   1.077  0.0258 -0.2230  0.5796
    6MOL   C449 3859   2.159   4.190   1.002 -0.2374 -0.4810 -0.5376
    6MOL   C450 3860   2.126   4.152   0.873 -0.3370  0.0990  0.3266
    6MOL   C451 3861   2.013   4.216   0.799 -0.2677 -0.7271  0.3101
    6MOL   O452 3862   2.010   4.339   0.780 -0.8779 -0.3201 -1.0592
    6MOL   C453 3863   1.905   4.128   0.757 -0.0029 -1.0178  0.6080
    6MOL   C454 3864   1.914   3.987   0.784 -0.2932 -0.3525 -0.0125
    6MOL   C455 3865   1.804   3.907   0.748 -0.4152 -0.4440 -0.4394
    6MOL   C456 3866   1.692   3.964   0.691  0.1657 -0.0354 -0.2088
    6MOL   O457 3867   1.593   3.874   0.660 -0.7170 -0.6763  0.0917
    6MOL   C458 3868   1.574   3.841   0.534  0.4628 -0.3450 -0.7527
    6MOL   C459 3869   1.454   3.777   0.504  0.2902 -0.4989  0.0930
    6MOL   C460 3870   1.425   3.732   0.374 -0.2428  0.3446 -0.0621
    6MOL   C461 3871   1.523   3.735   0.276 -0.5186 -0.0606 -0.0338
    6MOL   C462 3872   1.646   3.793   0.307  0.2636  0.4207 -0.1926
    6MOL   C463 3873   1.676   3.843   0.435  0.6551  0.1277  0.7007
    6MOL   C464 3874   1.682   4.103   0.660 -0.4235 -0.4961 -0.3142
    6MOL   C465 3875   1.793   4.190   0.692 -0.2823 -0.2119 -0.5398
    6MOL   H466 3876   2.214   4.029   0.712  0.6706 -0.1534 -0.3609
    6MOL   H467 3877   2.382   3.930   0.838  1.9438  0.4788  0.6791
    6MOL   H468 3878   2.278   4.162   1.183  0.6586  0.5748  0.4196
    6MOL   H469 3879   2.095   4.264   1.048 -1.4176 -0.3088 -2.3709
    6MOL   H470 3880   1.994   3.936   0.836 -3.6588 -1.5852  4.2887
    6MOL   H471 3881   1.807   3.801   0.766 -0.8273 -0.0263  2.3599
    6MOL   H472 3882   1.380   3.779   0.583  1.5437  2.5421  1.2497
    6MOL   H473 3883   1.323   3.702   0.353 -0.3630  0.5620  0.2113
    6MOL   H474 3884   1.709   3.813   0.221 -1.7142  1.1544 -1.5102
    6MOL   H475 3885   1.770   3.892   0.456 -1.0469  2.9416  2.0855
    6MOL   H476 3886   1.598   4.137   0.602 -0.7673  0.9567  1.0068
    6MOL   H477 3887   1.797   4.296   0.669  2.2514  0.0019  0.7459
    6MOL   C478 3888   1.187   3.814   0.006 -0.5708  0.2986  0.2950
    6MOL   C479 3889   1.315   3.813   0.066  0.2455  0.4483 -0.0619
    6MOL   C480 3890   1.375   3.691   0.095  0.4285  0.2589 -0.1230
    6MOL   O481 3891   1.499   3.697   0.144  0.0580  0.5442  0.2382
    6MOL   C482 3892   1.311   3.570   0.087 -0.3478 -0.2469 -0.2925
    6MOL   C483 3893   1.183   3.572   0.028  0.1622  0.3305 -0.0850
    6MOL   C484 3894   1.121   3.688   8.294 -0.3048  0.0710 -0.3424
    6MOL   C485 3895   0.988   3.682   8.225  0.0184 -0.1604  0.3027
    6MOL   O486 3896   0.901   3.607   8.266 -0.5659  0.6004  0.3691
    6MOL   C487 3897   0.960   3.784   8.119 -0.3921 -0.3699 -0.0106
    6MOL   C488 3898   1.047   3.789   8.012  0.1827  0.9646 -0.5385
    6MOL   C489 3899   1.026   3.889   7.911 -0.3735 -0.7939 -0.6494
    6MOL   C490 3900   0.924   3.984   7.929 -0.1055  0.3120 -0.2233
    6MOL   O491 3901   0.911   4.086   7.838 -0.8369  0.3156  0.5646
    6MOL   C492 3902   0.844   4.058   7.721 -0.0386 -0.1489  0.2985
    6MOL   C493 3903   0.728   3.973   7.712 -0.8908 -0.1128 -0.4959
    6MOL   C494 3904   0.646   3.962   7.598 -0.1596  0.3458 -0.2028
    6MOL   C495 3905   0.682   4.032   7.483  0.0297  0.4913  1.3160
    6MOL   C496 3906   0.793   4.119   7.485  0.5115  0.2374  0.8385
    6MOL   C497 3907   0.873   4.132   7.605  0.4341 -0.2208  0.7747
    6MOL   C498 3908   0.837   3.972   8.038  0.4677  0.4695 -0.1824
    6MOL   C499 3909   0.864   3.879   8.137  0.3127 -0.2242  0.0060
    6MOL   H500 3910   1.141   3.906   8.286 -2.7194 -0.7549  0.2526
    6MOL   H501 3911   1.373   3.902   0.085  3.9190 -1.4550 -1.9580
    6MOL   H502 3912   1.356   3.477   0.119 -0.8385 -0.1091  0.8163
    6MOL   H503 3913   1.129   3.479   0.023 -0.8729  0.9593 -0.9846
    6MOL   H504 3914   1.129   3.719   8.011 -1.0015 -0.4565 -1.2117
    6MOL   H505 3915   1.096   3.901   7.829 -1.2954  2.0695 -1.0787
    6MOL   H506 3916   0.701   3.915   7.799  0.0983  1.1524  0.6857
    6MOL   H507 3917   0.561   3.896   7.606 -1.4990  2.2360  1.7844
    6MOL   H508 3918   0.820   4.176   7.398 -3.5950 -0.4549 -0.9824
    6MOL   H509 3919   0.950   4.208   7.615  0.6466 -0.2601 -0.4108
    6MOL   H510 3920   0.754   4.040   8.052  0.8962  1.0224 -0.3330
    6MOL   H511 3921   0.803   3.882   8.226 -0.2858  0.0856 -0.4100
    6MOL   C512 3922   0.830   3.871   7.107 -0.3115 -0.0284 -0.7344
    6MOL   C513 3923   0.783   3.963   7.205 -0.0233 -0.4774 -0.0264
    6MOL   C514 3924   0.664   3.936   7.274  0.0804 -0.3755  0.0923
    6MOL   O515 3925   0.608   4.022   7.367  0.0984  0.1464  0.4594
    6MOL   C516 3926   0.594   3.817   7.242  0.1083  0.4902 -0.2126
    6MOL   C517 3927   0.635   3.725   7.140 -0.4794 -0.4012  1.5004
    6MOL   C518 3928   0.762   3.750   7.075 -0.7079 -0.2021  0.0243
    6MOL   C519 3929   0.814   3.661   6.963 -0.3272 -0.2855 -0.4811
    6MOL   O520 3930   0.749   3.563   6.927 -0.4348 -0.1569  0.5525
    6MOL   C521 3931   0.934   3.709   6.893  0.1775  0.3628  0.2420
    6MOL   C522 3932   0.941   3.826   6.815 -0.6253 -0.0797 -0.1342
    6MOL   C523 3933   1.055   3.856   6.734  0.7659 -1.0419 -0.5029
    6MOL   C524 3934   1.172   3.787   6.752 -0.8014  0.0361 -1.1853
    6MOL   O525 3935   1.289   3.826   6.693 -0.0286 -0.0645 -0.2458
    6MOL   C526 3936   1.290   3.846   6.560 -0.2683 -0.2854  0.5751
    6MOL   C527 3937   1.270   3.738   6.470 -0.3140  0.1892  0.7988
    6MOL   C528 3938   1.276   3.754   6.329  0.7672  0.1670 -0.1606
    6MOL   C529 3939   1.311   3.883   6.286  0.2585 -0.2290  0.1154
    6MOL   C530 3940   1.342   3.985   6.379  0.1296 -0.4434  0.1860
    6MOL   C531 3941   1.336   3.970   6.517 -0.1889  0.4779 -0.2294
    6MOL   C532 3942   1.170   3.674   6.836 -0.5503 -1.0712 -0.0791
    6MOL   C533 3943   1.057   3.635   6.911  0.1310 -0.2432  0.7184
    6MOL   H534 3944   0.923   3.903   7.064  1.1196  0.0612  2.2793
    6MOL   H535 3945   0.844   4.052   7.216 -1.6274  0.3985  2.1057
    6MOL   H536 3946   0.510   3.790   7.304  0.3817  0.8638  0.3228
    6MOL   H537 3947   0.577   3.638   7.113 -0.6961  0.3264 -0.4811
    6MOL   H538 3948   0.848   3.873   6.784 -0.5846  0.9657  1.2771
    6MOL   H539 3949   1.048   3.929   6.655 -0.5564 -0.6801 -0.0583
    6MOL   H540 3950   1.251   3.635   6.494  0.0488 -0.5053 -1.7056
    6MOL   H541 3951   1.273   3.672   6.260  0.4306 -1.1292  1.3627
    6MOL   H542 3952   1.376   4.082   6.346  1.1865 -0.3369  1.5057
    6MOL   H543 3953   1.369   4.043   6.590  0.2756 -0.6512  0.7074
    6MOL   H544 3954   1.263   3.620   6.839  0.1705  0.0440 -1.4959
    6MOL   H545 3955   1.048   3.548   6.976  2.3369 -0.9460  0.1267
    6MOL   C546 3956   1.126   3.746   5.889 -0.2571  0.7179 -0.2311
    6MOL   C547 3957   1.231   3.785   5.976 -0.3421  0.2428  0.2120
    6MOL   C548 3958   1.219   3.890   6.072  0.0852  0.1576  0.2787
    6MOL   O549 3959   1.321   3.918   6.154  0.3164 -0.1788  0.3776
    6MOL   C550 3960   1.098   3.955   6.082 -0.6516 -0.1491 -0.8899
    6MOL   C551 3961   0.994   3.910   6.000 -0.3109 -0.4438 -0.6444
    6MOL   C552 3962   1.005   3.816   5.899  0.2193  0.1832 -0.2938
    6MOL   C553 3963   0.886   3.779   5.824  0.6070 -0.6811 -0.0875
    6MOL   O554 3964   0.784   3.754   5.885 -0.3025  0.0907 -0.5397
    6MOL   C555 3965   0.895   3.769   5.672 -0.1603  0.3171  0.7340
    6MOL   C556 3966   1.011   3.794   5.595 -0.1634  0.0900  0.4771
    6MOL   C557 3967   1.015   3.766   5.455  1.0286 -0.1664  0.3381
    6MOL   C558 3968   0.901   3.709   5.388 -0.4798 -1.1563 -0.9129
    6MOL   O559 3969   0.904   3.663   5.262  0.6584 -0.0084  0.2288
    6MOL   C560 3970   0.909   3.755   5.166 -0.3831  0.1264 -0.2068
    6MOL   C561 3971   1.026   3.788   5.100  0.9935 -0.1749 -0.1053
    6MOL   C562 3972   1.030   3.889   5.001 -0.4332  0.2088 -0.1999
    6MOL   C563 3973   0.908   3.952   4.968  0.1678  0.0033  0.1207
    6MOL   C564 3974   0.792   3.917   5.032  0.3371  0.3202  0.3367
    6MOL   C565 3975   0.792   3.814   5.128  0.6082 -0.4465  0.0771
    6MOL   C566 3976   0.793   3.669   5.469 -0.5421  0.2040  0.2767
    6MOL   C567 3977   0.789   3.706   5.604 -0.8702 -0.5087 -1.1361
    6MOL   H568 3978   1.130   3.654   5.832 -2.9328  1.8477 -2.3794
    6MOL   H569 3979   1.319   3.725   5.962 -0.3653  0.4012 -0.6050
    6MOL   H570 3980   1.086   4.034   6.154  1.4952  1.6356 -2.4283
    6MOL   H571 3981   0.897   3.956   6.013  0.8152  1.9335 -0.3811
    6MOL   H572 3982   1.096   3.837   5.646 -1.4594  0.1833  2.5988
    6MOL   H573 3983   1.105   3.795   5.403 -0.3770  1.0691 -1.5006
    6MOL   H574 3984   1.118   3.737   5.126  1.1139  0.9105  1.6527
    6MOL   H575 3985   1.126   3.919   4.962  0.4266  0.5892  2.1239
    6MOL   H576 3986   0.704   3.976   5.009  0.5998  0.7290  0.3839
    6MOL   H577 3987   0.700   3.791   5.180  0.5434 -0.5162 -0.0665
    6MOL   H578 3988   0.718   3.605   5.424 -0.5554 -0.0147  0.6104
    6MOL   H579 3989   0.704   3.676   5.663 -0.5618  0.0621 -0.3936
    6MOL   C580 3990   0.667   3.955   4.607 -0.0883 -0.4361 -0.0858
    6MOL   C581 3991   0.761   3.943   4.710 -0.6305  0.4883  0.4184
    6MOL   C582 3992   0.818   4.056   4.765 -0.2733 -0.1235  0.2311
    6MOL   O583 3993   0.912   4.052   4.871 -0.2790  0.5815 -0.2136
    6MOL   C584 3994   0.783   4.184   4.721  0.4529  0.5685 -0.3834
    6MOL   C585 3995   0.681   4.198   4.625 -0.2724  0.6952  0.7136
    6MOL   C586 3996   0.620   4.080   4.573  0.3394 -0.5610 -0.0106
    6MOL   C587 3997   0.493   4.101   4.481  0.1541  0.2919 -0.1173
    6MOL   O588 3998   0.420   4.198   4.510  0.1248  0.3051  0.2361
    6MOL   C589 3999   0.458   4.015   4.367  0.3412 -0.0226  0.1861
    6MOL   C590 4000   0.332   4.009   4.308 -0.0743 -0.3106 -0.3601
    6MOL   C591 4001   0.296   3.917   4.209  0.1983 -1.0715 -0.6942
    6MOL   C592 4002   0.393   3.821   4.164 -0.0644 -0.9037  0.7124
    6MOL   O593 4003   0.354   3.723   4.082  0.2874  0.1342  0.4155
    6MOL   C594 4004   0.291   3.618   4.154 -0.4877 -0.3602 -0.4939
    6MOL   C595 4005   0.363   3.534   4.248 -0.2596 -0.6819 -0.1404
    6MOL   C596 4006   0.295   3.429   4.314  0.5378 -0.2259 -0.0634
    6MOL   C597 4007   0.160   3.404   4.290 -0.3995  0.0527  0.4291
    6MOL   C598 4008   0.095   3.494   4.202 -0.1217 -0.0207 -0.0043
    6MOL   C599 4009   0.155   3.607   4.142 -0.2692 -0.0270  0.0710
    6MOL   C600 4010   0.522   3.829   4.213 -0.0602  0.0705  0.3583
    6MOL   C601 4011   0.556   3.928   4.310  0.1373 -0.2100  0.1623
    6MOL   H602 4012   0.623   3.867   4.562  1.5169 -1.1348 -0.3234
    6MOL   H603 4013   0.782   3.843   4.745  0.4684  0.4602 -0.2902
    6MOL   H604 4014   0.825   4.270   4.772  1.6938 -0.8060  0.9873
    6MOL   H605 4015   0.641   4.295   4.598 -0.3581  0.4822  0.0643
    6MOL   H606 4016   0.258   4.073   4.353  1.5280  0.2055  1.6193
    6MOL   H607 4017   0.197   3.918   4.166  0.0946  0.8081 -0.4735
    6MOL   H608 4018   0.465   3.564   4.264 -0.7569  0.1256  1.6553
    6MOL   H609 4019   0.346   3.358   4.378  0.0756 -0.1788  0.3569
    6MOL   H610 4020   8.302   3.481   4.185 -0.0759  2.0477 -2.2858
    6MOL   H611 4021   0.099   3.667   4.072  0.1647  0.3323  0.0264
    6MOL   H612 4022   0.599   3.763   4.176 -0.7388 -0.7941  0.4722
    6MOL   H613 4023   0.659   3.931   4.344  0.2498  3.9734 -0.3470
    6MOL   C614 4024   8.278   3.046   4.120 -0.4899 -0.3544 -0.3092
    6MOL   C615 4025   0.059   3.118   4.201  0.3426 -0.0627  0.7807
    6MOL   C616 4026   0.009   3.213   4.289 -0.6239 -0.5549  0.1843
    6MOL   O617 4027   0.094   3.302   4.357 -0.4835 -0.1512  0.0014
    6MOL   C618 4028   8.185   3.231   4.312 -0.6817 -0.1584  0.1400
    6MOL   C619 4029   8.093   3.151   4.246  0.3943 -0.6060 -0.1374
    6MOL   C620 4030   8.140   3.050   4.151  0.0243 -0.5777 -1.0924
    6MOL   C621 4031   8.038   2.961   4.093  0.4509  0.1474 -0.1280
    6MOL   O622 4032   7.938   2.919   4.152  0.1199 -0.0028  0.6090
    6MOL   C623 4033   8.066   2.914   3.950 -0.3621 -0.0899 -0.2139
    6MOL   C624 4034   8.089   2.780   3.915 -0.1085  0.7398 -0.1304
    6MOL   C625 4035   8.120   2.740   3.782  0.2446 -0.6414  0.4578
    6MOL   C626 4036   8.129   2.840   3.684  0.0461  0.2858 -0.0585
    6MOL   O627 4037   8.146   2.815   3.547  0.4265 -0.0424 -0.6227
    6MOL   C628 4038   8.231   2.720   3.508 -0.4303  0.8662  0.0545
    6MOL   C629 4039   8.182   2.595   3.456 -0.1077 -0.0780  0.3502
    6MOL   C630 4040   8.272   2.507   3.394  0.0020 -0.0765  0.0432
    6MOL   C631 4041   0.100   2.546   3.386  0.6689 -0.0627  0.1251
    6MOL   C632 4042   0.146   2.671   3.431  0.0186  0.1851 -0.1128
    6MOL   C633 4043   0.053   2.758   3.492 -0.1302 -0.5085 -0.7521
    6MOL   C634 4044   8.106   2.975   3.717 -0.1143 -0.1425 -0.7640
    6MOL   C635 4045   8.070   3.010   3.845 -0.2330  0.6467 -0.1713
    6MOL   H636 4046   8.312   2.987   4.036  0.5048 -0.7107  0.3327
    6MOL   H637 4047   0.164   3.104   4.180  0.4219 -0.0099  1.1316
    6MOL   H638 4048   8.146   3.312   4.373  0.5698  0.2897  0.3624
    6MOL   H639 4049   7.991   3.159   4.278  1.3000 -0.7078  2.9441
    6MOL   H640 4050   8.080   2.702   3.988  1.4388 -1.0653 -1.8325
    6MOL   H641 4051   8.127   2.635   3.756  0.9451 -0.3671 -0.5060
    6MOL   H642 4052   8.075   2.583   3.459 -0.2953  0.6218 -2.3208
    6MOL   H643 4053   8.224   2.419   3.354  0.9400  0.1010 -1.5118
    6MOL   H644 4054   0.250   2.698   3.420  0.4491 -0.5038  1.9546
    6MOL   H645 4055   0.095   2.853   3.520 -0.3909 -1.1545  1.9221
    6MOL   H646 4056   8.102   3.049   3.640 -1.5208 -0.6727 -1.2231
    6MOL   H647 4057   8.072   3.115   3.871  1.8094  0.6302 -0.2392
    6MOL   C648 4058   0.339   2.506   3.010 -0.1348  0.8861  0.8609
    6MOL   C649 4059   0.317   2.515   3.151 -0.1713 -0.7211  0.3571
    6MOL   C650 4060   0.206   2.448   3.214  0.5859  0.5154 -0.0916
    6MOL   O651 4061   0.187   2.455   3.345 -0.1633 -0.0137  0.0335
    6MOL   C652 4062   0.126   2.367   3.130 -0.0444 -0.2277 -0.1244
    6MOL   C653 4063   0.141   2.364   2.987  0.2700 -0.1188 -0.2139
    6MOL   C654 4064   0.247   2.436   2.927  0.2101 -0.0222 -0.5191
    6MOL   C655 4065   0.280   2.415   2.778  0.1368  0.7734  0.5278
    6MOL   O656 4066   0.392   2.442   2.735  0.3614 -0.4102 -0.8523
    6MOL   C657 4067   0.172   2.376   2.687 -0.1118  0.2878  0.2966
    6MOL   C658 4068   0.125   2.476   2.598  0.4015 -0.1236 -0.9080
    6MOL   C659 4069   0.032   2.436   2.503  0.4377 -2.4080  0.2042
    6MOL   C660 4070   8.293   2.302   2.496 -0.5190 -0.1127  0.0985
    6MOL   O661 4071   8.208   2.271   2.397 -0.3978  0.0781 -0.0273
    6MOL   C662 4072   8.077   2.253   2.425  0.6983 -0.7257  0.0748
    6MOL   C663 4073   8.005   2.139   2.376  0.2000  0.1115 -0.7463
    6MOL   C664 4074   7.865   2.133   2.383  0.2179 -0.6418 -0.7943
    6MOL   C665 4075   7.792   2.239   2.443  0.1774  0.6670 -0.5585
    6MOL   C666 4076   7.859   2.350   2.494  0.1568  0.5568  0.1545
    6MOL   C667 4077   8.002   2.359   2.479 -0.5309  0.2493  0.0988
    6MOL   C668 4078   0.033   2.205   2.586  0.1355  0.3195  0.2377
    6MOL   C669 4079   0.125   2.245   2.679  0.1601  0.0220  0.1153
    6MOL   H670 4080   0.424   2.558   2.970  0.6737  1.6397  3.4316
    6MOL   H671 4081   0.377   2.583   3.209  1.4983 -0.7300 -1.2837
    6MOL   H672 4082   0.042   2.322   3.181 -0.0038 -1.2320 -0.9319
    6MOL   H673 4083   0.079   2.300   2.926  0.9843  0.7453 -1.8836
    6MOL   H674 4084   0.156   2.579   2.609 -0.3279 -0.0455  0.5825
    6MOL   H675 4085   8.301   2.510   2.438  0.0469 -2.6202  0.2174
    6MOL   H676 4086   8.052   2.044   2.354 -2.7929 -1.2405 -1.5728
    6MOL   H677 4087   7.819   2.039   2.355 -0.5563 -0.2149 -0.9448
    6MOL   H678 4088   7.799   2.426   2.541 -0.8537 -1.0387  1.5123
    6MOL   H679 4089   8.046   2.454   2.508 -0.7547  0.1739  0.6970
    6MOL   H680 4090   0.002   2.102   2.600  0.8344  0.1757  0.7372
    6MOL   H681 4091   0.161   2.177   2.755 -0.3112  2.0864  2.2322
    6MOL   H682 4092   7.686   2.228   2.461  0.1748  0.0259 -0.9505
    7MOL     C1 4093   4.215   6.348   4.657  0.6559 -0.0167  0.3363
    7MOL     C2 4094   4.200   6.384   4.519 -0.5604 -0.0317 -0.1947
    7MOL     C3 4095   4.309   6.374   4.433  0.2365 -0.2903  0.4662
    7MOL     O4 4096   4.292   6.409   4.305  0.7247 -0.0218 -0.0777
    7MOL     C5 4097   4.428   6.329   4.487 -0.5394  0.1760 -0.1938
    7MOL     C6 4098   4.446   6.305   4.622  0.5937  0.5030 -0.6546
    7MOL     C7 4099   4.338   6.309   4.713  0.2262  0.1512  0.2170
    7MOL     C8 4100   4.349   6.295   4.858  0.8427 -0.9184  0.0699
    7MOL     O9 4101   4.454   6.339   4.910  0.2492  0.4040 -0.3832
    7MOL    C10 4102   4.238   6.258   4.948  0.1813 -0.5555  0.3705
    7MOL    C11 4103   4.236   6.302   5.085  0.3749  0.1603 -0.1506
    7MOL    C12 4104   4.120   6.277   5.163  0.1191  0.1740  0.9046
    7MOL    C13 4105   4.018   6.191   5.113  0.1305  0.1599  0.3967
    7MOL    O14 4106   3.908   6.165   5.190  0.0132  0.7986 -0.2554
    7MOL    C15 4107   3.904   6.164   5.325  0.3427 -0.0558  0.1619
    7MOL    C16 4108   3.794   6.216   5.389 -0.1162  0.9566 -0.2813
    7MOL    C17 4109   3.794   6.222   5.532 -0.0904 -0.5639 -0.5052
    7MOL    C18 4110   3.896   6.161   5.608  0.3961  0.3426  0.3434
    7MOL    C19 4111   4.004   6.099   5.548 -0.6892  0.1230  0.2903
    7MOL    C20 4112   4.011   6.112   5.407  0.1148  0.2583  0.2744
    7MOL    C21 4113   4.032   6.130   4.987 -0.4996  0.2587  0.0985
    7MOL    C22 4114   4.139   6.170   4.900  0.3121  0.0108 -0.3900
    7MOL    H23 4115   4.128   6.358   4.721  0.2511  1.7491 -0.4409
    7MOL    H24 4116   4.103   6.411   4.479 -1.4095 -1.1331  1.1198
    7MOL    H25 4117   4.514   6.329   4.422 -0.1126  1.4288  0.3527
    7MOL    H26 4118   4.545   6.282   4.656  0.7184  1.2033 -0.5322
    7MOL    H27 4119   4.319   6.360   5.124  0.8888 -1.9503  2.0430
    7MOL    H28 4120   4.104   6.323   5.259  2.5091  1.3216  0.7897
    7MOL    H29 4121   3.712   6.251   5.328  0.2651  0.1777 -1.2577
    7MOL    H30 4122   3.714   6.257   5.596 -1.5132 -2.4717 -1.1736
    7MOL    H31 4123   4.085   6.053   5.602 -1.5925  0.3672  1.8867
    7MOL    H32 4124   4.097   6.077   5.352 -0.0712 -1.5954  1.1354
    7MOL    H33 4125   3.957   6.066   4.944 -0.0179 -0.1281 -0.1630
    7MOL    H34 4126   4.143   6.125   4.802 -0.9314 -1.5770  0.2644
    7MOL    H35 4127   4.205   6.399   4.268  0.2124  2.3777  0.4237
    7MOL    C36 4128   4.084   6.242   6.053  0.1006 -0.1216  0.3357
    7MOL    C37 4129   3.996   6.174   5.963  0.6741 -0.0411  1.1829
    7MOL    C38 4130   3.979   6.219   5.831  0.0862 -0.2830 -0.2354
    7MOL    O39 4131   3.884   6.157   5.746  0.1915  0.2537 -0.2511
    7MOL    C40 4132   4.069   6.320   5.787  0.7282 -0.3705 -0.0301
    7MOL    C41 4133   4.156   6.388   5.875 -0.0594  0.1549 -0.3038
    7MOL    C42 4134   4.162   6.356   6.014  0.7329  0.2644 -0.0826
    7MOL    C43 4135   4.248   6.438   6.110  0.0560  0.1236  0.1064
    7MOL    O44 4136   4.291   6.394   6.217 -0.2943 -0.0298  0.2836
    7MOL    C45 4137   4.290   6.575   6.068  0.1496 -0.4888 -0.2033
    7MOL    C46 4138   4.418   6.612   6.095  0.3704 -0.6155 -0.4048
    7MOL    C47 4139   4.464   6.744   6.063 -0.2840  0.3428  0.0645
    7MOL    C48 4140   4.375   6.835   6.004  0.0224  0.6499  0.5794
    7MOL    O49 4141   4.414   6.965   5.978  0.1269  0.5130  0.2236
    7MOL    C50 4142   4.496   6.983   5.871  0.2365  0.2733 -0.2012
    7MOL    C51 4143   4.600   7.077   5.891 -0.0005 -0.2196  0.0276
    7MOL    C52 4144   4.688   7.109   5.788 -0.2262 -0.5760 -0.1521
    7MOL    C53 4145   4.675   7.033   5.669 -0.0707 -0.0918  0.3419
    7MOL    C54 4146   4.569   6.940   5.649 -0.0070  0.5470  0.4119
    7MOL    C55 4147   4.474   6.917   5.749 -0.3953 -0.3206 -0.1557
    7MOL    C56 4148   4.241   6.795   5.988  0.1560 -0.2885  0.2657
    7MOL    C57 4149   4.195   6.665   6.026  0.1651 -0.5819  0.5094
    7MOL    H58 4150   4.098   6.190   6.147  0.3065  1.6386  1.3029
    7MOL    H59 4151   3.944   6.085   5.998  2.2095 -1.8681 -1.0538
    7MOL    H60 4152   4.075   6.348   5.683 -0.6909  1.2348  0.2861
    7MOL    H61 4153   4.222   6.464   5.834  0.6930 -0.5171 -0.3409
    7MOL    H62 4154   4.480   6.548   6.155  3.8068  2.1373 -0.8005
    7MOL    H63 4155   4.568   6.771   6.076  0.2304 -1.3427 -0.4803
    7MOL    H64 4156   4.602   7.143   5.977  0.6343  1.2105 -1.0536
    7MOL    H65 4157   4.766   7.183   5.795  0.4928 -1.4349  1.2000
    7MOL    H66 4158   4.547   6.891   5.555 -2.2751  2.1417  0.0824
    7MOL    H67 4159   4.405   6.835   5.740 -0.9165 -0.1388  1.9569
    7MOL    H68 4160   4.164   6.855   5.940 -0.6196 -1.3134  0.2084
    7MOL    H69 4161   4.092   6.635   6.012  0.3687 -2.4088  2.6612
    7MOL    C70 4162   5.080   7.235   5.582  0.7042  0.3249 -1.0705
    7MOL    C71 4163   4.940   7.210   5.563  0.1763 -0.0839  0.4163
    7MOL    C72 4164   4.898   7.078   5.583  0.2359  0.3171  0.1521
    7MOL    O73 4165   4.767   7.043   5.563 -0.0390 -0.6300  0.2884
    7MOL    C74 4166   4.993   6.977   5.630 -0.1619  0.0550  0.1448
    7MOL    C75 4167   5.129   7.005   5.642  0.2481 -0.1049  0.2413
    7MOL    C76 4168   5.170   7.139   5.623 -0.0034  0.5822  0.2576
    7MOL    C77 4169   5.317   7.163   5.627  0.7165  0.3546 -0.1588
    7MOL    O78 4170   5.374   7.225   5.542  0.1477 -0.0446  0.2300
    7MOL    C79 4171   5.386   7.107   5.751  0.1516 -0.0698  0.5006
    7MOL    C80 4172   5.324   7.109   5.877 -0.5415 -0.5836 -0.3511
    7MOL    C81 4173   5.398   7.060   5.991  0.3748 -0.3047 -0.2732
    7MOL    C82 4174   5.531   7.012   5.982  0.4740 -0.3726  0.2416
    7MOL    O83 4175   5.592   6.949   6.090 -0.0444  0.2264 -0.4460
    7MOL    C84 4176   5.658   7.027   6.182  0.6062  0.1556 -0.2842
    7MOL    C85 4177   5.588   7.052   6.303  0.0247 -0.0119 -0.2326
    7MOL    C86 4178   5.647   7.127   6.397  0.2546  0.3810 -0.4953
    7MOL    C87 4179   5.785   7.162   6.384 -0.4089 -0.1234  0.2394
    7MOL    C88 4180   5.858   7.139   6.268  0.0889  0.2775  0.0609
    7MOL    C89 4181   5.797   7.060   6.162  0.2357  0.2733  0.0168
    7MOL    C90 4182   5.592   7.014   5.852  0.1379 -0.3885 -0.3394
    7MOL    C91 4183   5.515   7.056   5.741  0.1869 -0.5611 -0.1009
    7MOL    H92 4184   5.115   7.336   5.564  1.4935 -0.1222 -2.0672
    7MOL    H93 4185   4.869   7.286   5.536  1.9827  1.3753 -0.3028
    7MOL    H94 4186   4.963   6.875   5.650 -3.2426  0.9749  0.5401
    7MOL    H95 4187   5.198   6.931   5.682 -0.0512  0.5208  1.9611
    7MOL    H96 4188   5.222   7.141   5.888 -0.2403  0.2225  0.1508
    7MOL    H97 4189   5.348   7.065   6.087  0.6505  0.9624 -0.1899
    7MOL    H98 4190   5.486   7.027   6.326 -0.5623 -1.0001 -3.5871
    7MOL    H99 4191   5.599   7.144   6.492 -2.0048  1.1475 -1.7370
    7MOL   H100 4192   5.964   7.158   6.259  0.2470 -0.6544 -0.1771
    7MOL   H101 4193   5.862   7.031   6.080  0.1172 -0.8889  0.3253
    7MOL   H102 4194   5.693   6.977   5.842  0.7568  0.8002  1.3351
    7MOL   H103 4195   5.554   7.041   5.642 -0.8330 -0.5039 -0.5086
    7MOL   C104 4196   6.031   6.975   6.694  0.7344  0.1956  0.3147
    7MOL   C105 4197   5.926   7.039   6.622 -0.3647 -0.1567  0.4841
    7MOL   C106 4198   5.943   7.166   6.564 -0.9272 -1.0678 -0.7422
    7MOL   O107 4199   5.839   7.228   6.496 -0.2363 -0.4408 -0.1955
    7MOL   C108 4200   6.071   7.234   6.580 -0.4416  0.0552 -0.0012
    7MOL   C109 4201   6.173   7.163   6.650 -0.2607  0.3946 -0.0630
    7MOL   C110 4202   6.155   7.034   6.704  0.0464  0.1497 -0.3149
    7MOL   C111 4203   6.248   6.978   6.807  0.0550  0.8279 -0.5524
    7MOL   O112 4204   6.209   6.929   6.919  0.3643 -0.0848  0.3795
    7MOL   C113 4205   6.398   7.001   6.792  0.6615  0.3444  0.0722
    7MOL   C114 4206   6.455   6.996   6.662  0.5059  0.5443 -0.3457
    7MOL   C115 4207   6.590   7.008   6.644  0.0312 -0.1125 -0.2608
    7MOL   C116 4208   6.683   7.034   6.759 -0.1567 -0.2787 -0.0757
    7MOL   O117 4209   6.812   7.057   6.732  0.6013 -0.3659 -0.3447
    7MOL   C118 4210   6.852   7.177   6.681  0.4856  0.0840 -0.7395
    7MOL   C119 4211   6.940   7.182   6.568 -0.3351  0.7990  0.0333
    7MOL   C120 4212   6.994   7.304   6.525  0.3131 -0.5168 -0.6100
    7MOL   C121 4213   6.952   7.421   6.598  0.1561 -0.3116  0.0366
    7MOL   C122 4214   6.872   7.411   6.713 -0.0252  0.1404  0.4482
    7MOL   C123 4215   6.827   7.291   6.756 -0.2154 -0.1385 -0.4387
    7MOL   C124 4216   6.616   7.050   6.881  0.0985  0.7059  0.1229
    7MOL   C125 4217   6.478   7.027   6.902  1.0942  0.6470 -0.2445
    7MOL   H126 4218   6.015   6.875   6.732  1.7420  1.6826  4.9920
    7MOL   H127 4219   5.832   6.987   6.613  0.3776 -1.6651  1.0992
    7MOL   H128 4220   6.070   7.338   6.550 -0.5209 -0.3653 -1.5040
    7MOL   H129 4221   6.259   7.224   6.671 -0.5295  0.5556  0.5685
    7MOL   H130 4222   6.383   6.988   6.582  1.7728  1.4244 -1.6074
    7MOL   H131 4223   6.627   7.004   6.542  0.6087 -1.4463 -0.0084
    7MOL   H132 4224   6.953   7.096   6.505 -0.1193  0.2234  0.8477
    7MOL   H133 4225   7.059   7.309   6.439 -2.2269  1.4796 -2.5070
    7MOL   H134 4226   6.852   7.501   6.769  2.0368  0.2782  0.9967
    7MOL   H135 4227   6.769   7.275   6.846  0.9895 -0.3271  0.3048
    7MOL   H136 4228   6.681   7.061   6.966  0.1400  2.1524 -0.0698
    7MOL   H137 4229   6.428   7.034   6.998 -0.0536  2.0606 -0.9289
    7MOL   C138 4230   6.718   7.800   6.556 -0.5684 -0.0486 -0.1395
    7MOL   C139 4231   6.839   7.736   6.605 -0.3008 -0.8756 -0.8868
    7MOL   C140 4232   6.902   7.638   6.530 -0.5217 -1.4780  0.1473
    7MOL   O141 4233   6.993   7.553   6.573  0.1095 -0.1528  0.4739
    7MOL   C142 4234   6.863   7.626   6.395  0.0322 -0.0197  0.2904
    7MOL   C143 4235   6.755   7.689   6.345  0.3459 -0.7681 -0.9423
    7MOL   C144 4236   6.672   7.776   6.421  0.3657  0.0135  0.2420
    7MOL   C145 4237   6.540   7.832   6.377 -0.0791  1.0837 -0.1760
    7MOL   O146 4238   6.443   7.751   6.370  0.4849  0.0330  0.2649
    7MOL   C147 4239   6.522   7.980   6.348  0.0259 -0.4678  0.1824
    7MOL   C148 4240   6.387   8.018   6.318 -0.5204 -0.6289 -0.1483
    7MOL   C149 4241   6.362   8.158   6.282 -0.0002 -0.0770  0.2406
    7MOL   C150 4242   6.469   8.249   6.276 -0.5252  0.2897  0.9294
    7MOL   O151 4243   6.453   0.068   6.273 -0.2015  0.2517 -0.2460
    7MOL   C152 4244   6.333   0.113   6.225 -0.4158 -0.3539 -0.4269
    7MOL   C153 4245   6.229   0.150   6.316  0.5895  0.4215 -0.4617
    7MOL   C154 4246   6.104   0.179   6.261  0.1903  0.5716 -1.0347
    7MOL   C155 4247   6.079   0.185   6.123  0.2305 -0.4089  0.5288
    7MOL   C156 4248   6.187   0.161   6.032 -0.4210  0.4401 -0.1582
    7MOL   C157 4249   6.318   0.136   6.085  0.5730 -0.8084  0.9234
    7MOL   C158 4250   6.602   8.203   6.302 -0.3762  0.2749 -0.0198
    7MOL   C159 4251   6.631   8.072   6.340  0.3968  0.5100  0.3269
    7MOL   H160 4252   6.656   7.864   6.618 -2.0966 -1.0656 -0.5973
    7MOL   H161 4253   6.867   7.747   6.709 -2.5154  1.6789 -0.5004
    7MOL   H162 4254   6.915   7.551   6.336 -2.0760 -1.0951 -0.2397
    7MOL   H163 4255   6.730   7.677   6.241 -1.6152  1.8933 -0.8478
    7MOL   H164 4256   6.304   7.953   6.340 -0.4114 -0.4755  0.7485
    7MOL   H165 4257   6.257   8.181   6.265  0.0313 -0.0026  0.1480
    7MOL   H166 4258   6.238   0.142   6.423  1.1223 -0.4699 -0.5691
    7MOL   H167 4259   6.029   0.179   6.338  2.7930 -0.9834  1.5877
    7MOL   H168 4260   6.165   0.162   5.927 -0.6821 -0.6899 -0.1236
    7MOL   H169 4261   6.398   0.125   6.012 -0.2196 -0.0369 -0.0766
    7MOL   H170 4262   6.684   8.274   6.293  1.6963 -2.0031  0.2500
    7MOL   H171 4263   6.733   8.041   6.356  0.3106  0.0110 -0.0525
    7MOL   C172 4264   5.661   0.099   6.287  0.4518  0.5103  0.0042
    7MOL   C173 4265   5.766   0.179   6.241  0.0555  0.0315  0.6250
    7MOL   C174 4266   5.849   0.130   6.138 -0.5443  0.6936  0.2800
    7MOL   O175 4267   5.947   0.206   6.079  0.8414 -0.1917  0.0796
    7MOL   C176 4268   5.816   0.005   6.078  0.8780 -0.0257  0.0544
    7MOL   C177 4269   5.704   8.240   6.118 -0.0797  0.2052  0.2989
    7MOL   C178 4270   5.631   8.288   6.227  0.3256  1.1149  0.0879
    7MOL   C179 4271   5.514   8.208   6.276  0.4980 -0.3918  0.0928
    7MOL   O180 4272   5.409   8.265   6.303 -0.4196 -0.5812 -0.1162
    7MOL   C181 4273   5.521   8.055   6.271 -0.5732 -0.2812  0.3741
    7MOL   C182 4274   5.636   7.986   6.316  1.0479  0.3732  0.9454
    7MOL   C183 4275   5.638   7.850   6.321 -0.3752 -0.3545  0.0685
    7MOL   C184 4276   5.522   7.771   6.296  0.0633 -0.3218  0.3828
    7MOL   O185 4277   5.527   7.631   6.291  0.1000  0.1483  0.1032
    7MOL   C186 4278   5.501   7.545   6.394  0.2651 -0.6510 -0.1407
    7MOL   C187 4279   5.605   7.492   6.479 -0.0930 -0.4124 -0.1418
    7MOL   C188 4280   5.573   7.418   6.590 -0.5941  0.4068  0.4518
    7MOL   C189 4281   5.438   7.375   6.604 -0.3327  0.1232  0.2680
    7MOL   C190 4282   5.337   7.415   6.512 -0.8663  0.5897  0.2000
    7MOL   C191 4283   5.372   7.500   6.407  0.4217 -0.0439 -0.5432
    7MOL   C192 4284   5.403   7.838   6.257  0.4263  0.2578 -0.4546
    7MOL   C193 4285   5.399   7.980   6.245 -0.4412 -0.6070  0.0284
    7MOL   H194 4286   5.589   0.134   6.359  1.8919  0.1867  1.6672
    7MOL   H195 4287   5.763   0.287   6.246  1.1638  0.0953  0.1554
    7MOL   H196 4288   5.876   8.285   5.994 -0.0790  2.1286 -1.5079
    7MOL   H197 4289   5.697   8.140   6.078 -1.9445 -0.3744  1.9628
    7MOL   H198 4290   5.730   8.033   6.340  0.4671  3.1044 -1.8355
    7MOL   H199 4291   5.729   7.797   6.344  0.0576 -0.5322 -1.9476
    7MOL   H200 4292   5.706   7.517   6.449 -0.0181 -0.2998  0.2021
    7MOL   H201 4293   5.648   7.379   6.656 -0.8655  0.7394  0.9573
    7MOL   H202 4294   5.236   7.383   6.532  0.1454 -2.7960  0.2618
    7MOL   H203 4295   5.297   7.544   6.344  2.1034  2.5915 -0.7717
    7MOL   H204 4296   5.317   7.773   6.249 -0.5395  1.5203 -0.4270
    7MOL   H205 4297   5.303   8.024   6.226  0.2899  0.5649 -1.0464
    7MOL   C206 4298   5.529   6.946   6.727  0.2303  0.2048  0.7128
    7MOL   C207 4299   5.524   7.086   6.745  0.2483 -0.5115  0.5667
    7MOL   C208 4300   5.414   7.160   6.706  0.1630  0.3619  0.3750
    7MOL   O209 4301   5.406   7.296   6.710 -0.6501  0.0256  0.3000
    7MOL   C210 4302   5.296   7.085   6.658  0.4365  0.3513  0.3980
    7MOL   C211 4303   5.301   6.948   6.628  0.1294  0.2125 -0.1889
    7MOL   C212 4304   5.414   6.879   6.673 -0.2914  0.4586 -0.4275
    7MOL   C213 4305   5.409   6.727   6.681  0.6233 -0.1643 -0.5116
    7MOL   O214 4306   5.500   6.652   6.642 -0.1229 -0.5850 -0.0281
    7MOL   C215 4307   5.282   6.671   6.728  0.0207  0.2013  0.8083
    7MOL   C216 4308   5.263   6.660   6.868  0.1758  0.1158  0.3621
    7MOL   C217 4309   5.147   6.607   6.917  0.2508  0.6718 -0.3771
    7MOL   C218 4310   5.034   6.580   6.833 -0.6413  0.3429 -0.3934
    7MOL   O219 4311   4.914   6.539   6.886  0.2433  0.0711 -0.2131
    7MOL   C220 4312   4.871   6.405   6.874 -0.3301 -0.1358 -0.3205
    7MOL   C221 4313   4.739   6.373   6.897  0.3212  0.3103 -0.1232
    7MOL   C222 4314   4.692   6.242   6.886  0.1793 -0.9781 -0.1965
    7MOL   C223 4315   4.783   6.141   6.846 -0.3494 -0.1118  1.0609
    7MOL   C224 4316   4.918   6.167   6.837 -0.7039  0.4200  0.4639
    7MOL   C225 4317   4.963   6.296   6.852  0.0781  0.4399  0.3227
    7MOL   C226 4318   5.044   6.599   6.693 -1.0637 -0.2660  0.6580
    7MOL   C227 4319   5.169   6.646   6.644  0.2842 -0.1387  0.3994
    7MOL   H228 4320   5.613   6.885   6.758  0.7383 -0.7197 -2.2958
    7MOL   H229 4321   5.612   7.136   6.781  0.2596 -0.6546  0.7377
    7MOL   H230 4322   5.208   7.138   6.624  2.5627  2.8808 -1.3816
    7MOL   H231 4323   5.212   6.900   6.590  0.3242  0.6443 -1.2313
    7MOL   H232 4324   5.339   6.686   6.941  0.5162 -1.8818  0.7439
    7MOL   H233 4325   5.133   6.601   7.024  2.2641  1.9822 -0.0138
    7MOL   H234 4326   4.672   6.456   6.913  0.8947  1.0337 -1.3534
    7MOL   H235 4327   4.589   6.213   6.900  0.0252 -0.6132 -0.5474
    7MOL   H236 4328   4.983   6.086   6.806 -2.2219 -0.2398 -1.0731
    7MOL   H237 4329   5.069   6.312   6.843  0.2007 -1.2358 -1.2803
    7MOL   H238 4330   4.963   6.565   6.630 -0.0316 -0.0453 -0.8122
    7MOL   H239 4331   5.174   6.657   6.537 -1.1290  1.8712  0.5268
    7MOL   C240 4332   4.514   5.941   6.541 -0.0395  1.0061 -0.2165
    7MOL   C241 4333   4.556   5.972   6.669 -0.1741 -0.3356 -0.3412
    7MOL   C242 4334   4.695   5.994   6.684 -0.1674  0.0412 -0.3408
    7MOL   O243 4335   4.737   6.018   6.809  0.1443 -0.2538  0.1299
    7MOL   C244 4336   4.785   5.968   6.581  0.7354 -0.8414 -1.1981
    7MOL   C245 4337   4.735   5.925   6.455 -0.4851  0.6940  0.3726
    7MOL   C246 4338   4.600   5.914   6.431 -0.0807  0.2910 -0.0465
    7MOL   C247 4339   4.548   5.888   6.300 -0.2649 -0.2445  0.2233
    7MOL   O248 4340   4.518   5.770   6.270  0.1200 -0.1650  0.2680
    7MOL   C249 4341   4.540   5.993   6.197  0.1502  0.2409  0.4664
    7MOL   C250 4342   4.555   6.129   6.229 -0.1753  0.0276  0.8592
    7MOL   C251 4343   4.556   6.224   6.126 -0.0975 -0.4492 -0.1176
    7MOL   C252 4344   4.534   6.185   5.991  0.1546  0.3866 -0.0589
    7MOL   O253 4345   4.526   6.275   5.887 -0.3825 -0.1108 -0.7891
    7MOL   C254 4346   4.625   6.370   5.873  0.0995 -0.2976  0.1998
    7MOL   C255 4347   4.759   6.342   5.884  0.4919 -0.5811  0.1153
    7MOL   C256 4348   4.857   6.441   5.863  0.1872 -0.1279 -0.0898
    7MOL   C257 4349   4.825   6.573   5.831 -0.2620  1.2205  0.6309
    7MOL   C258 4350   4.690   6.598   5.801 -0.6579 -0.1535 -0.0179
    7MOL   C259 4351   4.586   6.503   5.828  0.4307 -0.1142  0.7292
    7MOL   C260 4352   4.525   6.047   5.956  0.1655 -0.5158 -0.4159
    7MOL   C261 4353   4.532   5.955   6.062 -0.0206  0.2426 -0.1637
    7MOL   H262 4354   4.407   5.938   6.526  0.1620 -0.8694 -1.3912
    7MOL   H263 4355   4.486   5.999   6.747  0.9947  2.0858 -0.0724
    7MOL   H264 4356   4.891   5.982   6.595  0.3133  2.1589 -0.7443
    7MOL   H265 4357   4.802   5.902   6.374  2.0717  0.6178  2.4282
    7MOL   H266 4358   4.559   6.160   6.333 -4.6811  1.2996  0.7827
    7MOL   H267 4359   4.555   6.330   6.148  0.0893 -0.2057 -1.2341
    7MOL   H268 4360   4.793   6.244   5.913 -1.2267 -1.7989 -1.8823
    7MOL   H269 4361   4.957   6.411   5.892  0.0441  1.1565  1.8067
    7MOL   H270 4362   4.666   6.695   5.760  0.7309  0.0832 -0.2938
    7MOL   H271 4363   4.481   6.518   5.807  0.0550 -1.4842  1.5102
    7MOL   H272 4364   4.539   6.013   5.855  1.0432  0.1208 -0.5182
    7MOL   H273 4365   4.530   5.851   6.036  1.0401  0.4972 -1.3316
    7MOL   C274 4366   5.075   6.724   6.149  0.7969  0.1642 -0.1973
    7MOL   C275 4367   4.968   6.716   6.049  0.2875 -0.3016  0.9841
    7MOL   C276 4368   5.006   6.695   5.915 -0.2001 -0.4328  0.1059
    7MOL   O277 4369   4.922   6.666   5.812 -0.4962 -0.0447  0.3926
    7MOL   C278 4370   5.152   6.705   5.891  0.5433  0.1820  0.7433
    7MOL   C279 4371   5.251   6.726   5.981 -0.4251  0.2320  0.0537
    7MOL   C280 4372   5.212   6.731   6.118 -0.5738 -0.2882  0.8287
    7MOL   C281 4373   5.311   6.745   6.223  0.3840  0.0778  1.0190
    7MOL   O282 4374   5.278   6.817   6.318 -0.7357 -0.3494  0.1357
    7MOL   C283 4375   5.440   6.670   6.223 -0.5595  0.4856  0.3193
    7MOL   C284 4376   5.536   6.700   6.323 -0.7434  0.2527  0.1690
    7MOL   C285 4377   5.648   6.619   6.342 -0.4031 -0.6084  0.8638
    7MOL   C286 4378   5.664   6.512   6.253  0.3197 -0.5732  0.5546
    7MOL   O287 4379   5.765   6.427   6.275  0.1949  0.4275  0.2707
    7MOL   C288 4380   5.729   6.327   6.360 -0.3733 -0.6124  0.1295
    7MOL   C289 4381   5.723   6.339   6.498 -0.4322 -0.2692 -0.2535
    7MOL   C290 4382   5.703   6.216   6.576  0.6215 -0.2572 -0.1698
    7MOL   C291 4383   5.682   6.088   6.512 -0.2143  0.1632 -0.5549
    7MOL   C292 4384   5.680   6.083   6.371  0.0489  0.2532  0.0784
    7MOL   C293 4385   5.710   6.199   6.298  0.9314 -0.7785  0.9606
    7MOL   C294 4386   5.576   6.487   6.145  0.2949 -0.4574 -0.1458
    7MOL   C295 4387   5.465   6.567   6.131 -0.2784  0.0043  0.2289
    7MOL   H296 4388   5.041   6.730   6.251  0.0879  0.7282 -0.4678
    7MOL   H297 4389   4.865   6.721   6.080 -1.2347 -0.5976 -3.6961
    7MOL   H298 4390   5.178   6.710   5.786  0.7525 -0.6276  0.7550
    7MOL   H299 4391   5.356   6.734   5.955  0.4403 -1.8426  2.6085
    7MOL   H300 4392   5.510   6.774   6.398  0.8127  0.2817  0.6876
    7MOL   H301 4393   5.710   6.644   6.427  0.8740  1.8151 -0.7345
    7MOL   H302 4394   5.745   6.434   6.545 -2.1381  1.0628 -2.0297
    7MOL   H303 4395   5.709   6.217   6.683  0.4663 -1.3056 -0.1509
    7MOL   H304 4396   5.640   6.001   6.314 -0.3082  1.2937 -1.1808
    7MOL   H305 4397   5.722   6.201   6.190  1.2731  1.2554  1.0041
    7MOL   H306 4398   5.587   6.400   6.082 -1.5888  0.2535 -1.5065
    7MOL   H307 4399   5.397   6.530   6.057  0.3139  1.7570 -1.2265
    7MOL   C308 4400   5.295   5.891   6.573 -0.1143 -0.1919 -0.3731
    7MOL   C309 4401   5.412   5.957   6.609  0.1126 -0.0913 -0.0495
    7MOL   C310 4402   5.534   5.909   6.565 -0.4822  1.2892  1.6254
    7MOL   O311 4403   5.655   5.976   6.588 -0.2632 -0.5230 -0.1216
    7MOL   C312 4404   5.543   5.784   6.493 -0.0972 -0.3899 -0.0545
    7MOL   C313 4405   5.422   5.731   6.441 -0.4348 -0.2943 -0.7299
    7MOL   C314 4406   5.293   5.788   6.482 -0.0730  0.4391  1.1217
    7MOL   C315 4407   5.163   5.740   6.423  0.3724  0.6846 -0.3632
    7MOL   O316 4408   5.068   5.813   6.402 -0.2823 -0.5267  0.2737
    7MOL   C317 4409   5.139   5.598   6.377 -0.3107  0.1459  0.0314
    7MOL   C318 4410   5.030   5.567   6.292 -0.0427  0.5156  0.1001
    7MOL   C319 4411   4.983   5.440   6.268  0.7967  0.6737  0.0177
    7MOL   C320 4412   5.060   5.336   6.311 -0.6010 -1.1486  0.7350
    7MOL   O321 4413   5.008   5.207   6.294 -0.0048 -0.3761 -0.0346
    7MOL   C322 4414   5.084   5.111   6.219 -0.6422  0.3577 -0.0484
    7MOL   C323 4415   5.100   4.984   6.266 -0.4685  0.3984  0.4108
    7MOL   C324 4416   5.168   4.884   6.195 -0.8675  0.1962 -0.2525
    7MOL   C325 4417   5.207   4.911   6.060 -0.1600  0.1912  0.2973
    7MOL   C326 4418   5.185   5.041   6.001  0.4378 -0.2318 -0.1307
    7MOL   C327 4419   5.119   5.133   6.084  0.0291  0.0217 -0.1157
    7MOL   C328 4420   5.179   5.362   6.381 -0.2838 -0.3821  0.3739
    7MOL   C329 4421   5.213   5.489   6.425 -0.3250  0.2710  0.1258
    7MOL   H330 4422   5.198   5.927   6.605 -2.1270 -3.0607 -2.9072
    7MOL   H331 4423   5.403   6.040   6.678 -0.6344  0.4459 -0.7742
    7MOL   H332 4424   5.631   5.732   6.458 -0.2281 -1.4465  1.1682
    7MOL   H333 4425   5.430   5.643   6.379 -0.9195 -0.1459 -0.9995
    7MOL   H334 4426   4.960   5.646   6.269 -0.9290  0.2477  1.8002
    7MOL   H335 4427   4.891   5.418   6.216  1.9395 -3.3032 -0.5356
    7MOL   H336 4428   5.056   4.965   6.363 -1.1001  2.6443  0.5858
    7MOL   H337 4429   5.185   4.785   6.234  1.8376  0.4687 -0.5878
    7MOL   H338 4430   5.218   5.061   5.900  3.6741  0.0412  0.8918
    7MOL   H339 4431   5.084   5.226   6.042 -0.3907  0.7371  1.7609
    7MOL   H340 4432   5.233   5.278   6.422 -1.0137 -2.2774 -2.4730
    7MOL   H341 4433   5.289   5.500   6.500  0.0475 -0.2871 -0.1633
    7MOL   C342 4434   5.429   4.817   5.668 -0.1609 -0.2114 -0.1546
    7MOL   C343 4435   5.328   4.809   5.760  0.5714 -0.0924 -0.2962
    7MOL   C344 4436   5.367   4.830   5.892 -0.5184  0.6502 -0.1689
    7MOL   O345 4437   5.266   4.805   5.989  0.1308  0.2335  0.3172
    7MOL   C346 4438   5.493   4.870   5.928 -0.1206  0.2416  1.0591
    7MOL   C347 4439   5.588   4.890   5.829  0.3158  0.1577  0.7205
    7MOL   C348 4440   5.553   4.864   5.694 -0.6462 -0.3008  0.4494
    7MOL   C349 4441   5.661   4.877   5.591 -0.1149 -0.4582  0.0876
    7MOL   O350 4442   5.750   4.795   5.580 -0.1256 -0.7263 -0.1117
    7MOL   C351 4443   5.654   4.996   5.501 -0.0016 -0.0232  0.2804
    7MOL   C352 4444   5.558   5.097   5.528  0.6256  0.0614  0.4359
    7MOL   C353 4445   5.553   5.217   5.456  0.1141  0.6441  0.2103
    7MOL   C354 4446   5.629   5.229   5.338  0.7089 -0.0168  0.1868
    7MOL   O355 4447   5.622   5.339   5.261  0.3642  0.4069 -0.2581
    7MOL   C356 4448   5.499   5.364   5.198 -0.8026 -0.4039  0.7254
    7MOL   C357 4449   5.453   5.499   5.191 -0.2929 -0.3023 -0.1014
    7MOL   C358 4450   5.326   5.537   5.146 -0.3312  0.0444 -0.2953
    7MOL   C359 4451   5.240   5.431   5.104  0.0492 -0.0243 -0.2515
    7MOL   C360 4452   5.295   5.298   5.100 -0.0172 -0.2161 -0.5848
    7MOL   C361 4453   5.417   5.264   5.153 -0.8577 -0.0389  0.3190
    7MOL   C362 4454   5.719   5.123   5.305  0.3744 -1.3102 -0.3276
    7MOL   C363 4455   5.735   5.009   5.387  0.6774 -0.2915 -0.6226
    7MOL   H364 4456   5.407   4.791   5.565 -3.3609  3.1307 -0.4303
    7MOL   H365 4457   5.227   4.787   5.729  1.1505  0.4684 -2.6662
    7MOL   H366 4458   5.510   4.888   6.033  3.0575  3.2426  0.1250
    7MOL   H367 4459   5.687   4.925   5.855  0.2877  0.5581  0.2824
    7MOL   H368 4460   5.500   5.087   5.618 -1.6657 -2.0869 -1.2130
    7MOL   H369 4461   5.491   5.304   5.473  2.3077  2.5298 -1.0941
    7MOL   H370 4462   5.527   5.575   5.215 -1.9976  1.1984  0.5716
    7MOL   H371 4463   5.302   5.642   5.146 -2.4378 -0.4138 -0.2946
    7MOL   H372 4464   5.227   5.217   5.080 -0.0502 -1.0118  2.5090
    7MOL   H373 4465   5.432   5.160   5.178 -1.5941 -0.2035  0.0872
    7MOL   H374 4466   5.784   5.145   5.221  0.4072 -0.4241 -0.0756
    7MOL   H375 4467   5.812   4.943   5.349  1.3121  0.0977 -0.0124
    7MOL   C376 4468   4.872   5.610   5.297  0.5668  0.1442 -0.5944
    7MOL   C377 4469   4.955   5.504   5.243 -0.4926 -0.7071 -0.1648
    7MOL   C378 4470   5.038   5.540   5.133  0.4948 -0.5013  0.3100
    7MOL   O379 4471   5.113   5.445   5.069 -0.3088  0.0297 -0.3548
    7MOL   C380 4472   5.043   5.680   5.083 -0.0478  0.4778 -0.6647
    7MOL   C381 4473   4.958   5.781   5.140 -0.5231  1.2119  0.9323
    7MOL   C382 4474   4.866   5.742   5.243 -1.1940  0.1051 -0.7921
    7MOL   C383 4475   4.771   5.838   5.299  0.0185 -0.0388  0.1705
    7MOL   O384 4476   4.812   5.917   5.389 -0.1474  0.0851 -0.1283
    7MOL   C385 4477   4.647   5.857   5.218  0.0461 -0.0052  0.3647
    7MOL   C386 4478   4.567   5.970   5.239 -0.3583 -0.0211 -0.6151
    7MOL   C387 4479   4.442   5.979   5.172 -0.4307  0.3696  0.0170
    7MOL   C388 4480   4.394   5.873   5.090 -0.0152 -0.4071 -0.2314
    7MOL   O389 4481   4.277   5.890   5.023  0.4510 -0.3535  0.2676
    7MOL   C390 4482   4.170   5.800   5.045 -0.0638 -0.7823 -0.4116
    7MOL   C391 4483   4.144   5.698   4.953  1.0717  0.1693 -0.8098
    7MOL   C392 4484   4.025   5.621   4.972 -0.0370  0.0170  0.2589
    7MOL   C393 4485   3.940   5.639   5.086  1.0762 -0.2185 -0.1914
    7MOL   C394 4486   3.970   5.745   5.170  0.6883 -0.2432  0.2842
    7MOL   C395 4487   4.077   5.834   5.145  0.2897  0.6452 -0.4164
    7MOL   C396 4488   4.479   5.762   5.070  0.2453  0.3946 -0.0484
    7MOL   C397 4489   4.602   5.757   5.134  0.8971  0.4351  0.5983
    7MOL   H398 4490   4.814   5.589   5.385  0.6638 -3.6693 -1.3643
    7MOL   H399 4491   4.960   5.400   5.272 -2.4522 -0.9574 -0.6375
    7MOL   H400 4492   5.104   5.704   4.997 -0.8436  2.1219 -0.7884
    7MOL   H401 4493   4.941   5.873   5.088  0.5363  1.4329  0.9506
    7MOL   H402 4494   4.602   6.046   5.308  3.0740  0.0911 -2.4222
    7MOL   H403 4495   4.363   6.050   5.191 -0.7002 -0.0615  0.5300
    7MOL   H404 4496   4.207   5.692   4.865  1.3404  1.4657 -0.7201
    7MOL   H405 4497   3.995   5.554   4.892  1.6915  1.5367 -1.7225
    7MOL   H406 4498   3.899   5.770   5.247 -0.8004 -1.0689 -0.7767
    7MOL   H407 4499   4.078   5.921   5.208 -1.5296  0.1755  0.2967
    7MOL   H408 4500   4.447   5.690   4.995  1.3780  1.8854 -2.0246
    7MOL   H409 4501   4.662   5.669   5.117 -0.5756 -0.6789  1.0829
    7MOL   C410 4502   3.888   5.242   5.229 -0.5228  0.5853 -0.4651
    7MOL   C411 4503   3.881   5.352   5.140  0.8422  0.2057  0.7031
    7MOL   C412 4504   3.808   5.465   5.174  0.2021 -0.4781 -0.0605
    7MOL   O413 4505   3.819   5.576   5.091 -0.2195  0.0625  0.1785
    7MOL   C414 4506   3.731   5.467   5.294  0.7355 -0.5640 -0.5992
    7MOL   C415 4507   3.740   5.349   5.382 -0.9051  0.0720  0.2099
    7MOL   C416 4508   3.821   5.237   5.353 -0.1477 -0.2155  0.4827
    7MOL   C417 4509   3.834   5.128   5.451 -0.5891 -0.2885  0.3870
    7MOL   O418 4510   3.745   5.115   5.534  0.0353 -0.2601  0.2486
    7MOL   C419 4511   3.945   5.031   5.444  0.4777 -0.1197  0.0067
    7MOL   C420 4512   3.920   4.893   5.446 -0.1491 -0.4324 -0.4117
    7MOL   C421 4513   4.030   4.799   5.444 -0.0130 -0.1039  0.7325
    7MOL   C422 4514   4.166   4.843   5.428 -0.8094  0.4619 -0.0367
    7MOL   O423 4515   4.265   4.744   5.418 -0.1562 -0.3981 -0.0487
    7MOL   C424 4516   4.378   4.754   5.493 -0.0100  0.2606 -0.1033
    7MOL   C425 4517   4.377   4.713   5.627  0.0559 -0.2385 -0.8110
    7MOL   C426 4518   4.493   4.732   5.704 -0.1036 -0.6047  0.0424
    7MOL   C427 4519   4.610   4.800   5.657 -0.2546 -0.1273  0.2246
    7MOL   C428 4520   4.615   4.832   5.517 -0.1063 -0.2815  0.0091
    7MOL   C429 4521   4.500   4.816   5.443 -0.0950  0.5728  0.0769
    7MOL   C430 4522   4.192   4.979   5.427  0.2396 -0.7537  0.9457
    7MOL   C431 4523   4.082   5.077   5.437  0.2347  0.2635  0.1459
    7MOL   H432 4524   3.957   5.165   5.196 -0.2905  0.9898 -0.9263
    7MOL   H433 4525   3.929   5.355   5.043 -0.2778  1.2454  0.1687
    7MOL   H434 4526   3.672   5.555   5.316  1.2368 -0.0590 -1.2620
    7MOL   H435 4527   3.686   5.348   5.476 -1.7527 -0.1103 -0.2724
    7MOL   H436 4528   3.816   4.867   5.453  0.1779 -1.7103 -0.1231
    7MOL   H437 4529   4.014   4.693   5.457  0.1008 -0.1355  0.6150
    7MOL   H438 4530   4.285   4.665   5.658 -0.1351 -0.0673 -1.1064
    7MOL   H439 4531   4.483   4.701   5.807 -1.5264 -4.7071 -1.2231
    7MOL   H440 4532   4.704   4.885   5.487 -0.2164 -0.1990 -0.1715
    7MOL   H441 4533   4.509   4.854   5.343  0.8339  1.6002  0.5300
    7MOL   H442 4534   4.294   5.011   5.410 -0.3616  0.1274 -1.2699
    7MOL   H443 4535   4.103   5.183   5.436  0.5434  0.1939 -0.7200
    7MOL   C444 4536   4.590   4.953   6.063  0.0326  0.9926 -0.0368
    7MOL   C445 4537   4.595   4.920   5.926  0.1453  0.2981  0.3975
    7MOL   C446 4538   4.703   4.851   5.875 -0.9302 -0.0083 -0.4582
    7MOL   O447 4539   4.722   4.831   5.737  0.1242  0.0773 -0.3818
    7MOL   C448 4540   4.801   4.803   5.966 -0.2872  0.3749 -0.2875
    7MOL   C449 4541   4.800   4.832   6.104 -0.2517  0.2149  0.0003
    7MOL   C450 4542   4.694   4.912   6.154 -0.7496 -0.0698 -0.2529
    7MOL   C451 4543   4.684   4.952   6.296 -0.1219 -0.8578  0.5332
    7MOL   O452 4544   4.731   4.879   6.383  0.4366  0.0621  0.5124
    7MOL   C453 4545   4.631   5.090   6.325  0.5985  1.3674 -0.1941
    7MOL   C454 4546   4.694   5.201   6.270 -0.2283  0.4613  0.9257
    7MOL   C455 4547   4.662   5.327   6.325 -0.1324 -0.1976 -0.3543
    7MOL   C456 4548   4.567   5.344   6.425 -0.2481  0.6019  0.6020
    7MOL   O457 4549   4.557   5.473   6.483 -0.0600  0.0881  0.7703
    7MOL   C458 4550   4.633   5.493   6.590 -0.8732 -0.4338  0.2144
    7MOL   C459 4551   4.612   5.434   6.716 -0.0643  0.8026  0.3565
    7MOL   C460 4552   4.713   5.444   6.815 -0.1850  0.4850  0.5187
    7MOL   C461 4553   4.826   5.522   6.795  0.1155 -0.0534  0.1761
    7MOL   C462 4554   4.839   5.587   6.671  0.9560 -0.3847 -0.1895
    7MOL   C463 4555   4.753   5.561   6.566 -0.4757 -0.5143 -0.1602
    7MOL   C464 4556   4.498   5.230   6.475  0.1498  0.4155 -0.3442
    7MOL   C465 4557   4.534   5.102   6.430  0.2910  0.0918 -0.6377
    7MOL   H466 4558   4.502   5.007   6.093  0.0522  0.4451  1.0046
    7MOL   H467 4559   4.524   4.963   5.857 -0.7532 -2.0039 -0.1690
    7MOL   H468 4560   4.884   4.751   5.922 -1.0397 -0.8203 -0.3040
    7MOL   H469 4561   4.881   4.804   6.168  0.2541  0.0656 -0.7028
    7MOL   H470 4562   4.762   5.191   6.187 -1.6688  0.5712 -0.2789
    7MOL   H471 4563   4.705   5.419   6.286  0.7728 -1.2913 -2.0026
    7MOL   H472 4564   4.535   5.360   6.726 -0.8158  1.6057  0.5708
    7MOL   H473 4565   4.705   5.387   6.906  2.1098  1.8502  1.6337
    7MOL   H474 4566   4.923   5.653   6.652  1.1508 -0.6159 -0.1358
    7MOL   H475 4567   4.773   5.604   6.469  2.5491  0.7325  0.9354
    7MOL   H476 4568   4.435   5.238   6.562  0.0921  0.6126 -0.4019
    7MOL   H477 4569   4.495   5.016   6.481 -4.1123  0.8279 -2.5006
    7MOL   C478 4570   5.275   5.486   6.780  0.2380  0.2303 -0.2883
    7MOL   C479 4571   5.133   5.467   6.788  0.3662  0.2299  0.8118
    7MOL   C480 4572   5.052   5.561   6.855  0.0132  0.0619  0.3933
    7MOL   O481 4573   4.922   5.537   6.889  0.0818  0.0872  0.3204
    7MOL   C482 4574   5.110   5.682   6.896  0.3899 -0.3096  0.1142
    7MOL   C483 4575   5.249   5.706   6.884  0.1722 -0.4648 -0.5438
    7MOL   C484 4576   5.336   5.608   6.830  1.0149 -0.4005 -0.3186
    7MOL   C485 4577   5.484   5.623   6.829 -0.4113 -0.3353  0.8498
    7MOL   O486 4578   5.554   5.540   6.770  0.1934  0.1023  0.1332
    7MOL   C487 4579   5.544   5.738   6.916  0.7239  0.3090 -0.0537
    7MOL   C488 4580   5.638   5.831   6.862 -0.1876 -0.8125  0.2548
    7MOL   C489 4581   5.680   5.944   6.940  0.2123  0.5198 -0.5267
    7MOL   C490 4582   5.644   5.958   7.076 -0.1550  0.2223 -0.4183
    7MOL   O491 4583   5.686   6.060   7.155  0.3893 -0.0898  0.0246
    7MOL   C492 4584   5.812   6.099   7.167 -0.7801  0.2760  0.4232
    7MOL   C493 4585   5.921   6.005   7.184 -0.6155 -0.5867  0.3422
    7MOL   C494 4586   6.057   6.057   7.208 -0.0396 -0.3439  0.9033
    7MOL   C495 4587   6.079   6.196   7.204  0.3271 -0.0718  0.4273
    7MOL   C496 4588   5.972   6.285   7.190  0.1537  0.7028 -0.8770
    7MOL   C497 4589   5.840   6.238   7.163  0.1003 -0.6299 -0.3908
    7MOL   C498 4590   5.554   5.866   7.131 -0.6548 -0.7449  0.7988
    7MOL   C499 4591   5.497   5.767   7.049 -0.0142 -0.1393  0.4698
    7MOL   H500 4592   5.330   5.413   6.720  0.9533 -0.5603  1.2973
    7MOL   H501 4593   5.080   5.383   6.744 -0.1013  1.0510 -0.2286
    7MOL   H502 4594   5.049   5.753   6.949 -0.3398 -1.1157  0.3674
    7MOL   H503 4595   5.286   5.806   6.901 -1.1417  0.2518 -1.7209
    7MOL   H504 4596   5.670   5.821   6.759 -0.2942  2.5232 -0.1808
    7MOL   H505 4597   5.753   6.011   6.897  0.9582  0.1612  0.1598
    7MOL   H506 4598   5.914   5.899   7.167  0.3394 -0.6524  0.3057
    7MOL   H507 4599   6.133   5.981   7.198 -0.5842 -0.7706 -0.0852
    7MOL   H508 4600   6.002   6.389   7.189  3.6901 -0.2385  0.0693
    7MOL   H509 4601   5.762   6.309   7.145 -0.2223 -0.8107  0.2697
    7MOL   H510 4602   5.522   5.874   7.234 -0.5921 -2.3631  0.9682
    7MOL   H511 4603   5.430   5.692   7.088 -0.9864  1.3930  1.8234
    7MOL   C512 4604   6.471   6.024   7.295 -0.3979 -0.2516 -0.2908
    7MOL   C513 4605   6.367   6.114   7.309 -0.4557  0.5396  0.6928
    7MOL   C514 4606   6.314   6.171   7.191 -0.6893 -0.1877 -0.4255
    7MOL   O515 4607   6.203   6.254   7.201 -0.2098  0.4463 -0.1033
    7MOL   C516 4608   6.376   6.138   7.067  0.7019  0.2681 -0.6563
    7MOL   C517 4609   6.488   6.057   7.059  0.2550  0.1321  0.3753
    7MOL   C518 4610   6.533   5.991   7.176  0.0223 -0.5841 -0.4523
    7MOL   C519 4611   6.645   5.890   7.179  0.8373 -0.1703 -0.7854
    7MOL   O520 4612   6.606   5.787   7.233  0.2996 -0.3797  0.0995
    7MOL   C521 4613   6.788   5.926   7.145 -0.4021  0.2867  0.6946
    7MOL   C522 4614   6.887   5.831   7.175 -0.1683 -0.3426 -0.0225
    7MOL   C523 4615   7.021   5.851   7.132  0.2216 -0.3633 -0.5586
    7MOL   C524 4616   7.052   5.966   7.062  0.0761 -0.2067 -0.2310
    7MOL   O525 4617   7.178   5.986   7.007  0.2703  0.5032  0.2607
    7MOL   C526 4618   7.195   5.966   6.873  0.1977 -0.1022  0.3215
    7MOL   C527 4619   7.222   6.074   6.786  0.3327 -0.4582 -0.0292
    7MOL   C528 4620   7.259   6.053   6.649  0.7818  0.2953 -0.2508
    7MOL   C529 4621   7.232   5.925   6.589 -0.3354 -0.3143  0.0197
    7MOL   C530 4622   7.184   5.822   6.667 -0.7765  0.0999 -0.3030
    7MOL   C531 4623   7.171   5.838   6.816  0.5254  0.1187  0.0930
    7MOL   C532 4624   6.957   6.066   7.033 -0.1918 -0.3082 -0.6280
    7MOL   C533 4625   6.824   6.049   7.072  0.4566  0.6857  0.9118
    7MOL   H534 4626   6.516   5.993   7.388  0.9857 -1.1041 -1.2337
    7MOL   H535 4627   6.320   6.115   7.406  1.4722  1.5141  1.6647
    7MOL   H536 4628   6.332   6.180   6.977  0.7695  0.7787 -0.4523
    7MOL   H537 4629   6.538   6.028   6.968  0.8878  2.8323 -0.1833
    7MOL   H538 4630   6.862   5.737   7.222  0.4832 -0.1378  0.7550
    7MOL   H539 4631   7.102   5.781   7.143  0.5731 -0.0121 -0.9017
    7MOL   H540 4632   7.240   6.164   6.842 -0.7983 -0.0102 -0.3720
    7MOL   H541 4633   7.284   6.142   6.595 -1.0623  1.0780  0.1404
    7MOL   H542 4634   7.166   5.723   6.628  1.7607 -1.1205  1.4510
    7MOL   H543 4635   7.137   5.755   6.877 -1.0763  1.2590  0.7845
    7MOL   H544 4636   6.981   6.162   6.990 -0.9486 -0.1323 -0.6598
    7MOL   H545 4637   6.744   6.116   7.045 -1.0382 -1.4221  0.0164
    7MOL   C546 4638   6.932   5.788   6.308  0.0401 -0.6085 -0.0210
    7MOL   C547 4639   7.023   5.866   6.385  0.3028 -0.1530 -0.4205
    7MOL   C548 4640   7.159   5.838   6.379  0.8799  0.4367  0.2968
    7MOL   O549 4641   7.254   5.911   6.452  0.3832  0.2152  0.4878
    7MOL   C550 4642   7.205   5.736   6.302 -0.8619  0.9856  0.1759
    7MOL   C551 4643   7.119   5.656   6.226 -1.2271 -0.0465 -0.0430
    7MOL   C552 4644   6.980   5.680   6.232 -0.9829  0.3507 -0.2930
    7MOL   C553 4645   6.878   5.602   6.171 -0.7128  0.0292  0.4128
    7MOL   O554 4646   6.769   5.584   6.226  0.0514 -0.5097  0.0042
    7MOL   C555 4647   6.905   5.552   6.038  0.1386  0.7794  0.0480
    7MOL   C556 4648   6.815   5.447   5.992  0.1000 -0.7085  0.7665
    7MOL   C557 4649   6.828   5.395   5.866  0.5970 -0.1427  0.4123
    7MOL   C558 4650   6.935   5.433   5.784 -0.7831 -0.1035 -0.2670
    7MOL   O559 4651   6.945   5.362   5.667  0.4451 -0.0443  0.2327
    7MOL   C560 4652   7.016   5.424   5.574  0.1234  0.3196  0.3191
    7MOL   C561 4653   6.955   5.529   5.503  0.0937 -0.6463 -0.1759
    7MOL   C562 4654   7.023   5.602   5.407 -0.2908  1.2272 -0.2874
    7MOL   C563 4655   7.154   5.562   5.376  0.3484 -1.2709  0.7753
    7MOL   C564 4656   7.217   5.458   5.442  0.0254  0.2939  0.6119
    7MOL   C565 4657   7.146   5.390   5.544 -0.0132 -0.0291 -0.1700
    7MOL   C566 4658   7.023   5.534   5.826  0.1137 -0.3376 -1.0491
    7MOL   C567 4659   7.003   5.601   5.952  0.0425 -0.0250  0.5240
    7MOL   H568 4660   6.826   5.807   6.320 -0.0249 -1.1501  0.2893
    7MOL   H569 4661   6.992   5.957   6.434 -1.1631 -0.5549 -0.5782
    7MOL   H570 4662   7.311   5.715   6.297 -0.8057  0.7116  1.9457
    7MOL   H571 4663   7.156   5.586   6.152  1.5789 -2.0239  3.1380
    7MOL   H572 4664   6.731   5.420   6.054  0.6357  1.1481  2.3676
    7MOL   H573 4665   6.767   5.319   5.819  0.8644 -1.0617  1.5259
    7MOL   H574 4666   6.856   5.552   5.541  0.2342 -0.4369  0.0632
    7MOL   H575 4667   6.985   5.692   5.362 -4.1868 -0.4937 -0.5720
    7MOL   H576 4668   7.321   5.437   5.421 -0.0392  0.2928  0.2855
    7MOL   H577 4669   7.204   5.327   5.609 -1.1709  0.1027  0.9888
    7MOL   H578 4670   7.093   5.585   5.761 -2.6756  1.5526 -2.7078
    7MOL   H579 4671   7.065   5.681   5.989  0.7005 -1.0175  1.5936
    7MOL   C580 4672   7.188   5.779   4.940  0.4497  0.2330 -0.6451
    7MOL   C581 4673   7.229   5.756   5.071 -0.1768 -0.5549 -0.3340
    7MOL   C582 4674   7.166   5.658   5.155  0.6485 -0.3620  0.4882
    7MOL   O583 4675   7.223   5.633   5.279  0.1501 -0.5489  0.1012
    7MOL   C584 4676   7.050   5.590   5.109  0.1293  0.0384  0.1068
    7MOL   C585 4677   7.001   5.618   4.980 -0.6752 -0.1039  0.2002
    7MOL   C586 4678   7.072   5.714   4.897  1.5892 -0.4744  0.2838
    7MOL   C587 4679   7.029   5.747   4.755 -0.3842  0.1840  1.0102
    7MOL   O588 4680   7.003   5.651   4.681  0.3747 -0.1363 -0.1526
    7MOL   C589 4681   7.024   5.888   4.714 -0.1276 -0.3565 -0.5804
    7MOL   C590 4682   7.021   5.991   4.808  0.1307  0.3936  0.0065
    7MOL   C591 4683   7.042   6.125   4.769  0.1474 -0.0392  0.4800
    7MOL   C592 4684   7.048   6.161   4.635 -0.6789 -0.3966  0.2803
    7MOL   O593 4685   7.076   6.292   4.600 -0.0970 -0.1047 -0.3842
    7MOL   C594 4686   7.082   6.317   4.466  0.2395  1.0599 -0.7113
    7MOL   C595 4687   6.968   6.334   4.383  0.7084  0.0929 -0.3257
    7MOL   C596 4688   6.970   6.350   4.243 -0.2862  0.0381 -0.6857
    7MOL   C597 4689   7.101   6.339   4.178 -0.3028  0.5578  0.3169
    7MOL   C598 4690   7.216   6.321   4.262  0.0977  0.0386  0.4111
    7MOL   C599 4691   7.204   6.303   4.402 -0.6372 -0.0726 -0.5745
    7MOL   C600 4692   7.035   6.058   4.540  0.0529 -0.5975 -0.1962
    7MOL   C601 4693   7.009   5.922   4.573 -0.2310 -0.5134  0.9981
    7MOL   H602 4694   7.234   5.856   4.880  0.9748  0.4055 -0.0306
    7MOL   H603 4695   7.318   5.796   5.117 -1.2344  1.9557 -0.4392
    7MOL   H604 4696   7.007   5.513   5.171 -0.6698  1.1333  0.9129
    7MOL   H605 4697   6.913   5.570   4.940  0.8216 -0.8550 -2.3335
    7MOL   H606 4698   7.024   5.964   4.913 -0.9186 -1.7746 -0.4938
    7MOL   H607 4699   7.046   6.207   4.839 -0.0343  0.3812  0.0006
    7MOL   H608 4700   6.868   6.331   4.425  0.1456  0.3940 -1.6351
    7MOL   H609 4701   6.877   6.344   4.189  0.2246 -2.9202 -1.3063
    7MOL   H610 4702   7.312   6.316   4.213 -0.4628 -0.8944 -0.6293
    7MOL   H611 4703   7.293   6.285   4.461 -1.6037 -3.3029 -0.0094
    7MOL   H612 4704   7.033   6.088   4.436 -1.3190  1.1557  0.2889
    7MOL   H613 4705   7.000   5.845   4.498 -1.5180  0.8453 -0.2657
    7MOL   C614 4706   6.919   6.072   3.857 -1.2442  0.5840 -0.2837
    7MOL   C615 4707   7.007   6.126   3.949 -0.1244 -0.1434 -0.6420
    7MOL   C616 4708   7.016   6.270   3.961  0.6246 -0.1849  0.2164
    7MOL   O617 4709   7.115   6.329   4.039 -0.3266 -0.5839 -0.0934
    7MOL   C618 4710   6.926   6.353   3.891  0.1068 -0.0580  0.1010
    7MOL   C619 4711   6.827   6.291   3.816  0.4414 -0.5835 -0.3684
    7MOL   C620 4712   6.825   6.153   3.797 -0.3790 -0.1502  0.3783
    7MOL   C621 4713   6.708   6.096   3.726  0.4433  0.0683 -0.3404
    7MOL   O622 4714   6.651   6.155   3.633 -0.2775  0.2549 -0.0472
    7MOL   C623 4715   6.657   5.963   3.766 -0.1857  0.1240  0.5617
    7MOL   C624 4716   6.603   5.874   3.669  0.2747  0.0368 -0.0030
    7MOL   C625 4717   6.577   5.739   3.700  0.3389  0.3039 -0.4058
    7MOL   C626 4718   6.565   5.703   3.836  0.0157  0.1457 -0.0429
    7MOL   O627 4719   6.507   5.587   3.886 -0.2785 -0.3986 -0.1697
    7MOL   C628 4720   6.420   5.511   3.808  0.3684  0.7516 -0.2438
    7MOL   C629 4721   6.280   5.535   3.808 -0.2687 -0.3817 -0.4851
    7MOL   C630 4722   6.182   5.458   3.745 -0.4999 -0.6929  0.5157
    7MOL   C631 4723   6.228   5.349   3.670 -0.3227 -0.1525 -0.2577
    7MOL   C632 4724   6.371   5.329   3.649 -0.0044 -0.5602  0.1993
    7MOL   C633 4725   6.463   5.409   3.720 -0.3498  0.1124  0.3332
    7MOL   C634 4726   6.606   5.799   3.933 -0.9152  1.3552  0.2976
    7MOL   C635 4727   6.654   5.924   3.899  0.4913 -0.0616 -0.5466
    7MOL   H636 4728   6.910   5.964   3.847 -0.7231  0.4103  1.0655
    7MOL   H637 4729   7.078   6.061   3.998 -1.6742 -0.2692  1.4677
    7MOL   H638 4730   6.931   6.461   3.893  0.8013 -0.0849 -0.0659
    7MOL   H639 4731   6.758   6.357   3.766 -2.1837 -1.8193  1.5198
    7MOL   H640 4732   6.581   5.900   3.566 -1.3023 -0.4166  0.2196
    7MOL   H641 4733   6.537   5.678   3.621  1.9487  0.6268 -1.4901
    7MOL   H642 4734   6.241   5.617   3.868  1.0384 -0.1777  0.1115
    7MOL   H643 4735   6.078   5.480   3.763 -0.2485  2.5596 -1.6094
    7MOL   H644 4736   6.413   5.245   3.596  0.7249 -0.4921  0.6652
    7MOL   H645 4737   6.569   5.394   3.707 -1.0332 -2.0791 -3.0715
    7MOL   H646 4738   6.579   5.774   4.035 -1.6476  0.1628 -0.1766
    7MOL   H647 4739   6.670   5.995   3.979  1.0567  0.6938 -1.3163
    7MOL   C648 4740   6.241   4.902   3.706 -0.0257  0.0393 -0.0263
    7MOL   C649 4741   6.231   5.032   3.642 -0.2309 -0.2917  0.5330
    7MOL   C650 4742   6.152   5.132   3.694 -0.0865  0.6004 -0.1783
    7MOL   O651 4743   6.141   5.252   3.630  0.2134  0.2559  0.2021
    7MOL   C652 4744   6.066   5.104   3.803 -0.3245 -0.2096  0.3190
    7MOL   C653 4745   6.073   4.979   3.864  0.0265 -0.0567  0.3538
    7MOL   C654 4746   6.165   4.882   3.820 -0.2403  0.4382  0.9075
    7MOL   C655 4747   6.180   4.749   3.892 -0.5922 -0.1826  0.2097
    7MOL   O656 4748   6.279   4.674   3.891  0.2207 -0.1666 -0.3430
    7MOL   C657 4749   6.059   4.694   3.953 -0.0998 -0.3599  0.0691
    7MOL   C658 4750   6.059   4.615   4.066 -0.2739 -0.4621 -0.3581
    7MOL   C659 4751   5.943   4.549   4.104  0.8631  0.3015  0.1347
    7MOL   C660 4752   5.822   4.564   4.029  0.3535  0.4637  0.3557
    7MOL   O661 4753   5.707   4.501   4.067  0.4753 -0.1875 -0.0639
    7MOL   C662 4754   5.643   4.545   4.181  0.4519  0.5653 -0.3029
    7MOL   C663 4755   5.569   4.662   4.175  0.2968 -0.5947  0.1027
    7MOL   C664 4756   5.518   4.715   4.289  0.5961 -0.1942 -0.2771
    7MOL   C665 4757   5.524   4.646   4.414 -0.5766 -0.3344  0.2514
    7MOL   C666 4758   5.594   4.524   4.421  0.7879 -0.5244 -0.2557
    7MOL   C667 4759   5.654   4.475   4.305  0.5143 -0.2800  0.1920
    7MOL   C668 4760   5.823   4.648   3.923 -0.4321 -0.1334 -0.2494
    7MOL   C669 4761   5.939   4.711   3.882 -0.9281  0.3617 -0.8069
    7MOL   H670 4762   6.296   4.817   3.667  0.2169 -0.3109  1.0538
    7MOL   H671 4763   6.282   5.056   3.550  2.2931 -1.1355  1.6663
    7MOL   H672 4764   6.007   5.182   3.848 -1.6753 -2.2474  2.1898
    7MOL   H673 4765   6.003   4.958   3.943 -1.9300 -0.2065 -1.3757
    7MOL   H674 4766   6.155   4.609   4.115  0.2918 -0.3140 -1.4150
    7MOL   H675 4767   5.946   4.498   4.199 -0.9098 -1.5025 -0.7422
    7MOL   H676 4768   5.559   4.714   4.081  1.9630 -0.1649  0.1569
    7MOL   H677 4769   5.465   4.810   4.282 -1.0365 -0.8914  1.9565
    7MOL   H678 4770   5.608   4.479   4.518 -0.0008  0.0530  0.1348
    7MOL   H679 4771   5.712   4.384   4.304 -2.1335 -2.0406 -2.5631
    7MOL   H680 4772   5.732   4.682   3.875  0.5644  0.2310 -1.9158
    7MOL   H681 4773   5.945   4.768   3.791 -0.1452  2.6502  0.6368
    7MOL   H682 4774   5.482   4.687   4.504 -1.1450  1.5227 -0.8411
    8MOL     C1 4775   4.785   3.516   4.144  1.1377  0.1960 -0.0474
    8MOL     C2 4776   4.766   3.656   4.133 -0.1189  0.3788  0.0619
    8MOL     C3 4777   4.665   3.705   4.046  0.2279  0.3130  0.6123
    8MOL     O4 4778   4.635   3.836   4.021  0.2826 -0.1889 -0.0440
    8MOL     C5 4779   4.588   3.611   3.969  0.2587  0.6010 -0.0253
    8MOL     C6 4780   4.611   3.479   3.978 -0.6711  0.1676  0.5352
    8MOL     C7 4781   4.702   3.426   4.069 -1.2953  0.6912  0.1635
    8MOL     C8 4782   4.723   3.280   4.068 -0.3653 -0.1139 -0.2358
    8MOL     O9 4783   4.703   3.217   3.967  0.8447  0.7397  0.2017
    8MOL    C10 4784   4.785   3.217   4.186 -0.1549  0.0419  0.5040
    8MOL    C11 4785   4.882   3.114   4.164 -0.0551 -0.4989  0.0893
    8MOL    C12 4786   4.936   3.045   4.272  0.0659 -0.2983  0.5040
    8MOL    C13 4787   4.901   3.078   4.405 -0.1914  0.1747 -0.0058
    8MOL    O14 4788   4.948   3.004   4.510 -0.2321  0.6005 -0.0919
    8MOL    C15 4789   4.897   2.878   4.534  0.0302 -0.3702 -0.1656
    8MOL    C16 4790   4.977   2.780   4.482 -0.6924  0.7352 -0.3455
    8MOL    C17 4791   4.944   2.646   4.492 -0.3630  0.3600 -0.1858
    8MOL    C18 4792   4.829   2.608   4.568 -0.1779  0.1200  0.3994
    8MOL    C19 4793   4.748   2.708   4.625  0.0812  0.3357  0.5065
    8MOL    C20 4794   4.782   2.846   4.612  0.3326  0.6276  0.6420
    8MOL    C21 4795   4.812   3.179   4.433  0.2368 -0.4843  0.2620
    8MOL    C22 4796   4.748   3.246   4.322 -0.0213  0.2165  0.3221
    8MOL    H23 4797   4.852   3.472   4.216 -0.6685 -3.2304 -0.4002
    8MOL    H24 4798   4.814   3.731   4.193 -1.6868  2.0817 -0.7716
    8MOL    H25 4799   4.506   3.640   3.905  0.5063  0.4576 -0.4093
    8MOL    H26 4800   4.551   3.411   3.919 -1.1857 -0.4495  1.7625
    8MOL    H27 4801   4.913   3.081   4.066  0.1483  1.7544 -0.6118
    8MOL    H28 4802   5.004   2.962   4.259  0.9909  0.3914  0.9138
    8MOL    H29 4803   5.067   2.820   4.437 -1.1146  0.1096 -1.7515
    8MOL    H30 4804   5.010   2.571   4.452 -1.1863 -0.9330  0.8423
    8MOL    H31 4805   4.669   2.686   4.695 -2.4726  3.3762 -1.2686
    8MOL    H32 4806   4.732   2.930   4.656  2.3127  1.1573  1.9511
    8MOL    H33 4807   4.775   3.198   4.532  0.5066  0.7614  0.1309
    8MOL    H34 4808   4.675   3.323   4.343 -2.8290 -1.6206 -2.3241
    8MOL    H35 4809   4.621   3.857   3.930  0.6554  0.8299  0.1288
    8MOL    C36 4810   4.768   2.410   4.944 -0.1386 -0.9173  0.2980
    8MOL    C37 4811   4.830   2.450   4.820  0.2257  0.9557  0.2861
    8MOL    C38 4812   4.759   2.432   4.700  0.3896  0.2793 -0.1177
    8MOL    O39 4813   4.809   2.475   4.587 -0.7263  0.5185 -0.0528
    8MOL    C40 4814   4.624   2.390   4.702  0.6832 -0.6317 -0.0681
    8MOL    C41 4815   4.568   2.354   4.817 -0.0207 -0.2677  0.4025
    8MOL    C42 4816   4.637   2.360   4.943 -0.1069  0.1537  0.0216
    8MOL    C43 4817   4.572   2.325   5.073 -0.2878  0.2164 -0.1285
    8MOL    O44 4818   4.457   2.282   5.081  0.3025 -0.0922  0.7100
    8MOL    C45 4819   4.658   2.325   5.196  1.0073  1.1638  0.0181
    8MOL    C46 4820   4.755   2.226   5.219 -0.1573  0.4237  0.0105
    8MOL    C47 4821   4.829   2.219   5.339  0.4802 -0.1850  0.1001
    8MOL    C48 4822   4.807   2.323   5.432 -0.2308  0.0342  0.2562
    8MOL    O49 4823   4.877   2.332   5.548  0.4879 -0.0568 -0.0868
    8MOL    C50 4824   4.914   2.214   5.613  0.2662 -0.7737 -0.4611
    8MOL    C51 4825   4.816   2.137   5.679  0.3507  0.2227  0.1635
    8MOL    C52 4826   4.851   2.014   5.741 -0.0247  0.4753 -0.5516
    8MOL    C53 4827   4.983   1.971   5.743 -0.8904 -0.0316  0.4603
    8MOL    C54 4828   5.082   2.041   5.665 -0.2686  0.8945 -0.1942
    8MOL    C55 4829   5.046   2.165   5.602 -0.1113  0.2826 -0.1314
    8MOL    C56 4830   4.714   2.421   5.414 -0.4796  0.1431  0.7675
    8MOL    C57 4831   4.650   2.430   5.290 -0.4326 -0.1724 -0.1966
    8MOL    H58 4832   4.826   2.438   5.030 -1.3993  1.7695  0.2927
    8MOL    H59 4833   4.932   2.487   4.822  0.5860  0.0814 -1.3063
    8MOL    H60 4834   4.564   2.383   4.612  0.1965  1.5853  0.0578
    8MOL    H61 4835   4.463   2.328   4.820 -0.3889  0.3850 -3.7236
    8MOL    H62 4836   4.756   2.146   5.146 -0.8226  0.0439  0.4026
    8MOL    H63 4837   4.894   2.134   5.353  1.9723  0.4466 -2.5234
    8MOL    H64 4838   4.716   2.176   5.684  0.1131 -0.6438  3.0328
    8MOL    H65 4839   4.776   1.959   5.796 -0.9253  1.2236 -1.0033
    8MOL    H66 4840   5.179   1.995   5.660 -0.7063  0.0733 -1.4197
    8MOL    H67 4841   5.122   2.233   5.568  0.3552  0.4351  1.1874
    8MOL    H68 4842   4.709   2.498   5.489 -0.3834 -0.6986  1.6511
    8MOL    H69 4843   4.585   2.513   5.263 -2.0910 -1.7035 -1.0164
    8MOL    C70 4844   4.859   1.834   6.166  0.4458  0.8192  0.4400
    8MOL    C71 4845   4.890   1.817   6.032 -0.2861 -0.3193 -0.1640
    8MOL    C72 4846   4.987   1.893   5.963  0.4332  0.1436  0.0217
    8MOL    O73 4847   5.015   1.867   5.826  0.5981  0.4656  0.3519
    8MOL    C74 4848   5.043   2.002   6.037 -0.1165  0.5273 -0.3052
    8MOL    C75 4849   5.005   2.036   6.174  0.5124  1.4246 -0.2426
    8MOL    C76 4850   4.914   1.943   6.235 -0.3614  0.5724  0.5263
    8MOL    C77 4851   4.881   1.957   6.378  1.5065 -0.0030  0.1985
    8MOL    O78 4852   4.874   2.074   6.419 -0.0753  0.2811 -0.8671
    8MOL    C79 4853   4.858   1.840   6.466  0.1462  0.0341  0.4349
    8MOL    C80 4854   4.961   1.747   6.487 -0.4439  0.5866  0.3720
    8MOL    C81 4855   4.939   1.641   6.574 -0.0269  0.6302 -0.0555
    8MOL    C82 4856   4.816   1.630   6.640 -0.2808 -0.0222  0.1724
    8MOL    O83 4857   4.789   1.522   6.726  0.0458 -0.4897 -0.3794
    8MOL    C84 4858   4.888   1.461   6.810 -0.5629 -0.1941 -0.7002
    8MOL    C85 4859   4.926   1.327   6.806  0.2543  0.1137  1.2865
    8MOL    C86 4860   5.024   1.273   6.888  0.5016 -0.2940  0.4520
    8MOL    C87 4861   5.077   1.360   6.983 -1.1182 -0.5472 -0.0167
    8MOL    C88 4862   5.043   1.494   7.004  0.5640 -0.2089 -0.4524
    8MOL    C89 4863   4.944   1.542   6.916  0.7759  0.0594  0.0299
    8MOL    C90 4864   4.714   1.725   6.624 -0.3026  0.1052  0.3573
    8MOL    C91 4865   4.732   1.823   6.534 -0.6483 -0.2107 -1.3144
    8MOL    H92 4866   4.804   1.761   6.223 -2.2760  1.0951 -1.7275
    8MOL    H93 4867   4.841   1.740   5.976 -0.6695 -1.1713  1.3222
    8MOL    H94 4868   5.123   2.058   5.990 -0.8197  0.7859 -1.2100
    8MOL    H95 4869   5.041   2.121   6.230  0.1117  0.4733  1.5229
    8MOL    H96 4870   5.058   1.750   6.440 -0.2620 -1.1637  0.5975
    8MOL    H97 4871   5.014   1.567   6.598 -0.9780 -1.0870 -2.2326
    8MOL    H98 4872   4.874   1.258   6.740  0.0184  0.5230  1.0398
    8MOL    H99 4873   5.055   1.171   6.871  1.5816 -0.0067  0.6409
    8MOL   H100 4874   5.084   1.562   7.078 -2.2925  0.2698  0.7574
    8MOL   H101 4875   4.903   1.642   6.924 -0.7767 -0.5241 -0.3718
    8MOL   H102 4876   4.627   1.715   6.688 -1.7257  2.2713 -1.1973
    8MOL   H103 4877   4.658   1.897   6.504 -0.0954 -0.1290 -2.5093
    8MOL   C104 4878   5.501   1.449   6.998  0.0124 -0.5566  0.5638
    8MOL   C105 4879   5.360   1.454   7.032  0.2375  0.1282 -0.4120
    8MOL   C106 4880   5.304   1.316   7.047  0.4956  0.1182  0.2883
    8MOL   O107 4881   5.171   1.304   7.070 -0.4118 -0.1835  0.2524
    8MOL   C108 4882   5.383   1.199   7.046 -0.2808  0.7623 -0.0718
    8MOL   C109 4883   5.516   1.210   7.003  0.1063 -0.3061 -0.0656
    8MOL   C110 4884   5.577   1.334   6.976 -0.1601  0.6837 -0.7084
    8MOL   C111 4885   5.707   1.344   6.913 -0.6899  1.2298 -0.0466
    8MOL   O112 4886   5.785   1.249   6.940  0.1483 -0.2056  1.1225
    8MOL   C113 4887   5.736   1.454   6.813 -0.4535  0.1662 -0.6498
    8MOL   C114 4888   5.859   1.531   6.822 -0.0792 -0.3663 -0.6464
    8MOL   C115 4889   5.881   1.636   6.727  0.5635  0.0694 -0.0451
    8MOL   C116 4890   5.791   1.668   6.624 -0.1713  0.1163  0.0977
    8MOL   O117 4891   5.813   1.758   6.530  0.3341 -0.1350  0.2462
    8MOL   C118 4892   5.769   1.889   6.555 -0.0609  0.3465  0.5617
    8MOL   C119 4893   5.859   1.980   6.613 -0.3443 -1.0765  0.0491
    8MOL   C120 4894   5.817   2.110   6.640 -0.0093 -0.0142 -0.1438
    8MOL   C121 4895   5.683   2.152   6.625  0.7126  0.8837  0.2835
    8MOL   C122 4896   5.596   2.057   6.580 -0.1319 -0.0629 -0.6518
    8MOL   C123 4897   5.633   1.927   6.547 -0.0906 -0.0636  0.1945
    8MOL   C124 4898   5.674   1.581   6.613 -0.6000 -0.3001 -0.2307
    8MOL   C125 4899   5.650   1.476   6.704  0.0133 -0.6780  0.5065
    8MOL   H126 4900   5.547   1.543   6.970  0.8335 -1.4810 -1.2411
    8MOL   H127 4901   5.304   1.546   7.042  0.4300  0.0288  1.7459
    8MOL   H128 4902   5.340   1.100   7.054  1.3256 -0.1281 -2.0801
    8MOL   H129 4903   5.570   1.121   6.976  1.5185  1.2530 -2.5876
    8MOL   H130 4904   5.935   1.510   6.896 -0.2385 -1.7156 -0.8620
    8MOL   H131 4905   5.977   1.686   6.727  0.7446 -0.2782  1.1408
    8MOL   H132 4906   5.964   1.954   6.614 -0.5969 -2.1657 -1.0902
    8MOL   H133 4907   5.882   2.186   6.681  0.5462 -1.5569  1.8839
    8MOL   H134 4908   5.491   2.084   6.572 -0.2093  0.7299  2.6272
    8MOL   H135 4909   5.570   1.841   6.527 -1.6966  1.0229  0.4630
    8MOL   H136 4910   5.614   1.586   6.524 -0.9365  3.0238  0.1115
    8MOL   H137 4911   5.560   1.419   6.686 -0.6201  0.7888 -1.0828
    8MOL   C138 4912   5.676   2.525   6.903 -0.1692  0.2300  0.2996
    8MOL   C139 4913   5.679   2.467   6.779 -0.0127 -0.1710 -0.6730
    8MOL   C140 4914   5.637   2.337   6.763 -0.8207  0.3712  0.6609
    8MOL   O141 4915   5.636   2.281   6.640  0.4013  0.2953  0.3929
    8MOL   C142 4916   5.592   2.266   6.877 -0.4202  0.4800  0.0780
    8MOL   C143 4917   5.578   2.328   7.003 -0.2070 -0.2455  0.0386
    8MOL   C144 4918   5.624   2.457   7.017 -0.4492  0.3970 -0.1916
    8MOL   C145 4919   5.620   2.516   7.154 -0.1474 -0.4263 -0.2996
    8MOL   O146 4920   5.537   2.475   7.239  0.0378 -0.0529 -0.1382
    8MOL   C147 4921   5.719   2.628   7.177 -0.0574  0.3653 -0.2220
    8MOL   C148 4922   5.669   2.752   7.226  0.5693 -0.2160  0.3569
    8MOL   C149 4923   5.756   2.861   7.253 -0.1041 -0.0040  0.3805
    8MOL   C150 4924   5.893   2.843   7.239  0.8198 -0.0033 -0.4354
    8MOL   O151 4925   5.974   2.939   7.284  0.5109 -0.6767 -0.5334
    8MOL   C152 4926   6.075   2.972   7.194 -0.1835 -0.4755 -0.3412
    8MOL   C153 4927   6.211   2.978   7.224  0.3630  0.0295  0.7513
    8MOL   C154 4928   6.309   3.009   7.126  0.3496 -0.4546 -0.0918
    8MOL   C155 4929   6.268   3.039   6.992 -0.6289  0.0634  0.7157
    8MOL   C156 4930   6.132   3.026   6.967  0.6651 -0.5805  0.5417
    8MOL   C157 4931   6.035   2.998   7.063  0.6686  0.5322 -0.0214
    8MOL   C158 4932   5.942   2.719   7.191 -0.1206 -0.2163  0.7006
    8MOL   C159 4933   5.856   2.609   7.158  0.0002 -0.1240  0.2219
    8MOL   H160 4934   5.706   2.628   6.909  2.7923 -0.5969  0.6290
    8MOL   H161 4935   5.704   2.520   6.688  0.5060  0.5938 -0.0942
    8MOL   H162 4936   5.574   2.160   6.864 -3.4062  1.0214 -0.4896
    8MOL   H163 4937   5.546   2.271   7.090  0.8733 -0.0294  0.5792
    8MOL   H164 4938   5.563   2.766   7.244  1.0812  3.2347  0.9776
    8MOL   H165 4939   5.715   2.949   7.302 -0.5097 -0.1672  0.3322
    8MOL   H166 4940   6.245   2.960   7.325 -0.3482 -2.0590  0.6536
    8MOL   H167 4941   6.412   3.024   7.154  0.3959  2.3930 -1.6079
    8MOL   H168 4942   6.094   3.037   6.866 -0.2138 -0.4084  0.8888
    8MOL   H169 4943   5.933   3.001   7.028  1.7078 -0.7935 -3.3214
    8MOL   H170 4944   6.047   2.700   7.176 -0.1391 -0.8870  1.4011
    8MOL   H171 4945   5.885   2.512   7.120  1.4443  0.4193 -0.1242
    8MOL   C172 4946   6.553   3.381   6.940 -0.8537  0.4246 -0.2981
    8MOL   C173 4947   6.446   3.299   6.913 -0.0696  0.3123  0.6189
    8MOL   C174 4948   6.465   3.158   6.920  0.0249 -0.4522  0.1136
    8MOL   O175 4949   6.357   3.078   6.891  0.0837 -0.1084 -0.7815
    8MOL   C176 4950   6.593   3.105   6.950  0.2905  0.4108  0.2521
    8MOL   C177 4951   6.705   3.187   6.977 -0.0204  0.1440 -0.0981
    8MOL   C178 4952   6.685   3.328   6.969  0.1258  0.1922 -0.7871
    8MOL   C179 4953   6.796   3.426   7.004  1.1779 -0.1477  0.1216
    8MOL   O180 4954   6.822   3.511   6.923 -0.5387  0.0880  0.3437
    8MOL   C181 4955   6.857   3.410   7.136  0.0427  0.0578 -0.5498
    8MOL   C182 4956   6.809   3.326   7.242 -0.8024 -0.5100 -0.0858
    8MOL   C183 4957   6.878   3.325   7.363  0.2064 -0.3974  0.1892
    8MOL   C184 4958   6.998   3.392   7.386 -0.0689  0.1728  0.1422
    8MOL   O185 4959   7.064   3.377   7.504 -0.2130 -0.8236  0.6690
    8MOL   C186 4960   7.166   3.284   7.516  0.0472 -0.0491 -0.4584
    8MOL   C187 4961   7.288   3.309   7.583 -0.5164  0.2612 -0.1931
    8MOL   C188 4962   7.396   3.216   7.584 -0.1128  0.4681  0.2418
    8MOL   C189 4963   7.381   3.097   7.511  0.1023  0.0381  0.3806
    8MOL   C190 4964   7.252   3.063   7.455  0.2627 -0.8732 -0.0603
    8MOL   C191 4965   7.146   3.158   7.457 -0.7278 -0.4655  0.2365
    8MOL   C192 4966   7.052   3.476   7.282  0.4972 -0.5816 -0.0363
    8MOL   C193 4967   6.977   3.490   7.164  0.6140  0.2566  0.0338
    8MOL   H194 4968   6.537   3.488   6.943 -1.4568  0.3806 -1.6086
    8MOL   H195 4969   6.353   3.341   6.879  0.2829  0.4808 -0.1659
    8MOL   H196 4970   6.596   2.998   6.956 -2.9370  0.1951 -1.0799
    8MOL   H197 4971   6.798   3.140   7.005  0.2610  0.2883 -0.7781
    8MOL   H198 4972   6.713   3.277   7.241 -1.1778  0.1645  1.3516
    8MOL   H199 4973   6.840   3.264   7.443 -0.9466  1.3829  1.0181
    8MOL   H200 4974   7.307   3.403   7.632  2.7822 -1.2396  1.6190
    8MOL   H201 4975   7.493   3.243   7.624  0.0504  0.5000 -0.1762
    8MOL   H202 4976   7.237   2.964   7.415 -1.3469 -1.1175  1.0819
    8MOL   H203 4977   7.053   3.140   7.406 -0.8805  0.2854  0.2386
    8MOL   H204 4978   7.140   3.528   7.317  0.3409  0.2954 -0.9186
    8MOL   H205 4979   7.002   3.569   7.095 -1.0590 -0.0259 -0.9121
    8MOL   C206 4980   7.437   2.671   7.609  1.0680 -0.1212  0.3625
    8MOL   C207 4981   7.453   2.808   7.612 -0.4818 -0.7739  0.1369
    8MOL   C208 4982   7.475   2.883   7.494 -0.2771  0.6247  0.6818
    8MOL   O209 4983   7.492   3.016   7.497 -0.7365 -0.0644  0.4737
    8MOL   C210 4984   7.485   2.808   7.379 -0.2337 -0.1986  0.0452
    8MOL   C211 4985   7.469   2.668   7.369  0.0610  0.2545 -0.4990
    8MOL   C212 4986   7.440   2.593   7.488 -0.2899  0.8610  0.3274
    8MOL   C213 4987   7.421   2.443   7.492  0.1745 -0.8424 -0.3322
    8MOL   O214 4988   7.459   2.370   7.581 -0.4831  0.8744  0.0338
    8MOL   C215 4989   7.349   2.394   7.372 -0.2312 -0.3157 -0.2420
    8MOL   C216 4990   7.236   2.462   7.316 -0.3380 -0.4224  0.1212
    8MOL   C217 4991   7.175   2.409   7.196 -0.5825 -0.2505  0.0087
    8MOL   C218 4992   7.237   2.301   7.129 -0.5406 -0.1600  0.3103
    8MOL   O219 4993   7.175   2.248   7.019 -0.0014  0.4304 -0.1485
    8MOL   C220 4994   7.039   2.258   7.000 -0.1387 -0.0490  0.2792
    8MOL   C221 4995   6.942   2.221   7.090 -0.5499  0.6749  0.1885
    8MOL   C222 4996   6.813   2.271   7.085  0.1108  0.1410 -0.4832
    8MOL   C223 4997   6.781   2.368   6.983 -0.4298  0.0459 -0.5747
    8MOL   C224 4998   6.870   2.385   6.872 -0.7712 -0.1455  0.1636
    8MOL   C225 4999   6.999   2.330   6.881 -0.0037 -0.0654  0.3452
    8MOL   C226 5000   7.353   2.242   7.178 -0.2278  0.0759 -0.2040
    8MOL   C227 5001   7.407   2.281   7.298  0.3239 -0.2865 -0.0493
    8MOL   H228 5002   7.412   2.621   7.701  0.4666 -1.3965 -0.4759
    8MOL   H229 5003   7.440   2.867   7.702 -2.4465  1.6613 -1.6888
    8MOL   H230 5004   7.501   2.873   7.294  1.4280  0.7124  1.0260
    8MOL   H231 5005   7.484   2.616   7.275  0.9079  0.6295 -0.5743
    8MOL   H232 5006   7.194   2.551   7.360 -4.3292 -1.3760 -1.5924
    8MOL   H233 5007   7.099   2.477   7.161  1.2355  0.3114 -2.9981
    8MOL   H234 5008   6.973   2.153   7.168  1.1162 -0.4899 -1.4722
    8MOL   H235 5009   6.746   2.246   7.166 -1.7402  1.7169 -1.4863
    8MOL   H236 5010   6.831   2.433   6.783  0.4126  0.3325 -0.1072
    8MOL   H237 5011   7.079   2.359   6.814  0.1133  0.5996  0.7667
    8MOL   H238 5012   7.398   2.158   7.127  0.1230  1.6718 -2.6077
    8MOL   H239 5013   7.486   2.228   7.350 -0.2174 -2.6944 -1.6028
    8MOL   C240 5014   6.759   2.767   7.132 -0.3209 -0.0590 -0.3372
    8MOL   C241 5015   6.761   2.644   7.059  0.2565  0.2132 -0.4198
    8MOL   C242 5016   6.655   2.546   7.062 -0.5331 -0.5699 -0.0578
    8MOL   O243 5017   6.662   2.437   6.980 -0.1032  0.2771 -0.2387
    8MOL   C244 5018   6.539   2.577   7.139 -0.5960  0.5813 -0.0755
    8MOL   C245 5019   6.537   2.697   7.217 -0.3408  0.3792  0.2546
    8MOL   C246 5020   6.647   2.791   7.217 -0.0962 -0.6264 -0.5959
    8MOL   C247 5021   6.647   2.922   7.292  0.0856  0.3249 -0.0720
    8MOL   O248 5022   6.691   3.026   7.237  0.0630 -0.3742 -0.0018
    8MOL   C249 5023   6.600   2.921   7.434 -0.0878  0.0349  0.1457
    8MOL   C250 5024   6.572   3.045   7.493  0.2948 -0.3164 -0.7474
    8MOL   C251 5025   6.514   3.050   7.624 -0.0605 -0.1864  0.0642
    8MOL   C252 5026   6.502   2.930   7.700 -0.1178 -0.0991  0.2723
    8MOL   O253 5027   6.452   2.931   7.823  0.3814  0.0717  0.3675
    8MOL   C254 5028   6.523   3.001   7.913 -0.3107 -0.4848  0.6151
    8MOL   C255 5029   6.638   2.947   7.972 -0.5810 -0.4497  0.6986
    8MOL   C256 5030   6.720   3.013   8.068  0.5601 -0.1435 -0.4018
    8MOL   C257 5031   6.691   3.144   8.093 -0.4967 -0.2046 -0.5297
    8MOL   C258 5032   6.583   3.212   8.022 -0.7055  0.4477  0.7017
    8MOL   C259 5033   6.501   3.138   7.932 -0.6045 -0.7332 -0.1128
    8MOL   C260 5034   6.537   2.805   7.644 -0.6477  0.0019 -0.5418
    8MOL   C261 5035   6.582   2.801   7.510  0.3442 -0.2082  0.0357
    8MOL   H262 5036   6.846   2.830   7.130 -1.1084  0.9944 -2.9368
    8MOL   H263 5037   6.843   2.627   6.991  0.2771 -0.5648 -0.2041
    8MOL   H264 5038   6.453   2.511   7.138  0.2544 -0.5288 -0.7794
    8MOL   H265 5039   6.448   2.705   7.277 -0.3048 -1.7615  0.6351
    8MOL   H266 5040   6.575   3.136   7.435 -2.0789 -0.5089 -1.2226
    8MOL   H267 5041   6.482   3.146   7.661  0.2404  0.5470 -1.5296
    8MOL   H268 5042   6.666   2.846   7.947 -0.1221 -0.8015  2.5650
    8MOL   H269 5043   6.800   2.959   8.117  0.8229  1.4959  1.0442
    8MOL   H270 5044   6.579   3.319   8.035  1.9857  0.8154 -1.1345
    8MOL   H271 5045   6.423   3.194   7.882  1.0758  1.5758 -0.2134
    8MOL   H272 5046   6.517   2.718   7.705 -3.2236 -0.6790 -2.2841
    8MOL   H273 5047   6.605   2.706   7.465  0.5082 -0.1238 -0.0585
    8MOL   C274 5048   6.527   3.129   0.174 -0.4338  0.5473 -0.3603
    8MOL   C275 5049   6.579   3.136   0.044  0.4728 -0.1169 -0.3413
    8MOL   C276 5050   6.708   3.182   0.013 -0.2865  0.4631 -0.1549
    8MOL   O277 5051   6.756   3.204   8.204  0.6970  0.0126 -0.3212
    8MOL   C278 5052   6.788   3.216   0.121  0.4114  0.1170  0.0301
    8MOL   C279 5053   6.740   3.212   0.253 -0.0647  0.1880  0.0883
    8MOL   C280 5054   6.611   3.158   0.285 -0.2417  0.1504 -0.2099
    8MOL   C281 5055   6.556   3.139   0.425  0.3136  0.8479 -0.4031
    8MOL   O282 5056   6.442   3.096   0.448 -0.3777 -0.1250 -0.0170
    8MOL   C283 5057   6.639   3.183   0.538 -0.1915  0.2236  0.0845
    8MOL   C284 5058   6.720   3.095   0.615  0.0440 -0.0054  0.3050
    8MOL   C285 5059   6.794   3.145   0.728 -0.5640 -0.5394  0.5426
    8MOL   C286 5060   6.784   3.285   0.760  0.0906 -0.1314 -0.7112
    8MOL   O287 5061   6.856   3.337   0.862  0.0281  0.6968 -0.3855
    8MOL   C288 5062   6.852   3.276   0.989 -0.1383  0.2038  0.1981
    8MOL   C289 5063   6.970   3.291   1.069 -0.0251 -0.9707 -0.4797
    8MOL   C290 5064   6.984   3.212   1.178  0.0120 -0.0224 -0.1036
    8MOL   C291 5065   6.885   3.120   1.213  0.3097  0.0999  0.7577
    8MOL   C292 5066   6.761   3.115   1.145 -0.2312 -1.0323  0.1111
    8MOL   C293 5067   6.746   3.195   1.029 -0.1712 -0.7827  0.3159
    8MOL   C294 5068   6.709   3.369   0.683 -0.4499  0.0357  0.6961
    8MOL   C295 5069   6.633   3.319   0.577  0.4877 -0.6973  0.5363
    8MOL   H296 5070   6.425   3.097   0.188  0.0866  0.1341  2.9014
    8MOL   H297 5071   6.514   3.115   8.273 -2.0451 -0.3451  1.6003
    8MOL   H298 5072   6.889   3.245   0.095  0.5766  0.7351  1.2767
    8MOL   H299 5073   6.818   3.245   0.321 -0.4737  0.5010  0.4104
    8MOL   H300 5074   6.732   2.990   0.591  1.0561  0.3601 -0.8170
    8MOL   H301 5075   6.843   3.066   0.783 -1.5854 -1.1498  0.5932
    8MOL   H302 5076   7.054   3.348   1.034 -2.0030  1.3948 -1.5118
    8MOL   H303 5077   7.083   3.208   1.221 -0.9650  2.1920  2.5300
    8MOL   H304 5078   6.682   3.048   1.175 -0.2765 -1.7143 -1.4512
    8MOL   H305 5079   6.656   3.202   0.970  0.4347 -0.0266 -0.5421
    8MOL   H306 5080   6.703   3.473   0.711  0.1228  0.0663  0.7120
    8MOL   H307 5081   6.565   3.382   0.520  0.8047 -0.1684  0.7370
    8MOL   C308 5082   6.890   2.676   1.336 -0.3936 -0.2557  0.5117
    8MOL   C309 5083   6.874   2.811   1.369  0.0836  0.1201 -0.1500
    8MOL   C310 5084   6.946   2.919   1.302  0.0162  1.0266  0.2352
    8MOL   O311 5085   6.907   3.047   1.322 -0.3572 -0.2812 -0.4913
    8MOL   C312 5086   7.049   2.872   1.213  0.5785  0.0320 -0.3256
    8MOL   C313 5087   7.064   2.742   1.183 -0.1998 -0.1385  0.2556
    8MOL   C314 5088   6.982   2.645   1.242 -0.0831  0.2191 -0.2897
    8MOL   C315 5089   7.007   2.496   1.224  0.7538  0.1263  0.0828
    8MOL   O316 5090   7.106   2.439   1.267 -0.6981  0.2409 -0.0163
    8MOL   C317 5091   6.898   2.421   1.154  0.0745  0.0984 -0.0497
    8MOL   C318 5092   6.920   2.286   1.129  0.0800 -0.2795  0.1796
    8MOL   C319 5093   6.831   2.212   1.049 -0.0719 -0.0111  0.0743
    8MOL   C320 5094   6.722   2.268   0.987 -0.4305  0.0247  0.3234
    8MOL   O321 5095   6.647   2.193   0.900 -0.5308  0.2781 -0.7942
    8MOL   C322 5096   6.550   2.251   0.816 -0.6428 -0.3089  0.7075
    8MOL   C323 5097   6.416   2.263   0.858 -0.2110  0.1864  0.1064
    8MOL   C324 5098   6.316   2.307   0.767 -0.4606 -0.3989  0.2532
    8MOL   C325 5099   6.359   2.336   0.635  0.1170  0.3740 -0.6132
    8MOL   C326 5100   6.496   2.331   0.595 -0.0354  0.7359  0.0493
    8MOL   C327 5101   6.589   2.291   0.689 -0.4459 -0.4417 -0.2356
    8MOL   C328 5102   6.690   2.403   1.023  0.5373  0.5393  0.3857
    8MOL   C329 5103   6.775   2.476   1.104  0.2974  0.3550  0.4952
    8MOL   H330 5104   6.822   2.607   1.384 -2.0545  0.3985 -0.8546
    8MOL   H331 5105   6.808   2.842   1.448  2.2261  0.6464  1.5018
    8MOL   H332 5106   7.109   2.942   1.156  0.7363 -0.2281 -0.4819
    8MOL   H333 5107   7.138   2.721   1.107 -0.1294 -1.4468  0.6847
    8MOL   H334 5108   6.997   2.218   1.163 -1.5157 -1.7011  1.0810
    8MOL   H335 5109   6.846   2.106   1.033 -0.0849  0.0101 -0.0743
    8MOL   H336 5110   6.393   2.233   0.959 -1.1957  0.9239  0.1116
    8MOL   H337 5111   6.212   2.308   0.796 -0.0898 -0.8674  1.6445
    8MOL   H338 5112   6.513   2.359   0.492  0.0746 -0.2332 -0.2042
    8MOL   H339 5113   6.692   2.275   0.660  0.5721  0.8183  2.5473
    8MOL   H340 5114   6.595   2.446   0.997  0.8227  1.4926  0.9021
    8MOL   H341 5115   6.744   2.578   1.122  0.2989  0.4538 -0.0485
    8MOL   C342 5116   6.239   2.643   0.314  0.0664  0.7906  0.3486
    8MOL   C343 5117   6.286   2.527   0.379 -0.8618  1.2016  0.1521
    8MOL   C344 5118   6.236   2.484   0.504 -0.4738 -0.5420  0.1060
    8MOL   O345 5119   6.265   2.362   0.546 -0.3451  0.2582  0.8229
    8MOL   C346 5120   6.152   2.569   0.575  0.5291  0.3860  0.0280
    8MOL   C347 5121   6.107   2.684   0.509  0.0696 -0.2592 -0.3085
    8MOL   C348 5122   6.139   2.719   0.378 -0.1624  0.5015  0.4975
    8MOL   C349 5123   6.069   2.826   0.306 -0.0913  0.1064  0.9115
    8MOL   O350 5124   6.021   2.812   0.194  0.8342  0.5002 -0.6499
    8MOL   C351 5125   6.067   2.960   0.374  0.2610 -0.2292 -0.9266
    8MOL   C352 5126   6.001   3.065   0.304 -0.9404 -0.1627  0.3886
    8MOL   C353 5127   6.009   3.195   0.359 -0.6735  0.2094 -0.1019
    8MOL   C354 5128   6.083   3.214   0.475  0.8603 -0.1757  0.3828
    8MOL   O355 5129   6.099   3.335   0.534  0.2924  0.1092 -0.3260
    8MOL   C356 5130   6.152   3.435   0.459 -0.1660  0.7396  1.1558
    8MOL   C357 5131   6.290   3.454   0.480 -0.1266  0.6518  0.3757
    8MOL   C358 5132   6.361   3.541   0.395  0.2866  0.1188 -0.1582
    8MOL   C359 5133   6.293   3.618   0.304  0.6029 -0.3239  0.5085
    8MOL   C360 5134   6.151   3.608   0.290  0.5947  0.2367 -1.2727
    8MOL   C361 5135   6.085   3.512   0.366  0.2982  0.3163 -0.2516
    8MOL   C362 5136   6.149   3.114   0.546 -0.5185  0.0745 -0.0435
    8MOL   C363 5137   6.136   2.983   0.494 -0.0534  0.5497  0.4227
    8MOL   H364 5138   6.277   2.673   0.217  0.5271  1.6016  0.7839
    8MOL   H365 5139   6.365   2.473   0.329 -0.9481  0.7558  0.4991
    8MOL   H366 5140   6.102   2.536   0.664  0.4804  2.1063  0.6693
    8MOL   H367 5141   6.031   2.739   0.564 -0.2329  1.0874 -2.0251
    8MOL   H368 5142   5.945   3.053   0.213 -1.7735 -0.7296  0.9778
    8MOL   H369 5143   5.952   3.272   0.310 -1.4099 -0.1817  0.1304
    8MOL   H370 5144   6.343   3.390   0.549 -0.3810 -0.3043 -0.3014
    8MOL   H371 5145   6.469   3.543   0.402  0.5044  2.2101 -3.2713
    8MOL   H372 5146   6.098   3.674   0.222 -0.8142  1.0128  0.5144
    8MOL   H373 5147   5.978   3.504   0.361  0.1153  2.0596  0.5791
    8MOL   H374 5148   6.191   3.118   0.645 -1.1957 -0.6372  0.2785
    8MOL   H375 5149   6.197   2.905   0.537 -0.4778 -0.8608 -1.4856
    8MOL   C376 5150   6.592   3.525   0.000 -0.0370  0.1042 -0.6636
    8MOL   C377 5151   6.481   3.561   0.078  0.3385 -0.6519  1.1135
    8MOL   C378 5152   6.477   3.675   0.160  1.5851  0.1399 -0.0678
    8MOL   O379 5153   6.356   3.710   0.223 -0.3588 -0.4900  0.2626
    8MOL   C380 5154   6.590   3.757   0.166 -0.0294 -0.7221 -0.0114
    8MOL   C381 5155   6.706   3.725   0.098  0.2201  0.1498  0.2645
    8MOL   C382 5156   6.711   3.601   0.020 -0.0477 -0.6935 -0.8642
    8MOL   C383 5157   6.832   3.559   8.262  0.3145  0.0087 -0.3152
    8MOL   O384 5158   6.826   3.498   8.151 -0.2776 -0.1721 -0.0058
    8MOL   C385 5159   6.962   3.587   0.017  0.4283  0.0116 -0.5026
    8MOL   C386 5160   6.977   3.564   0.153  0.3721  0.4183  0.3093
    8MOL   C387 5161   7.106   3.584   0.215 -0.6243  0.1127  0.1107
    8MOL   C388 5162   7.217   3.622   0.139 -0.0355 -0.5393 -0.4208
    8MOL   O389 5163   7.342   3.630   0.193 -0.3537  0.1798  0.1704
    8MOL   C390 5164   7.367   3.697   0.312  0.4962 -0.5297 -0.0378
    8MOL   C391 5165   7.408   3.630   0.429  0.0209  0.5874 -0.0656
    8MOL   C392 5166   7.423   3.701   0.548  0.4772  0.7480 -0.4594
    8MOL   C393 5167   7.396   3.838   0.558  0.8272  0.3091  0.1083
    8MOL   C394 5168   7.358   3.907   0.439  0.0497 -0.2228 -1.0477
    8MOL   C395 5169   7.347   3.836   0.318  0.1781  0.0552  0.2787
    8MOL   C396 5170   7.198   3.650   0.004 -0.1958  0.1344  0.0141
    8MOL   C397 5171   7.070   3.632   8.258  0.0180  0.2396 -0.2807
    8MOL   H398 5172   6.596   3.440   8.247  2.5293 -0.4899  0.1765
    8MOL   H399 5173   6.400   3.490   0.084 -0.8196  0.5013 -0.1911
    8MOL   H400 5174   6.575   3.849   0.219 -2.4798 -1.1523  0.1286
    8MOL   H401 5175   6.794   3.788   0.101  0.0755  0.3575  0.0974
    8MOL   H402 5176   6.895   3.526   0.214  1.2810 -1.0588  0.6219
    8MOL   H403 5177   7.128   3.573   0.320  3.4499 -0.2281 -0.6825
    8MOL   H404 5178   7.405   3.522   0.427 -0.1618  0.6058 -0.7712
    8MOL   H405 5179   7.453   3.655   0.641  0.8385 -2.0679 -1.9228
    8MOL   H406 5180   7.350   4.014   0.424  0.5416 -0.1869 -1.0561
    8MOL   H407 5181   7.328   3.893   0.228  2.9391 -1.3927 -1.2726
    8MOL   H408 5182   7.277   3.684   8.252 -0.0905  2.0636  1.1126
    8MOL   H409 5183   7.067   3.654   8.153 -0.6210  2.2411  0.1424
    8MOL   C410 5184   7.203   3.956   0.976 -0.3836 -0.2797  0.1663
    8MOL   C411 5185   7.312   3.914   0.889 -0.6924 -0.4559 -0.1764
    8MOL   C412 5186   7.318   3.949   0.752 -0.3167 -1.5912 -0.2100
    8MOL   O413 5187   7.421   3.912   0.669  0.0179 -0.1530 -0.4156
    8MOL   C414 5188   7.211   4.025   0.697  0.1726  0.3647 -0.3763
    8MOL   C415 5189   7.097   4.057   0.777  0.6738  0.0977  0.3381
    8MOL   C416 5190   7.088   4.017   0.913 -0.2071  0.4403  0.0378
    8MOL   C417 5191   6.963   4.036   0.996  0.2276 -0.4137 -0.0628
    8MOL   O418 5192   6.876   3.946   0.994  0.4903 -0.0049  0.2401
    8MOL   C419 5193   6.952   4.174   1.056 -0.1058 -0.3125 -0.7561
    8MOL   C420 5194   6.831   4.241   1.054  0.3727  0.5320  0.4430
    8MOL   C421 5195   6.816   4.360   1.122  0.5767 -0.0230 -0.2380
    8MOL   C422 5196   6.932   4.423   1.178  0.0986  0.4015 -0.8007
    8MOL   O423 5197   6.910   4.537   1.252  0.5587 -0.6546 -0.2452
    8MOL   C424 5198   6.924   4.664   1.201  0.0692 -0.0100  0.0275
    8MOL   C425 5199   7.036   4.687   1.120  0.3335 -0.7143 -0.0449
    8MOL   C426 5200   7.055   4.816   1.066  0.0952 -0.0388 -0.4917
    8MOL   C427 5201   6.969   4.921   1.091 -0.1288  0.3316  0.2658
    8MOL   C428 5202   6.857   4.894   1.169 -0.0521  0.4994  0.0863
    8MOL   C429 5203   6.833   4.767   1.227 -0.3837 -1.0645 -0.0580
    8MOL   C430 5204   7.060   4.365   1.168 -0.4310 -0.3977 -0.1938
    8MOL   C431 5205   7.064   4.234   1.112 -1.0371 -0.0487  0.5520
    8MOL   H432 5206   7.203   3.935   1.082  1.9431 -0.0456  0.2460
    8MOL   H433 5207   7.397   3.863   0.932 -0.3794  0.3974  0.2427
    8MOL   H434 5208   7.204   4.051   0.593  1.6487 -1.0457 -0.8530
    8MOL   H435 5209   7.016   4.106   0.725  0.8765  1.5683  1.3777
    8MOL   H436 5210   6.747   4.196   1.004  0.1435 -0.0527  1.3537
    8MOL   H437 5211   6.717   4.403   1.128 -0.5688 -2.4930 -0.4691
    8MOL   H438 5212   7.111   4.612   1.105  0.8864 -0.2570  0.4120
    8MOL   H439 5213   7.140   4.823   0.999  1.9865  0.1985  1.8735
    8MOL   H440 5214   6.797   4.981   1.189  0.7382  1.3695 -1.2317
    8MOL   H441 5215   6.746   4.740   1.285 -2.2186 -0.4068 -2.4119
    8MOL   H442 5216   7.153   4.410   1.202 -0.5840 -1.0892  1.1703
    8MOL   H443 5217   7.163   4.195   1.095 -0.8610  0.3647  0.6219
    8MOL   C444 5218   7.190   5.094   0.730 -0.0100 -0.1186 -0.1862
    8MOL   C445 5219   7.154   5.090   0.871  0.1194 -0.3128  0.5676
    8MOL   C446 5220   7.023   5.054   0.904  0.1029 -0.3137  0.4599
    8MOL   O447 5221   7.002   5.045   1.038 -0.3708 -0.2614  0.1232
    8MOL   C448 5222   6.930   5.023   0.809 -0.1020  0.4149  0.5768
    8MOL   C449 5223   6.958   5.041   0.673  0.9054 -0.4884 -0.1407
    8MOL   C450 5224   7.089   5.080   0.636  0.0229 -0.1545 -0.0402
    8MOL   C451 5225   7.131   5.105   0.499  0.2667  0.4897  0.4419
    8MOL   O452 5226   7.229   5.177   0.480 -0.5536  0.4822 -0.0746
    8MOL   C453 5227   7.053   5.038   0.387 -0.2082  1.0010 -0.7718
    8MOL   C454 5228   7.021   5.109   0.269  0.4239  0.5466  0.1010
    8MOL   C455 5229   6.954   5.047   0.161  0.0481 -0.6087 -0.9172
    8MOL   C456 5230   6.919   4.914   0.176 -0.4839 -0.0175  0.6684
    8MOL   O457 5231   6.866   4.851   0.066  0.2005  0.2580 -0.6266
    8MOL   C458 5232   6.744   4.892   0.025  0.0302  0.5377 -0.2274
    8MOL   C459 5233   6.631   4.880   0.111 -0.0308  0.1952 -0.0769
    8MOL   C460 5234   6.504   4.910   0.064  0.5140 -0.0723 -0.4187
    8MOL   C461 5235   6.486   4.964   8.250 -0.0221  0.2503  0.6088
    8MOL   C462 5236   6.597   4.978   8.160  0.2274  0.6945 -0.6577
    8MOL   C463 5237   6.726   4.943   8.208 -0.0672 -0.0183  0.3533
    8MOL   C464 5238   6.941   4.842   0.299  0.8133  0.0371  0.2387
    8MOL   C465 5239   7.000   4.908   0.405 -0.1863  0.1439 -0.5484
    8MOL   H466 5240   7.295   5.114   0.719  0.2323  0.5964  2.9885
    8MOL   H467 5241   7.229   5.109   0.946 -0.5227  0.0405  1.1361
    8MOL   H468 5242   6.835   4.977   0.832  1.1755 -2.6499 -0.0747
    8MOL   H469 5243   6.880   5.032   0.600 -0.5880 -0.3424  1.4095
    8MOL   H470 5244   7.049   5.213   0.261 -1.4379  1.0547 -0.2726
    8MOL   H471 5245   6.924   5.099   0.071 -2.8926  2.9193  1.8857
    8MOL   H472 5246   6.647   4.838   0.210 -2.1469 -0.0735  0.1760
    8MOL   H473 5247   6.426   4.896   0.137  0.4294 -1.7356 -0.8030
    8MOL   H474 5248   6.579   5.014   8.060  1.0982 -1.3964 -1.5952
    8MOL   H475 5249   6.815   4.947   8.148 -0.6798 -0.9746 -0.6392
    8MOL   H476 5250   6.902   4.741   0.304 -1.5402  0.9374  0.9691
    8MOL   H477 5251   7.028   4.860   0.498  2.1233  0.2348 -1.1779
    8MOL   C478 5252   6.198   5.223   0.136  0.4313  0.3826 -0.6408
    8MOL   C479 5253   6.240   5.105   0.077 -0.2149 -0.0356 -0.4089
    8MOL   C480 5254   6.308   5.113   8.265 -0.1152  0.1764 -0.3794
    8MOL   O481 5255   6.357   4.999   8.213  0.2376  0.4366  0.4327
    8MOL   C482 5256   6.326   5.235   8.197  0.6381  0.2026 -0.8895
    8MOL   C483 5257   6.275   5.355   8.256  0.0499  0.1435  0.3065
    8MOL   C484 5258   6.210   5.351   0.070  0.5569  0.3059 -0.7896
    8MOL   C485 5259   6.166   5.474   0.136 -0.1352 -0.1824  0.8006
    8MOL   O486 5260   6.164   5.480   0.257  0.2383 -0.4798 -0.2536
    8MOL   C487 5261   6.126   5.590   0.052  1.0262  1.0946  0.0987
    8MOL   C488 5262   6.160   5.717   0.099 -0.2014 -0.1948 -0.4641
    8MOL   C489 5263   6.116   5.837   0.035 -0.7116  0.1068  0.5137
    8MOL   C490 5264   6.036   5.832   8.232 -0.4150 -0.2377 -0.6315
    8MOL   O491 5265   5.992   5.950   8.186 -0.4912  0.6785  0.7764
    8MOL   C492 5266   5.933   5.958   8.059  0.0746 -0.8772 -0.2666
    8MOL   C493 5267   5.804   6.020   8.046 -0.8694  0.1143  0.2337
    8MOL   C494 5268   5.743   6.043   7.916 -0.0147 -0.2901 -0.4521
    8MOL   C495 5269   5.813   5.996   7.806  0.7863 -0.6127 -0.0465
    8MOL   C496 5270   5.939   5.937   7.816  0.6559 -0.1702  0.0263
    8MOL   C497 5271   6.006   5.920   7.944 -0.1212  0.3976  0.7731
    8MOL   C498 5272   5.994   5.701   8.189  0.3483  0.1501  0.6318
    8MOL   C499 5273   6.056   5.582   8.246  0.6619 -0.6191 -0.0770
    8MOL   H500 5274   6.145   5.214   0.229  1.1904  1.0522 -0.1382
    8MOL   H501 5275   6.221   5.006   0.114  0.4621 -0.0098  0.0102
    8MOL   H502 5276   6.374   5.239   8.101  2.8107  1.7100  0.2276
    8MOL   H503 5277   6.294   5.446   8.202  0.6131 -0.1099  0.0755
    8MOL   H504 5278   6.212   5.729   0.193  1.9289 -3.7987 -1.1098
    8MOL   H505 5279   6.150   5.926   0.085  1.4060 -0.4824  0.1775
    8MOL   H506 5280   5.761   6.045   8.141  2.5630  1.2690  1.5660
    8MOL   H507 5281   5.650   6.087   7.881  0.5003  0.3617 -1.0146
    8MOL   H508 5282   5.980   5.899   7.724  0.9610 -0.6578  0.3607
    8MOL   H509 5283   6.103   5.872   7.946  0.9538  2.4030 -1.0817
    8MOL   H510 5284   5.938   5.674   8.101 -0.2450 -0.8867  1.3094
    8MOL   H511 5285   6.030   5.487   8.201  1.2546  0.0051 -1.7746
    8MOL   C512 5286   5.594   5.687   7.571 -0.2428 -0.0790 -0.9852
    8MOL   C513 5287   5.623   5.796   7.650 -0.4037  0.2663 -0.0167
    8MOL   C514 5288   5.727   5.892   7.610 -0.4908  0.2500 -0.5211
    8MOL   O515 5289   5.754   6.011   7.680  0.1543  0.9009 -0.5398
    8MOL   C516 5290   5.792   5.870   7.485 -0.1785  0.9698 -0.1972
    8MOL   C517 5291   5.766   5.758   7.416 -0.0140 -0.3167  0.4529
    8MOL   C518 5292   5.666   5.666   7.456 -0.8464  0.0678  0.1227
    8MOL   C519 5293   5.615   5.555   7.368 -0.1716 -0.4606  0.2090
    8MOL   O520 5294   5.500   5.516   7.380  0.6713 -0.2048 -0.4079
    8MOL   C521 5295   5.705   5.507   7.262  0.3126  0.1899  0.2368
    8MOL   C522 5296   5.643   5.471   7.140  0.7357 -0.5064  0.0066
    8MOL   C523 5297   5.715   5.406   7.036  0.3190 -0.0180  0.4661
    8MOL   C524 5298   5.850   5.380   7.058  0.2977  0.3181 -0.0907
    8MOL   O525 5299   5.917   5.324   6.950 -1.0178 -0.0535 -0.3173
    8MOL   C526 5300   6.007   5.221   6.981 -0.5016  0.2374  0.2638
    8MOL   C527 5301   6.147   5.244   6.960  0.1454 -0.2086 -0.1554
    8MOL   C528 5302   6.240   5.146   6.989  0.1168 -0.3457  0.1173
    8MOL   C529 5303   6.194   5.022   7.040 -0.8265  0.3382  0.7080
    8MOL   C530 5304   6.057   4.996   7.066  0.4878  0.5717 -0.3646
    8MOL   C531 5305   5.963   5.094   7.031  0.2399  0.4395 -0.9731
    8MOL   C532 5306   5.918   5.430   7.168  0.8011 -0.1386 -0.1816
    8MOL   C533 5307   5.844   5.486   7.276 -0.6601 -0.2480 -0.0807
    8MOL   H534 5308   5.522   5.619   7.615  1.5959 -1.7794 -0.5223
    8MOL   H535 5309   5.566   5.805   7.741 -1.1674  0.1447 -0.4824
    8MOL   H536 5310   5.860   5.945   7.447 -1.6005  1.6236 -1.5124
    8MOL   H537 5311   5.824   5.741   7.327  0.6631 -1.6036  1.1114
    8MOL   H538 5312   5.535   5.464   7.135  0.7306  0.5810 -1.6520
    8MOL   H539 5313   5.673   5.359   6.948 -0.0529  0.2736  0.4839
    8MOL   H540 5314   6.182   5.334   6.912  0.6869 -1.1532 -1.5663
    8MOL   H541 5315   6.345   5.160   6.968  0.4864 -0.8891  1.5251
    8MOL   H542 5316   6.016   4.900   7.096  2.0099 -0.6186 -2.0296
    8MOL   H543 5317   5.856   5.077   7.038  0.5301 -1.3213 -0.6472
    8MOL   H544 5318   6.023   5.411   7.183  0.7433 -0.0530  0.3259
    8MOL   H545 5319   5.891   5.507   7.371  0.5938  1.0056 -0.9543
    8MOL   C546 5320   6.274   4.570   6.944 -0.1643  0.3169 -0.0740
    8MOL   C547 5321   6.282   4.681   7.024 -0.3270  0.1340 -0.3610
    8MOL   C548 5322   6.281   4.816   6.974  0.6362 -0.1474  0.4983
    8MOL   O549 5323   6.284   4.922   7.061 -0.0106 -0.7692  0.4898
    8MOL   C550 5324   6.279   4.834   6.834  0.4596  0.3025  0.6657
    8MOL   C551 5325   6.279   4.719   6.753 -0.0988  0.5572 -0.0462
    8MOL   C552 5326   6.269   4.591   6.806 -0.2413  0.1182 -0.3955
    8MOL   C553 5327   6.248   4.482   6.710 -0.1150 -0.6576 -0.5470
    8MOL   O554 5328   6.201   4.499   6.600  0.0356  0.1808 -0.2978
    8MOL   C555 5329   6.283   4.344   6.752  0.5797  0.2901  0.5510
    8MOL   C556 5330   6.198   4.238   6.712  0.3260  0.2061  0.0594
    8MOL   C557 5331   6.229   4.110   6.754 -0.5014 -0.2976 -0.7254
    8MOL   C558 5332   6.340   4.078   6.835  0.9967  0.2539  0.1033
    8MOL   O559 5333   6.353   3.954   6.894 -0.2474  0.4322  0.1659
    8MOL   C560 5334   6.363   3.839   6.817  0.0266 -0.1884 -0.2955
    8MOL   C561 5335   6.248   3.785   6.750 -0.2092 -0.3300  0.2929
    8MOL   C562 5336   6.264   3.667   6.674 -0.0259 -0.1980  0.8806
    8MOL   C563 5337   6.385   3.597   6.660  0.3104  0.3921 -0.4892
    8MOL   C564 5338   6.499   3.656   6.718 -0.0590  0.4652 -0.1993
    8MOL   C565 5339   6.487   3.775   6.793  0.2934 -0.0291  0.5730
    8MOL   C566 5340   6.427   4.181   6.866 -0.5360 -0.1017  0.5933
    8MOL   C567 5341   6.398   4.311   6.826 -0.7799 -0.1196 -0.0716
    8MOL   H568 5342   6.267   4.475   6.997 -5.3054  0.9191  0.6561
    8MOL   H569 5343   6.295   4.667   7.131  1.0165  2.8204 -0.1287
    8MOL   H570 5344   6.297   4.928   6.783  0.7981 -0.0558  0.1167
    8MOL   H571 5345   6.269   4.739   6.647  2.6781  1.8983 -0.1020
    8MOL   H572 5346   6.116   4.262   6.646  0.3422 -1.9310 -0.7567
    8MOL   H573 5347   6.167   4.026   6.725  2.1296 -2.9326  1.0685
    8MOL   H574 5348   6.150   3.829   6.756  0.5458  1.7667 -2.0005
    8MOL   H575 5349   6.175   3.629   6.625  0.9210  1.8572 -2.6340
    8MOL   H576 5350   6.597   3.612   6.702  0.0083  0.2294  0.8271
    8MOL   H577 5351   6.579   3.816   6.834 -0.8921  0.9685  2.3296
    8MOL   H578 5352   6.521   4.163   6.916 -0.2176  1.0977  0.4546
    8MOL   H579 5353   6.470   4.383   6.862 -0.6735 -0.1070 -0.3145
    8MOL   C580 5354   6.658   3.386   6.362  0.6264 -0.4566 -0.3612
    8MOL   C581 5355   6.579   3.387   6.481 -0.7396 -0.3294 -0.5003
    8MOL   C582 5356   6.463   3.468   6.485 -0.6491  0.6131  0.7585
    8MOL   O583 5357   6.387   3.482   6.600  0.4522  0.3840 -0.4732
    8MOL   C584 5358   6.426   3.534   6.367  0.4032  0.3177 -0.6538
    8MOL   C585 5359   6.496   3.521   6.248  0.4178 -0.2279 -0.3413
    8MOL   C586 5360   6.617   3.450   6.240 -0.1405  0.2342 -0.1908
    8MOL   C587 5361   6.698   3.448   6.112  0.4471 -0.0138 -1.2166
    8MOL   O588 5362   6.767   3.346   6.098 -0.3750  0.1020 -0.1354
    8MOL   C589 5363   6.688   3.570   6.021  0.3319  1.0844  0.3252
    8MOL   C590 5364   6.670   3.543   5.883  0.7168  0.5126  0.7832
    8MOL   C591 5365   6.642   3.648   5.797  0.2056  0.3826  0.0514
    8MOL   C592 5366   6.639   3.779   5.837 -0.6296 -0.0188 -0.2981
    8MOL   O593 5367   6.626   3.871   5.740  0.0845 -0.1550  0.6346
    8MOL   C594 5368   6.698   3.984   5.744  0.3934  0.3577 -0.3964
    8MOL   C595 5369   6.623   4.106   5.753  0.6758 -0.3959 -0.5024
    8MOL   C596 5370   6.693   4.229   5.743 -0.3499  0.2888 -0.1514
    8MOL   C597 5371   6.830   4.231   5.722 -0.6977  0.2357  0.0301
    8MOL   C598 5372   6.904   4.110   5.717 -0.4647  0.5941 -0.4283
    8MOL   C599 5373   6.836   3.986   5.735  0.1990  0.0460 -0.1234
    8MOL   C600 5374   6.671   3.813   5.971  0.9951 -0.2838 -0.4591
    8MOL   C601 5375   6.698   3.709   6.062  0.9740 -0.7258 -0.2098
    8MOL   H602 5376   6.746   3.324   6.364  2.1183  1.6295  0.0509
    8MOL   H603 5377   6.605   3.334   6.571 -1.1574 -1.0666 -0.8106
    8MOL   H604 5378   6.331   3.585   6.367  0.1262 -0.1838  0.3327
    8MOL   H605 5379   6.447   3.568   6.164  0.6154  1.6793  0.5879
    8MOL   H606 5380   6.675   3.444   5.840  0.9756 -0.5174  3.1331
    8MOL   H607 5381   6.620   3.621   5.695 -0.5492 -0.9948  0.5606
    8MOL   H608 5382   6.515   4.104   5.754  0.6760 -1.9167 -1.7940
    8MOL   H609 5383   6.645   4.326   5.745 -0.6372  0.1355  1.1126
    8MOL   H610 5384   7.012   4.109   5.726 -0.5868 -0.9764  1.2853
    8MOL   H611 5385   6.887   3.891   5.740  0.1620  0.1318  2.9282
    8MOL   H612 5386   6.672   3.915   6.007 -0.9284 -0.5149  0.2944
    8MOL   H613 5387   6.696   3.740   6.165  0.9476 -1.3979 -0.0057
    8MOL   C614 5388   7.095   4.341   5.403  0.3810 -0.0112 -0.5470
    8MOL   C615 5389   7.064   4.319   5.534  0.2058 -0.2727 -0.8477
    8MOL   C616 5390   6.939   4.372   5.580  0.9485 -0.6246 -0.6345
    8MOL   O617 5391   6.897   4.348   5.705 -0.7005 -0.4737 -0.4267
    8MOL   C618 5392   6.857   4.453   5.502 -0.6487  0.0382  0.3009
    8MOL   C619 5393   6.887   4.468   5.367  0.6889  0.0147  0.5093
    8MOL   C620 5394   7.004   4.407   5.318  0.7762 -0.4126 -0.1004
    8MOL   C621 5395   7.045   4.407   5.173  0.0757 -0.5037 -0.1320
    8MOL   O622 5396   7.142   4.473   5.144  0.1510 -0.1143  0.1040
    8MOL   C623 5397   6.965   4.338   5.071  0.3169  0.1795 -0.0978
    8MOL   C624 5398   6.890   4.226   5.104 -0.5470  0.2024 -0.2650
    8MOL   C625 5399   6.822   4.153   5.004 -0.0578 -0.1449  0.1520
    8MOL   C626 5400   6.834   4.192   4.873  0.7361  0.0464  1.0342
    8MOL   O627 5401   6.762   4.122   4.781  0.9742  0.3013  0.1469
    8MOL   C628 5402   6.771   3.986   4.777  0.5670  0.3558  0.8818
    8MOL   C629 5403   6.650   3.917   4.789  0.5644 -0.3928 -0.1040
    8MOL   C630 5404   6.658   3.777   4.792  0.3563  0.5192  0.4439
    8MOL   C631 5405   6.787   3.709   4.782  0.2178  0.2667 -0.1710
    8MOL   C632 5406   6.907   3.785   4.773 -0.3455 -0.4666 -0.1515
    8MOL   C633 5407   6.894   3.921   4.767  0.2998  0.3394  0.5515
    8MOL   C634 5408   6.911   4.305   4.839 -1.0124 -0.5639 -0.1484
    8MOL   C635 5409   6.976   4.380   4.939 -0.3928  0.5254  0.9619
    8MOL   H636 5410   7.184   4.308   5.353  0.8847  1.6734 -0.8195
    8MOL   H637 5411   7.137   4.269   5.597  0.6640 -1.2608 -2.1320
    8MOL   H638 5412   6.761   4.493   5.533 -0.7865 -1.0898  1.3723
    8MOL   H639 5413   6.825   4.529   5.303  2.6928  2.8472  1.1426
    8MOL   H640 5414   6.878   4.200   5.208  0.9879  2.1171  0.4343
    8MOL   H641 5415   6.767   4.063   5.027 -1.3182  1.0108  1.8251
    8MOL   H642 5416   6.556   3.970   4.790  0.0527 -1.2193  3.5541
    8MOL   H643 5417   6.563   3.731   4.817 -0.8800  2.7082 -0.0521
    8MOL   H644 5418   7.002   3.736   4.757  0.3245  0.9822 -0.7342
    8MOL   H645 5419   6.984   3.981   4.763  1.2791 -1.0712  0.8111
    8MOL   H646 5420   6.932   4.334   4.738 -0.2949 -1.4306 -0.2577
    8MOL   H647 5421   7.024   4.474   4.913  0.3044  0.1381  0.8447
    8MOL   C648 5422   6.640   3.431   5.087  0.0045  0.3318 -0.0037
    8MOL   C649 5423   6.710   3.519   5.003  0.0564  0.0709 -0.7330
    8MOL   C650 5424   6.720   3.496   4.864  0.6339 -0.1801 -0.3496
    8MOL   O651 5425   6.801   3.572   4.785  0.4953  0.2357  0.0346
    8MOL   C652 5426   6.665   3.376   4.815  0.4136  0.4234  0.4541
    8MOL   C653 5427   6.586   3.292   4.897  0.2595  0.0669  0.3391
    8MOL   C654 5428   6.572   3.322   5.033  0.9224 -0.6200  1.0119
    8MOL   C655 5429   6.483   3.247   5.129 -0.2863 -0.2283 -0.2542
    8MOL   O656 5430   6.481   3.276   5.245  0.5616 -0.3463 -0.0660
    8MOL   C657 5431   6.398   3.138   5.073 -1.4151  0.0684  0.0752
    8MOL   C658 5432   6.265   3.156   5.053 -0.4195 -0.2732  0.0716
    8MOL   C659 5433   6.184   3.050   5.009 -0.6205  0.2889  0.0100
    8MOL   C660 5434   6.239   2.923   4.978  0.2791 -0.1287 -0.2669
    8MOL   O661 5435   6.148   2.824   4.945 -0.4008  0.1777  0.0296
    8MOL   C662 5436   6.053   2.777   5.039 -0.0211 -0.1469  0.0683
    8MOL   C663 5437   6.066   2.809   5.176  0.1439 -0.1526 -0.1487
    8MOL   C664 5438   5.964   2.773   5.266  0.0619 -0.6639 -0.5857
    8MOL   C665 5439   5.852   2.706   5.221 -0.5582 -0.0104 -1.0602
    8MOL   C666 5440   5.834   2.679   5.088  0.1318  0.1940  0.4431
    8MOL   C667 5441   5.934   2.709   4.997 -0.4543 -0.4556 -0.4706
    8MOL   C668 5442   6.377   2.910   4.993 -0.2663  0.3585  0.1067
    8MOL   C669 5443   6.458   3.017   5.039 -0.3933  0.2532 -0.1669
    8MOL   H670 5444   6.640   3.448   5.194 -0.7790  0.9223 -0.0931
    8MOL   H671 5445   6.762   3.602   5.048 -1.9179  1.0757 -0.2287
    8MOL   H672 5446   6.669   3.358   4.709  2.1767  2.1501  0.1835
    8MOL   H673 5447   6.537   3.210   4.847  1.8555 -0.2319 -0.7636
    8MOL   H674 5448   6.224   3.253   5.077 -2.3020 -0.2561 -2.9314
    8MOL   H675 5449   6.078   3.061   4.991 -0.3954 -0.5608 -1.8859
    8MOL   H676 5450   6.150   2.860   5.221 -1.6726  0.2718  2.8504
    8MOL   H677 5451   5.983   2.805   5.368 -0.1109  0.5490 -0.9370
    8MOL   H678 5452   5.742   2.638   5.048  1.2900  0.7663 -3.0436
    8MOL   H679 5453   5.927   2.677   4.894 -1.1860 -1.8342  0.0008
    8MOL   H680 5454   6.405   2.813   4.956  2.0386  0.9680  0.1884
    8MOL   H681 5455   6.565   3.004   5.049 -0.4955 -0.2389  0.2842
    8MOL   H682 5456   5.771   2.684   5.289  0.6127 -0.1133  0.3215
    9MOL     C1 5457   1.605   3.173   1.610  0.3849  0.9900  0.1514
    9MOL     C2 5458   1.469   3.200   1.627 -0.8413  0.0876 -1.2773
    9MOL     C3 5459   1.383   3.193   1.509  0.4060  0.0670 -0.5300
    9MOL     O4 5460   1.248   3.223   1.519  0.1504  0.5427 -0.5466
    9MOL     C5 5461   1.439   3.160   1.382 -0.1620  0.2204 -0.0245
    9MOL     C6 5462   1.578   3.128   1.372  0.4046 -0.3948  0.2144
    9MOL     C7 5463   1.664   3.138   1.484  0.1297  0.1905  0.0005
    9MOL     C8 5464   1.806   3.107   1.471  0.3227  0.3237 -0.1919
    9MOL     O9 5465   1.857   3.122   1.362 -0.0395 -0.2866 -0.1737
    9MOL    C10 5466   1.882   3.062   1.589 -1.4022 -0.1378 -0.0027
    9MOL    C11 5467   2.019   3.106   1.601  0.2647  0.1809  0.1573
    9MOL    C12 5468   2.098   3.035   1.689  0.0617  0.2946  0.3121
    9MOL    C13 5469   2.049   2.932   1.772  0.3083 -0.6481  0.1491
    9MOL    O14 5470   2.134   2.874   1.867  0.3565 -0.2064 -0.5183
    9MOL    C15 5471   2.117   2.742   1.902 -0.1427  0.5771  0.6585
    9MOL    C16 5472   2.127   2.640   1.806 -0.4654 -0.2990 -0.3062
    9MOL    C17 5473   2.103   2.506   1.847 -0.2478 -0.3178  0.5149
    9MOL    C18 5474   2.090   2.470   1.988 -0.4155 -0.9195  0.0066
    9MOL    C19 5475   2.089   2.577   2.079  0.3343 -1.2096 -0.1788
    9MOL    C20 5476   2.096   2.710   2.038  0.0576 -0.1161  0.1107
    9MOL    C21 5477   1.915   2.895   1.763  0.4331  0.2171  0.0679
    9MOL    C22 5478   1.833   2.957   1.669  0.1536 -0.0962 -0.5721
    9MOL    H23 5479   1.667   3.185   1.697  0.4443  1.7722  0.0080
    9MOL    H24 5480   1.425   3.219   1.723 -0.6454 -0.5930 -1.0487
    9MOL    H25 5481   1.379   3.155   1.293  1.9320  1.3995 -1.5473
    9MOL    H26 5482   1.608   3.102   1.271 -0.6050 -0.1695 -0.1523
    9MOL    H27 5483   2.061   3.188   1.544 -0.0785  1.0488  1.1414
    9MOL    H28 5484   2.203   3.057   1.678  0.0783  0.2229  0.3269
    9MOL    H29 5485   2.151   2.652   1.702 -1.1604  0.9772 -0.3263
    9MOL    H30 5486   2.113   2.424   1.778 -2.6036 -1.2647  1.2749
    9MOL    H31 5487   2.081   2.551   2.183 -0.8498 -0.5960 -0.1159
    9MOL    H32 5488   2.101   2.790   2.111 -0.5120  0.4004 -0.4135
    9MOL    H33 5489   1.879   2.821   1.833  0.0023  1.7892  1.5430
    9MOL    H34 5490   1.729   2.929   1.664  0.5967 -2.4175  1.6773
    9MOL    H35 5491   1.219   3.273   1.594 -0.7901 -0.5518 -0.1731
    9MOL    C36 5492   1.696   2.329   2.065  0.3945  0.1369 -0.3280
    9MOL    C37 5493   1.826   2.375   2.080 -0.6420  0.0937 -0.6581
    9MOL    C38 5494   1.937   2.304   2.033 -0.2143 -0.4861  0.1195
    9MOL    O39 5495   2.066   2.352   2.040  0.0299  0.3385  0.2868
    9MOL    C40 5496   1.916   2.178   1.982  0.2118  0.9855  0.2613
    9MOL    C41 5497   1.784   2.131   1.960 -0.4410  0.4065 -0.4456
    9MOL    C42 5498   1.672   2.209   2.005 -0.1356  0.3748 -0.0199
    9MOL    C43 5499   1.524   2.162   2.003 -0.2078  0.1709 -0.3929
    9MOL    O44 5500   1.442   2.221   2.069  0.0998 -0.2924  0.0520
    9MOL    C45 5501   1.489   2.041   1.925 -0.5774  0.0259 -0.5076
    9MOL    C46 5502   1.393   1.952   1.986  0.5540  0.2602  0.4001
    9MOL    C47 5503   1.371   1.828   1.931  0.2138  0.1162  0.2812
    9MOL    C48 5504   1.426   1.792   1.808 -0.4129 -0.3990 -0.1622
    9MOL    O49 5505   1.418   1.663   1.765  0.8833  0.0209 -0.2434
    9MOL    C50 5506   1.520   1.577   1.790  0.2302  0.6678 -0.6628
    9MOL    C51 5507   1.643   1.600   1.728  0.0312 -0.1196 -0.2328
    9MOL    C52 5508   1.745   1.508   1.746  0.0686 -0.5839  0.5809
    9MOL    C53 5509   1.722   1.392   1.836  0.2719  0.1012  0.9685
    9MOL    C54 5510   1.599   1.368   1.893 -0.3244 -0.1024 -0.1372
    9MOL    C55 5511   1.499   1.466   1.875  0.4612 -0.5165 -0.1681
    9MOL    C56 5512   1.504   1.891   1.732 -0.1898  0.3848  0.4246
    9MOL    C57 5513   1.547   2.013   1.795 -0.3031  0.6213  0.9175
    9MOL    H58 5514   1.613   2.398   2.076  0.1926 -0.1603  0.0450
    9MOL    H59 5515   1.828   2.476   2.115 -1.7914  0.5947 -1.9513
    9MOL    H60 5516   2.002   2.113   1.971 -0.8326 -0.3045 -0.4340
    9MOL    H61 5517   1.769   2.033   1.917  0.1078  0.1632 -0.0761
    9MOL    H62 5518   1.350   1.967   2.084  3.2797  1.8990  1.3956
    9MOL    H63 5519   1.308   1.756   1.981 -1.9389  0.8144 -1.3168
    9MOL    H64 5520   1.652   1.688   1.666 -0.6854  0.3775  0.3470
    9MOL    H65 5521   1.846   1.521   1.710 -1.1203  1.1007 -2.3339
    9MOL    H66 5522   1.585   1.281   1.956  2.1169 -0.1185  0.4556
    9MOL    H67 5523   1.405   1.441   1.921  0.3005 -2.9529 -1.6916
    9MOL    H68 5524   1.532   1.873   1.629 -0.0006  0.4406  0.4683
    9MOL    H69 5525   1.611   2.082   1.743 -0.8598 -0.6222 -1.4768
    9MOL    C70 5526   1.923   1.067   2.113 -0.1956  0.3293 -0.6659
    9MOL    C71 5527   1.893   1.128   1.988  0.0256  0.5050 -0.5522
    9MOL    C72 5528   1.859   1.262   1.974 -0.7490 -0.5252 -0.5386
    9MOL    O73 5529   1.820   1.308   1.852  0.2290  0.9343  0.2863
    9MOL    C74 5530   1.871   1.344   2.090 -0.3804  0.2919 -0.3845
    9MOL    C75 5531   1.889   1.286   2.218  0.4886  0.2739  0.2116
    9MOL    C76 5532   1.929   1.150   2.230 -0.0523 -0.1246 -0.4474
    9MOL    C77 5533   1.962   1.079   2.360 -0.1172 -0.9990  0.3706
    9MOL    O78 5534   1.914   0.970   2.391  0.2223 -0.1770  0.5953
    9MOL    C79 5535   2.072   1.149   2.442 -0.5741  0.7090 -0.2407
    9MOL    C80 5536   2.165   1.237   2.381  0.2288 -1.1646  0.0207
    9MOL    C81 5537   2.275   1.284   2.449 -0.6020 -0.2565 -0.6067
    9MOL    C82 5538   2.287   1.252   2.587 -0.3285 -0.5527  0.0166
    9MOL    O83 5539   2.394   1.303   2.652 -0.1010  0.8786 -0.7639
    9MOL    C84 5540   2.429   1.436   2.634 -0.4107 -0.6415 -0.2665
    9MOL    C85 5541   2.348   1.534   2.690 -0.1218  0.0932 -0.1897
    9MOL    C86 5542   2.376   1.668   2.657 -0.5561  0.4362  0.1845
    9MOL    C87 5543   2.473   1.705   2.564  0.1632  0.0462  0.3540
    9MOL    C88 5544   2.546   1.598   2.506  0.1522  0.2826 -0.1788
    9MOL    C89 5545   2.534   1.469   2.552  0.6973  0.6784 -0.7956
    9MOL    C90 5546   2.194   1.174   2.652  0.3178 -0.5675 -0.1686
    9MOL    C91 5547   2.089   1.114   2.579  0.2876 -0.3119  0.6021
    9MOL    H92 5548   1.943   0.962   2.131  0.4963  0.3419 -1.3152
    9MOL    H93 5549   1.883   1.070   1.898  0.3674  0.9466 -0.8765
    9MOL    H94 5550   1.855   1.450   2.084  2.9224  0.8838  0.1116
    9MOL    H95 5551   1.889   1.349   2.307 -1.2254  0.2595  0.2470
    9MOL    H96 5552   2.159   1.258   2.275 -0.4205  1.1568  0.5053
    9MOL    H97 5553   2.350   1.344   2.398  0.9245 -1.6998 -0.1126
    9MOL    H98 5554   2.259   1.509   2.747 -1.8145 -1.3387 -3.3363
    9MOL    H99 5555   2.322   1.744   2.712 -0.9635 -0.4010  0.9472
    9MOL   H100 5556   2.623   1.624   2.435 -1.1527  0.0459 -1.7102
    9MOL   H101 5557   2.600   1.400   2.503  2.2520  0.8596  0.9786
    9MOL   H102 5558   2.201   1.157   2.759  1.2009  0.9777  0.0285
    9MOL   H103 5559   2.019   1.052   2.633  0.8000 -0.1495  1.4534
    9MOL   C104 5560   2.510   1.855   2.159  0.4547  0.0468  1.0001
    9MOL   C105 5561   2.472   1.827   2.291  0.0186  0.2859  0.2554
    9MOL   C106 5562   2.539   1.875   2.405  0.0057  0.3745  0.1721
    9MOL   O107 5563   2.492   1.838   2.533 -0.9667 -0.5642  0.8073
    9MOL   C108 5564   2.646   1.966   2.387 -0.6884 -0.1534 -0.1710
    9MOL   C109 5565   2.676   2.012   2.254 -0.0865  0.3937 -0.5782
    9MOL   C110 5566   2.612   1.951   2.142  0.3040 -0.1178 -0.8246
    9MOL   C111 5567   2.654   1.982   2.002  0.2860  0.0365  0.8255
    9MOL   O112 5568   2.760   1.937   1.947 -0.0159 -0.7270 -0.0006
    9MOL   C113 5569   2.572   2.089   1.930  0.3738  0.3603  0.5471
    9MOL   C114 5570   2.439   2.122   1.973  0.8161  0.0980  0.2566
    9MOL   C115 5571   2.355   2.196   1.891 -0.2996 -0.0672 -0.1182
    9MOL   C116 5572   2.404   2.258   1.776 -0.3142  0.0554  0.1061
    9MOL   O117 5573   2.326   2.338   1.697  0.3611 -0.4156  0.3072
    9MOL   C118 5574   2.372   2.448   1.635 -0.6060  0.1949 -0.0472
    9MOL   C119 5575   2.339   2.461   1.502 -0.5704  0.7420 -0.4309
    9MOL   C120 5576   2.379   2.580   1.437  0.1256  0.0351  0.4233
    9MOL   C121 5577   2.443   2.685   1.500 -0.0979  0.0685  1.3371
    9MOL   C122 5578   2.463   2.669   1.640  0.4744  0.1418  0.2332
    9MOL   C123 5579   2.429   2.549   1.710  0.1407  0.4935  0.0248
    9MOL   C124 5580   2.538   2.244   1.747 -0.4865  0.1877  0.3613
    9MOL   C125 5581   2.623   2.159   1.820  0.5590  0.4683 -0.5047
    9MOL   H126 5582   2.459   1.807   2.076 -0.8942  1.1372  1.1792
    9MOL   H127 5583   2.389   1.761   2.310  0.3559 -0.3379 -0.4156
    9MOL   H128 5584   2.687   2.010   2.477  0.1832 -0.5573 -0.3733
    9MOL   H129 5585   2.749   2.088   2.232 -1.0701  1.3331 -0.6225
    9MOL   H130 5586   2.391   2.069   2.053  0.6906  0.7048  0.5857
    9MOL   H131 5587   2.249   2.206   1.911 -0.0658 -0.0149  1.0893
    9MOL   H132 5588   2.295   2.381   1.445  2.4748 -0.0073 -1.8694
    9MOL   H133 5589   2.373   2.573   1.330 -0.3661  2.5219  0.2581
    9MOL   H134 5590   2.476   2.759   1.699  0.6546  0.1943  0.1126
    9MOL   H135 5591   2.443   2.543   1.817  2.4231 -1.0315 -0.3063
    9MOL   H136 5592   2.573   2.301   1.663 -3.8209  0.8976 -0.6066
    9MOL   H137 5593   2.725   2.148   1.786 -0.0774 -0.0830 -2.2815
    9MOL   C138 5594   2.249   3.041   1.300  0.7540  0.0549 -0.2043
    9MOL   C139 5595   2.325   2.962   1.389 -0.7628  0.0015 -0.5918
    9MOL   C140 5596   2.410   2.856   1.341 -0.0580 -0.5937  0.3347
    9MOL   O141 5597   2.493   2.793   1.432 -0.0739  0.4681  0.2354
    9MOL   C142 5598   2.430   2.839   1.204  0.7531 -0.1177  0.3701
    9MOL   C143 5599   2.359   2.920   1.117 -0.3643  0.3375 -0.1811
    9MOL   C144 5600   2.262   3.011   1.161  0.2484  0.2828  0.4532
    9MOL   C145 5601   2.202   3.105   1.060  1.1586  0.8541 -0.3831
    9MOL   O146 5602   2.200   3.228   1.065  0.0203  0.1294 -0.1558
    9MOL   C147 5603   2.153   3.036   0.937  0.4927 -0.0569 -0.8252
    9MOL   C148 5604   2.044   2.955   0.949 -0.6336 -0.1335  0.3834
    9MOL   C149 5605   1.974   2.910   0.834 -0.1383  0.0497  0.3171
    9MOL   C150 5606   2.023   2.939   0.706 -0.6094 -1.0796 -1.2034
    9MOL   O151 5607   1.960   2.893   0.594  0.1002  0.8175 -0.3793
    9MOL   C152 5608   1.858   2.969   0.538 -0.1261 -0.1569 -1.3157
    9MOL   C153 5609   1.891   3.065   0.437  0.4092  0.2880  0.2237
    9MOL   C154 5610   1.794   3.148   0.386  0.4513 -0.3778  0.0334
    9MOL   C155 5611   1.660   3.139   0.437  0.6254 -0.2966  0.3884
    9MOL   C156 5612   1.622   3.051   0.534 -0.5730  0.4474  0.5519
    9MOL   C157 5613   1.728   2.971   0.596  0.0706  0.0383 -0.1399
    9MOL   C158 5614   2.142   3.011   0.694  0.1004 -0.1792  0.0516
    9MOL   C159 5615   2.201   3.068   0.809 -0.3609 -0.1972 -0.4432
    9MOL   H160 5616   2.174   3.109   1.338 -0.3408 -1.2129 -0.0462
    9MOL   H161 5617   2.326   2.979   1.495 -0.5416 -0.6473 -0.4896
    9MOL   H162 5618   2.489   2.757   1.166  2.5842  2.6248 -2.9589
    9MOL   H163 5619   2.365   2.907   1.010  1.9707  0.1131 -0.0372
    9MOL   H164 5620   2.006   2.935   1.048 -0.5115 -1.9109  0.0860
    9MOL   H165 5621   1.894   2.838   0.843  0.2644 -0.5695 -0.7979
    9MOL   H166 5622   1.989   3.075   0.394  0.7532  0.3879  1.0125
    9MOL   H167 5623   1.816   3.217   0.307 -1.7685  0.7901  0.3725
    9MOL   H168 5624   1.518   3.054   0.563 -0.6769  0.6911  0.1528
    9MOL   H169 5625   1.703   2.904   0.677 -1.4441  4.0432  2.8451
    9MOL   H170 5626   2.187   3.023   0.597  1.3733 -1.2646  0.4973
    9MOL   H171 5627   2.282   3.136   0.792 -1.7943  1.3570 -1.1677
    9MOL   C172 5628   1.581   3.342   0.042  0.0500 -0.0786 -0.4418
    9MOL   C173 5629   1.600   3.341   0.182 -0.6544 -0.1124 -0.8955
    9MOL   C174 5630   1.557   3.234   0.255 -0.0314 -0.1058 -0.3979
    9MOL   O175 5631   1.575   3.233   0.389 -0.2582  0.1263  0.2568
    9MOL   C176 5632   1.487   3.125   0.189 -0.3305  0.3359 -0.0546
    9MOL   C177 5633   1.467   3.129   0.055  0.8303  0.4231 -0.4951
    9MOL   C178 5634   1.514   3.235   8.287 -0.3740  0.0387 -0.1404
    9MOL   C179 5635   1.499   3.224   8.142 -0.4780 -0.0399  0.4416
    9MOL   O180 5636   1.475   3.120   8.080  0.4093 -0.1313  0.1639
    9MOL   C181 5637   1.511   3.350   8.075 -0.4143 -0.4772  0.1338
    9MOL   C182 5638   1.630   3.369   7.994 -0.1598  0.1503 -0.0801
    9MOL   C183 5639   1.640   3.493   7.920 -0.1495 -0.0574 -0.5004
    9MOL   C184 5640   1.545   3.595   7.930  0.3308  0.3026  0.1210
    9MOL   O185 5641   1.546   3.715   7.864 -0.6047  0.0015  0.3638
    9MOL   C186 5642   1.518   3.836   7.931 -0.3238  0.2929  0.6198
    9MOL   C187 5643   1.568   3.874   8.061  0.2501 -0.1604  0.2255
    9MOL   C188 5644   1.534   4.003   8.114 -0.3831 -0.4821 -0.5397
    9MOL   C189 5645   1.439   4.083   8.045 -0.5057 -0.4901  0.4479
    9MOL   C190 5646   1.391   4.038   7.921  0.1060  0.2829  0.4015
    9MOL   C191 5647   1.434   3.921   7.863  0.3496  0.1200 -0.0534
    9MOL   C192 5648   1.434   3.573   8.019  0.1829  0.0502 -0.1497
    9MOL   C193 5649   1.415   3.450   8.084 -0.0671  0.2737  0.1541
    9MOL   H194 5650   1.642   3.419   8.309 -0.6499 -0.0040 -1.2729
    9MOL   H195 5651   1.670   3.410   0.228  2.4810 -3.0330 -1.0680
    9MOL   H196 5652   1.460   3.047   0.259  0.6091  1.0962  1.1787
    9MOL   H197 5653   1.403   3.053   0.011 -0.2385 -0.4430  2.4621
    9MOL   H198 5654   1.712   3.298   7.997 -0.4247 -0.2399 -1.8701
    9MOL   H199 5655   1.728   3.519   7.862 -1.0797 -0.4107 -2.1117
    9MOL   H200 5656   1.646   3.816   8.109  0.5298  0.4876  0.5526
    9MOL   H201 5657   1.569   4.030   8.212  1.2919  0.5091 -1.3929
    9MOL   H202 5658   1.323   4.101   7.867 -1.1410 -1.3191  0.0627
    9MOL   H203 5659   1.401   3.892   7.764  0.5004 -1.2645  0.2947
    9MOL   H204 5660   1.372   3.660   8.035  1.0668  0.3488  1.6857
    9MOL   H205 5661   1.328   3.441   8.147 -0.5162 -2.0751 -0.7805
    9MOL   C206 5662   1.158   4.423   8.231  0.4328 -0.6424  0.0460
    9MOL   C207 5663   1.281   4.379   8.176 -0.0558  0.0656 -0.3587
    9MOL   C208 5664   1.291   4.240   8.142  0.0152 -0.5549 -0.0474
    9MOL   O209 5665   1.417   4.207   8.096  0.4054 -0.0009 -0.6836
    9MOL   C210 5666   1.176   4.152   8.153 -0.1254  0.4155 -0.0063
    9MOL   C211 5667   1.057   4.197   8.211 -0.0066  0.3196 -0.2276
    9MOL   C212 5668   1.044   4.335   8.251 -0.5514  0.4076  0.4668
    9MOL   C213 5669   0.913   4.392   8.299  0.3287 -0.0997 -0.0873
    9MOL   O214 5670   0.891   4.512   0.001  0.6001 -0.5462  0.1915
    9MOL   C215 5671   0.798   4.306   0.015 -0.0532 -0.2230 -0.2456
    9MOL   C216 5672   0.672   4.323   8.263 -0.3344 -0.0894  0.3639
    9MOL   C217 5673   0.555   4.253   8.298  0.7545  0.0921 -0.1023
    9MOL   C218 5674   0.558   4.156   0.084  0.3964  0.1770 -0.7670
    9MOL   O219 5675   0.439   4.093   0.119 -0.4390 -0.2050  0.3278
    9MOL   C220 5676   0.385   4.110   0.240  0.3204 -0.7966 -0.3351
    9MOL   C221 5677   0.408   4.019   0.345 -0.1435  0.3389 -0.4631
    9MOL   C222 5678   0.358   4.044   0.473 -0.2990  0.2959 -0.6263
    9MOL   C223 5679   0.290   4.161   0.503  0.6138 -1.0743  0.3246
    9MOL   C224 5680   0.257   4.245   0.394 -0.1462 -0.1241  0.4901
    9MOL   C225 5681   0.299   4.218   0.263  1.0162 -0.0392 -0.0909
    9MOL   C226 5682   0.680   4.136   0.153  0.1006  0.5965 -0.3505
    9MOL   C227 5683   0.799   4.207   0.123 -0.1479  0.2911 -0.3882
    9MOL   H228 5684   1.146   4.527   8.255 -0.0343 -0.5442 -0.5961
    9MOL   H229 5685   1.363   4.448   8.161  0.6133 -0.7863 -0.7056
    9MOL   H230 5686   1.175   4.057   8.102 -1.6825  0.9403 -0.9969
    9MOL   H231 5687   0.977   4.125   8.203  0.9782 -0.7962 -0.1009
    9MOL   H232 5688   0.664   4.395   8.184  0.3066 -0.0061  0.3713
    9MOL   H233 5689   0.463   4.277   8.246  1.3695  3.9660  0.4282
    9MOL   H234 5690   0.469   3.931   0.331  0.0727  0.5977 -1.1555
    9MOL   H235 5691   0.363   3.967   0.549  0.5665  2.9870  2.1737
    9MOL   H236 5692   0.199   4.335   0.406 -1.1180 -0.5160 -1.2578
    9MOL   H237 5693   0.284   4.297   0.190 -0.7466  0.2766  0.6153
    9MOL   H238 5694   0.686   4.056   0.225  0.4017  1.6406  0.8034
    9MOL   H239 5695   0.885   4.196   0.187  0.7112  1.2335 -1.3648
    9MOL   C240 5696   8.296   4.153   0.874  0.4167  0.2935  0.4921
    9MOL   C241 5697   0.102   4.179   0.809 -0.2230  0.4857  0.3560
    9MOL   C242 5698   0.123   4.158   0.671 -0.2845  0.0430  0.5471
    9MOL   O243 5699   0.253   4.180   0.631  0.5092 -0.4678 -0.4213
    9MOL   C244 5700   0.014   4.118   0.588 -0.2892 -0.3319 -0.4024
    9MOL   C245 5701   8.198   4.108   0.647  0.1600 -0.0848  0.0714
    9MOL   C246 5702   8.183   4.113   0.792  0.3228 -0.2794 -0.6009
    9MOL   C247 5703   8.053   4.100   0.854  0.2093  0.5123 -0.3772
    9MOL   O248 5704   8.018   4.165   0.949  0.3369 -0.0895  0.2671
    9MOL   C249 5705   7.950   3.998   0.805 -0.1012 -0.4870 -0.1182
    9MOL   C250 5706   7.811   4.017   0.829 -0.2461  0.1692 -0.4574
    9MOL   C251 5707   7.718   3.915   0.794 -0.4710 -0.7813  0.3316
    9MOL   C252 5708   7.764   3.797   0.729  0.5673  0.0833 -0.4543
    9MOL   O253 5709   7.681   3.702   0.692 -0.6501  0.1573 -0.2715
    9MOL   C254 5710   7.713   3.591   0.615 -0.2171 -0.6219  0.6531
    9MOL   C255 5711   7.679   3.467   0.670  0.1142  0.3009  0.2059
    9MOL   C256 5712   7.692   3.353   0.585 -0.0394  0.3486 -0.2249
    9MOL   C257 5713   7.739   3.363   0.451  0.1716  0.0027 -0.1656
    9MOL   C258 5714   7.762   3.491   0.400  0.1072 -0.0063  0.2702
    9MOL   C259 5715   7.749   3.603   0.477 -0.0840 -0.7007 -0.0597
    9MOL   C260 5716   7.899   3.784   0.696  0.6008 -0.5025 -0.3705
    9MOL   C261 5717   7.992   3.885   0.738  0.8195  0.4508 -0.0581
    9MOL   H262 5718   8.274   4.157   0.979  1.2560  0.9755  0.6517
    9MOL   H263 5719   0.188   4.208   0.867 -0.6899  0.2173  1.1828
    9MOL   H264 5720   0.020   4.089   0.484 -1.3563 -3.1842  0.2799
    9MOL   H265 5721   8.118   4.089   0.578 -2.0430  1.0998  2.2248
    9MOL   H266 5722   7.769   4.101   0.882  0.8613  1.1108 -1.0604
    9MOL   H267 5723   7.615   3.925   0.824 -0.9073 -1.6721 -0.8452
    9MOL   H268 5724   7.655   3.475   0.774  1.1473 -1.1983  0.5795
    9MOL   H269 5725   7.668   3.253   0.619 -0.4515  0.0461 -1.3773
    9MOL   H270 5726   7.794   3.507   0.298 -1.2232  1.1008  0.0038
    9MOL   H271 5727   7.754   3.700   0.430  0.1960 -0.3177  0.7567
    9MOL   H272 5728   7.938   3.703   0.636 -0.5209 -0.8764 -0.6214
    9MOL   H273 5729   8.094   3.879   0.704  0.3956 -0.8289 -1.1052
    9MOL   C274 5730   7.948   2.971   0.500  0.3851 -0.1809  0.1805
    9MOL   C275 5731   7.909   3.098   0.462  0.1823 -0.2148 -0.3594
    9MOL   C276 5732   7.776   3.130   0.438  0.7898  0.8303 -0.0584
    9MOL   O277 5733   7.741   3.247   0.379 -0.0658  0.1482  0.5751
    9MOL   C278 5734   7.679   3.036   0.468  0.3340  0.2920  0.4865
    9MOL   C279 5735   7.712   2.907   0.510 -0.2253 -0.2491  0.7951
    9MOL   C280 5736   7.848   2.877   0.531  0.0346  0.4063  0.3739
    9MOL   C281 5737   7.880   2.737   0.565 -0.5123 -0.5205 -0.4425
    9MOL   O282 5738   7.796   2.648   0.554  0.0473  0.1261 -0.3899
    9MOL   C283 5739   8.016   2.716   0.623  0.0925  0.6062  0.6672
    9MOL   C284 5740   8.057   2.786   0.745 -0.2791 -0.1516 -0.0677
    9MOL   C285 5741   8.183   2.759   0.800 -0.4287  0.1307 -0.4277
    9MOL   C286 5742   8.275   2.666   0.739  0.7090 -0.3560  0.9065
    9MOL   O287 5743   0.070   2.623   0.811 -0.0508  0.3938  0.2303
    9MOL   C288 5744   0.198   2.634   0.761 -0.1617  0.5136  0.0329
    9MOL   C289 5745   0.270   2.517   0.733  0.5164 -0.0219 -0.5985
    9MOL   C290 5746   0.409   2.515   0.707  0.1774 -0.1243  0.3079
    9MOL   C291 5747   0.481   2.641   0.709 -0.6091 -0.1584  0.5558
    9MOL   C292 5748   0.404   2.763   0.721  0.3425 -0.1881  0.4150
    9MOL   C293 5749   0.263   2.757   0.745 -0.2929  0.2359 -1.0811
    9MOL   C294 5750   8.233   2.603   0.618  0.9136 -0.0322 -0.2287
    9MOL   C295 5751   8.107   2.628   0.565  0.0686 -0.9272 -0.3165
    9MOL   H296 5752   8.053   2.945   0.503  0.6553  0.8014 -0.5621
    9MOL   H297 5753   7.977   3.180   0.444 -0.6177  0.4707 -0.2465
    9MOL   H298 5754   7.573   3.057   0.464  0.4076  0.9736  1.6673
    9MOL   H299 5755   7.627   2.843   0.530  0.8422 -1.4601  1.5345
    9MOL   H300 5756   7.988   2.853   0.794 -1.6235 -0.8312 -1.0109
    9MOL   H301 5757   8.199   2.802   0.898  0.3971  0.2936 -0.6311
    9MOL   H302 5758   0.227   2.422   0.763 -0.7490  1.0061  0.9492
    9MOL   H303 5759   0.453   2.417   0.699  0.7388  0.1964 -0.5625
    9MOL   H304 5760   0.446   2.861   0.734 -3.3730  1.5387 -0.0546
    9MOL   H305 5761   0.214   2.850   0.770 -2.6196 -0.8908 -1.3381
    9MOL   H306 5762   8.300   2.533   0.570 -0.8830 -0.0619 -2.7784
    9MOL   H307 5763   8.080   2.567   0.480 -1.2974  2.0064 -2.0803
    9MOL   C308 5764   0.893   2.841   0.596 -0.3362  0.0036  1.1077
    9MOL   C309 5765   0.801   2.737   0.588 -0.3089 -0.1478  0.1977
    9MOL   C310 5766   0.705   2.728   0.687 -0.1077 -0.5978 -0.2909
    9MOL   O311 5767   0.616   2.625   0.689  0.2334 -0.2757  0.8584
    9MOL   C312 5768   0.710   2.807   0.800 -0.1411 -0.0628 -0.1014
    9MOL   C313 5769   0.797   2.917   0.807 -0.0391 -0.4013  0.5636
    9MOL   C314 5770   0.892   2.936   0.700  0.3643  0.4864 -0.2764
    9MOL   C315 5771   0.984   3.051   0.699 -0.4561 -0.2829  0.7121
    9MOL   O316 5772   1.069   3.076   0.607 -0.2402  0.2523 -0.0100
    9MOL   C317 5773   0.980   3.150   0.812 -0.1840  0.3694  0.4177
    9MOL   C318 5774   0.889   3.253   0.806  0.8870 -0.0893  0.1649
    9MOL   C319 5775   0.865   3.330   0.918  0.3889 -0.0862  0.6378
    9MOL   C320 5776   0.960   3.326   1.024 -0.0954 -0.3275  0.8391
    9MOL   O321 5777   0.922   3.403   1.128  0.4077 -0.1568 -0.2850
    9MOL   C322 5778   1.005   3.492   1.188 -0.8044 -0.0537  0.6623
    9MOL   C323 5779   1.092   3.571   1.114 -0.5125  0.7528 -0.4898
    9MOL   C324 5780   1.173   3.668   1.177  0.6588  0.3129 -0.8390
    9MOL   C325 5781   1.159   3.683   1.312  0.8288 -0.6704 -0.9611
    9MOL   C326 5782   1.078   3.594   1.388  0.2772  0.4976  0.1511
    9MOL   C327 5783   1.001   3.496   1.325  0.1094  0.4171  0.9332
    9MOL   C328 5784   1.069   3.239   1.020  0.4242  1.0473 -0.3893
    9MOL   C329 5785   1.075   3.144   0.917  0.8888 -0.8142  0.4661
    9MOL   H330 5786   0.974   2.845   0.524 -1.3797 -0.9131 -0.1358
    9MOL   H331 5787   0.815   2.662   0.512  1.1657 -0.7650  1.0524
    9MOL   H332 5788   0.633   2.786   0.873 -1.3227  1.3784 -0.9021
    9MOL   H333 5789   0.776   2.982   0.891  0.0525 -0.9431  1.0051
    9MOL   H334 5790   0.825   3.264   0.720 -1.8996 -0.5925  2.1221
    9MOL   H335 5791   0.782   3.399   0.918  1.7668  1.6655 -1.5762
    9MOL   H336 5792   1.093   3.549   1.009  0.5403 -3.2118  0.2597
    9MOL   H337 5793   1.251   3.729   1.135  0.4597  1.5922  0.6104
    9MOL   H338 5794   1.059   3.607   1.494 -1.6760 -0.3201 -0.0842
    9MOL   H339 5795   0.933   3.433   1.380 -0.9211  0.0985 -0.6675
    9MOL   H340 5796   1.125   3.221   1.111 -0.9488 -1.2670  0.0520
    9MOL   H341 5797   1.142   3.059   0.918 -2.0000 -3.2471 -1.4154
    9MOL   C342 5798   0.960   4.050   1.412 -1.2526  0.6828  0.8203
    9MOL   C343 5799   1.029   3.926   1.420 -0.6773  0.1589  0.0582
    9MOL   C344 5800   1.158   3.911   1.361 -0.3081  0.3604  0.4967
    9MOL   O345 5801   1.220   3.786   1.380 -0.3956 -0.3839  0.3670
    9MOL   C346 5802   1.211   4.016   1.288  0.0602 -0.5411 -0.1800
    9MOL   C347 5803   1.137   4.135   1.280  0.0277  0.1452 -0.2826
    9MOL   C348 5804   1.014   4.157   1.340 -0.0289 -0.1945 -0.4628
    9MOL   C349 5805   0.944   4.291   1.331 -0.1166 -0.0371  0.2009
    9MOL   O350 5806   0.996   4.380   1.262  0.7109  0.4468 -0.2818
    9MOL   C351 5807   0.806   4.315   1.381  0.2233 -0.4106  0.3543
    9MOL   C352 5808   0.695   4.229   1.353 -0.3273 -0.0421 -0.1173
    9MOL   C353 5809   0.568   4.264   1.394  0.7660 -0.6485  0.1591
    9MOL   C354 5810   0.552   4.376   1.485 -0.1920  0.0759  0.7143
    9MOL   O355 5811   0.429   4.407   1.533 -0.3987 -0.1222  0.3131
    9MOL   C356 5812   0.391   4.536   1.549 -0.9644  0.7979  0.5773
    9MOL   C357 5813   0.418   4.637   1.452  0.4608 -0.7224 -0.0373
    9MOL   C358 5814   0.359   4.767   1.455 -0.1703 -0.3531 -0.8938
    9MOL   C359 5815   0.271   4.796   1.562 -0.0542  0.9436 -0.1397
    9MOL   C360 5816   0.241   4.693   1.655 -0.6570 -0.7784 -0.9953
    9MOL   C361 5817   0.310   4.574   1.657  0.4310 -0.1716  0.5932
    9MOL   C362 5818   0.661   4.447   1.524 -0.2397 -0.2917 -0.6122
    9MOL   C363 5819   0.788   4.430   1.462  0.1602  0.0191  0.5112
    9MOL   H364 5820   0.858   4.051   1.448 -1.1119  2.6416  1.2429
    9MOL   H365 5821   0.987   3.837   1.465  1.0332 -1.2365 -1.0534
    9MOL   H366 5822   1.314   4.009   1.257  0.4001  0.1585  0.7612
    9MOL   H367 5823   1.173   4.221   1.225  2.3595 -1.1829 -0.9127
    9MOL   H368 5824   0.709   4.140   1.295 -0.7954  2.1271 -3.7425
    9MOL   H369 5825   0.485   4.197   1.379 -0.4229  1.1456 -1.5154
    9MOL   H370 5826   0.488   4.611   1.374  0.0152  1.2838 -1.1485
    9MOL   H371 5827   0.377   4.833   1.371  1.3246  0.0559 -0.2641
    9MOL   H372 5828   0.162   4.706   1.728 -1.0699 -2.2799 -1.1691
    9MOL   H373 5829   0.283   4.493   1.724 -0.5863  0.7752  1.3444
    9MOL   H374 5830   0.642   4.534   1.585  0.1979 -0.7630  0.2075
    9MOL   H375 5831   0.868   4.501   1.475  0.7850 -0.4813 -0.6013
    9MOL   C376 5832   0.395   5.247   1.560 -0.7983 -0.6280  0.2283
    9MOL   C377 5833   0.304   5.143   1.541  0.6530 -0.3615  0.2020
    9MOL   C378 5834   0.312   5.023   1.614  0.3506 -0.4446 -0.3114
    9MOL   O379 5835   0.220   4.921   1.586 -0.8803 -0.4513 -0.5235
    9MOL   C380 5836   0.414   5.009   1.708  0.5485 -0.0900  0.3342
    9MOL   C381 5837   0.503   5.113   1.731 -0.1352  0.3562  0.1273
    9MOL   C382 5838   0.502   5.230   1.654 -0.5738 -0.5367  0.4864
    9MOL   C383 5839   0.594   5.345   1.681  0.3959 -0.6156  0.1821
    9MOL   O384 5840   0.561   5.459   1.666  0.3907 -0.7969  0.5811
    9MOL   C385 5841   0.729   5.304   1.738 -0.8105  0.0662  0.9067
    9MOL   C386 5842   0.779   5.351   1.860  0.5041  0.1830  0.3420
    9MOL   C387 5843   0.902   5.303   1.903 -0.6165  0.3169  0.2624
    9MOL   C388 5844   0.958   5.191   1.840  0.1570 -0.2068 -0.2503
    9MOL   O389 5845   1.073   5.141   1.883 -0.1309 -0.1081 -0.0254
    9MOL   C390 5846   1.095   5.008   1.882  0.8430  0.7019 -0.0032
    9MOL   C391 5847   1.149   4.938   1.770  0.1816  0.9623 -0.0418
    9MOL   C392 5848   1.183   4.801   1.780 -0.0578 -0.7627  0.1828
    9MOL   C393 5849   1.168   4.733   1.902  0.2378 -0.1779 -0.5396
    9MOL   C394 5850   1.106   4.796   2.009  0.3430  0.1903 -0.1507
    9MOL   C395 5851   1.083   4.935   2.002  0.3272 -0.1383  0.0601
    9MOL   C396 5852   0.900   5.145   1.720 -0.0669 -0.1309  0.3880
    9MOL   C397 5853   0.790   5.208   1.664 -0.4502 -0.0913  0.1527
    9MOL   H398 5854   0.384   5.336   1.500  1.0737 -0.4431  0.1259
    9MOL   H399 5855   0.234   5.159   1.460 -0.0200 -1.1827  0.6138
    9MOL   H400 5856   0.425   4.919   1.767  2.4776  1.1140  1.8639
    9MOL   H401 5857   0.580   5.095   1.804  0.7892  2.1877 -0.3553
    9MOL   H402 5858   0.725   5.416   1.927 -0.1931  0.7801 -0.7913
    9MOL   H403 5859   0.962   5.341   1.985  0.9193 -2.1061  0.3052
    9MOL   H404 5860   1.165   4.995   1.679  2.3447  0.2208 -0.1627
    9MOL   H405 5861   1.222   4.741   1.699 -0.3728  1.3334 -1.5471
    9MOL   H406 5862   1.101   4.754   2.108  2.3257 -0.2480 -0.2139
    9MOL   H407 5863   1.058   4.991   2.091 -0.2760 -1.0564  0.4741
    9MOL   H408 5864   0.955   5.073   1.661 -1.3802 -1.8905  1.2785
    9MOL   H409 5865   0.752   5.169   1.571 -0.1671 -0.5296  0.2171
    9MOL   C410 5866   1.596   4.654   1.984 -0.0894  0.4978 -0.5265
    9MOL   C411 5867   1.455   4.672   1.992 -0.3861 -0.4540 -0.3369
    9MOL   C412 5868   1.366   4.595   1.906 -0.2910 -0.1129  0.1098
    9MOL   O413 5869   1.228   4.609   1.909 -0.0198 -0.4849  0.6516
    9MOL   C414 5870   1.429   4.513   1.810  0.7602  0.1122 -0.1052
    9MOL   C415 5871   1.568   4.499   1.797 -0.8003 -0.4980  0.2504
    9MOL   C416 5872   1.651   4.565   1.891  0.1788 -0.8939  0.0831
    9MOL   C417 5873   1.795   4.550   1.894  0.3456 -0.2997  0.7229
    9MOL   O418 5874   1.865   4.573   1.992  0.1549 -0.0589  0.8179
    9MOL   C419 5875   1.862   4.494   1.771  0.2461 -0.1836 -0.5544
    9MOL   C420 5876   1.975   4.409   1.775 -0.0514  0.1622  0.5141
    9MOL   C421 5877   2.048   4.376   1.660  0.5411 -0.1098 -0.1905
    9MOL   C422 5878   2.016   4.430   1.530  0.0774  0.7716  0.2599
    9MOL   O423 5879   2.072   4.389   1.411  0.1132  0.2951 -0.4867
    9MOL   C424 5880   2.121   4.482   1.324 -0.2230 -0.7673 -0.2389
    9MOL   C425 5881   2.052   4.517   1.211  0.2600 -0.9078 -0.5527
    9MOL   C426 5882   2.113   4.593   1.108 -0.2840 -0.8311 -0.6598
    9MOL   C427 5883   2.247   4.634   1.123  0.7483  0.3106 -0.1990
    9MOL   C428 5884   2.316   4.602   1.240 -0.4341  0.3243 -0.4421
    9MOL   C429 5885   2.251   4.534   1.346 -0.8637  1.1606  0.3368
    9MOL   C430 5886   1.907   4.510   1.521  0.5242 -0.0257 -0.2542
    9MOL   C431 5887   1.839   4.547   1.644  0.4826 -0.2886  0.1947
    9MOL   H432 5888   1.651   4.722   2.047 -0.0809 -0.5327  0.6153
    9MOL   H433 5889   1.413   4.747   2.056  0.7149 -1.2410  1.3305
    9MOL   H434 5890   1.366   4.462   1.739 -0.8107  1.3692  0.3383
    9MOL   H435 5891   1.605   4.433   1.719 -0.8642 -1.2201  0.8296
    9MOL   H436 5892   2.006   4.370   1.870  0.1111 -1.7757 -0.2954
    9MOL   H437 5893   2.134   4.312   1.665  1.5431  1.0076 -2.4616
    9MOL   H438 5894   1.954   4.474   1.194  0.5667 -2.1166  0.6961
    9MOL   H439 5895   2.061   4.606   1.014 -0.0461  1.7019 -0.4713
    9MOL   H440 5896   2.419   4.632   1.251 -1.0955  2.2820  0.5554
    9MOL   H441 5897   2.304   4.509   1.437  1.0121  4.0612  0.1230
    9MOL   H442 5898   1.874   4.554   1.428 -0.0888 -0.8531 -0.4359
    9MOL   H443 5899   1.758   4.617   1.632 -0.2059 -1.5448 -3.1403
    9MOL   C444 5900   2.543   4.604   0.758  0.2037 -0.1815 -0.5722
    9MOL   C445 5901   2.457   4.680   0.835 -0.2404 -0.6028  0.1282
    9MOL   C446 5902   2.366   4.623   0.919  0.0353  0.1175 -0.3119
    9MOL   O447 5903   2.296   4.696   1.016 -0.0722 -0.1641  0.3730
    9MOL   C448 5904   2.358   4.485   0.923  0.7237 -0.0817 -0.1790
    9MOL   C449 5905   2.443   4.407   0.846  0.3169  0.6410  0.6069
    9MOL   C450 5906   2.537   4.464   0.757  0.4432  0.3558 -0.2195
    9MOL   C451 5907   2.622   4.377   0.671 -0.1894 -0.0820  0.2730
    9MOL   O452 5908   2.665   4.413   0.559 -0.0954  0.3624 -0.1159
    9MOL   C453 5909   2.673   4.248   0.733  0.0842  0.2825 -0.0170
    9MOL   C454 5910   2.795   4.246   0.805 -0.5142 -0.0896  0.1487
    9MOL   C455 5911   2.847   4.123   0.856 -0.9226 -0.1911 -0.0522
    9MOL   C456 5912   2.776   4.009   0.838  0.2403 -0.1142 -0.3529
    9MOL   O457 5913   2.839   3.893   0.878 -0.2125 -0.2369  0.4033
    9MOL   C458 5914   2.777   3.802   0.953 -0.0329  0.0974 -0.5333
    9MOL   C459 5915   2.809   3.799   1.096 -0.2025  0.0643 -0.1718
    9MOL   C460 5916   2.748   3.706   1.180  0.9867  0.0466  0.0626
    9MOL   C461 5917   2.677   3.600   1.123 -0.7851 -0.1306 -0.0254
    9MOL   C462 5918   2.641   3.603   0.986 -0.4658  0.2189  0.2665
    9MOL   C463 5919   2.680   3.710   0.905 -0.3991 -0.9353  0.5183
    9MOL   C464 5920   2.652   4.005   0.768  0.3022 -0.8223  0.4437
    9MOL   C465 5921   2.603   4.124   0.718  0.4636  0.5666  0.4201
    9MOL   H466 5922   2.615   4.653   0.694 -0.5515  1.0519 -0.4865
    9MOL   H467 5923   2.470   4.787   0.833 -1.3542 -0.3934  2.1695
    9MOL   H468 5924   2.284   4.429   0.978  0.5352  0.8859  0.5658
    9MOL   H469 5925   2.419   4.301   0.845 -1.4167  0.9125  4.3761
    9MOL   H470 5926   2.851   4.337   0.823 -0.2962 -0.5919  2.1086
    9MOL   H471 5927   2.941   4.116   0.909 -2.1213  2.6405  2.5831
    9MOL   H472 5928   2.874   3.872   1.141 -0.8852 -0.9506  2.6153
    9MOL   H473 5929   2.763   3.706   1.287  1.9660 -0.7478 -0.0664
    9MOL   H474 5930   2.582   3.524   0.943 -1.6243  1.5439 -0.6130
    9MOL   H475 5931   2.656   3.702   0.800  0.6389  2.4539 -0.0388
    9MOL   H476 5932   2.614   3.906   0.753 -0.9884 -1.0089  4.2588
    9MOL   H477 5933   2.514   4.108   0.659  0.7497 -1.3964  0.4645
    9MOL   C478 5934   2.850   3.201   1.139  0.3342 -0.1015  0.3728
    9MOL   C479 5935   2.818   3.329   1.182 -0.0853  0.4860 -0.9168
    9MOL   C480 5936   2.681   3.374   1.172 -0.2413 -0.1420  0.7746
    9MOL   O481 5937   2.643   3.496   1.211  0.2290  0.4048  0.3487
    9MOL   C482 5938   2.580   3.290   1.133  0.5136 -0.5215  0.0670
    9MOL   C483 5939   2.611   3.163   1.090  0.3624  1.2768  0.2350
    9MOL   C484 5940   2.744   3.120   1.085 -0.0355  0.7387 -0.8412
    9MOL   C485 5941   2.772   2.986   1.017 -0.3260 -0.2755  0.9072
    9MOL   O486 5942   2.685   2.900   0.992  0.0296 -0.3789 -0.0653
    9MOL   C487 5943   2.914   2.962   0.975  0.0816  0.0510 -0.1443
    9MOL   C488 5944   2.973   3.043   0.877  0.4516 -0.4585 -0.5629
    9MOL   C489 5945   3.105   3.017   0.835 -0.7732  0.2329  1.0667
    9MOL   C490 5946   3.176   2.906   0.888  0.7346  0.2598  0.3006
    9MOL   O491 5947   3.304   2.877   0.855 -0.5129  0.2829 -0.2562
    9MOL   C492 5948   3.372   2.953   0.763  0.1827 -0.4449  0.2957
    9MOL   C493 5949   3.479   3.042   0.801 -0.5924  0.3634  0.1873
    9MOL   C494 5950   3.558   3.101   0.697  0.2642 -0.9582 -0.0725
    9MOL   C495 5951   3.528   3.074   0.564 -0.1994  0.7025 -0.4009
    9MOL   C496 5952   3.411   2.998   0.526 -0.9981 -0.4318  0.5865
    9MOL   C497 5953   3.337   2.936   0.626 -0.2741 -0.5772 -0.7083
    9MOL   C498 5954   3.110   2.826   0.978 -0.5790 -0.0099 -0.3951
    9MOL   C499 5955   2.983   2.851   1.024  0.4126  0.5479  0.6614
    9MOL   H500 5956   2.956   3.178   1.131  0.4349  0.1118  1.0654
    9MOL   H501 5957   2.901   3.387   1.220  2.4092 -2.6759 -1.3462
    9MOL   H502 5958   2.480   3.330   1.143  0.6500 -1.0808  4.3015
    9MOL   H503 5959   2.526   3.102   1.062 -0.4528  0.7126  3.6586
    9MOL   H504 5960   2.920   3.122   0.826  1.3290  1.0974  0.8963
    9MOL   H505 5961   3.154   3.080   0.763 -0.9920  0.4368  1.0936
    9MOL   H506 5962   3.496   3.060   0.906 -0.9951 -0.7033  0.4395
    9MOL   H507 5963   3.635   3.172   0.724  1.3139 -2.2697  0.3756
    9MOL   H508 5964   3.380   2.986   0.423  0.7987 -0.2849  0.0089
    9MOL   H509 5965   3.258   2.870   0.593 -2.1718  1.0563  0.4515
    9MOL   H510 5966   3.155   2.737   1.020 -1.3176  0.4455  1.4090
    9MOL   H511 5967   2.935   2.790   1.099  0.5011  0.8115  0.9364
    9MOL   C512 5968   3.575   3.490   0.382  0.6499 -0.0096 -0.0679
    9MOL   C513 5969   3.606   3.374   0.451  0.2232  0.1358 -0.8110
    9MOL   C514 5970   3.561   3.250   0.402 -0.8124  0.4919 -0.5938
    9MOL   O515 5971   3.602   3.137   0.463  1.0010  0.0032 -0.5826
    9MOL   C516 5972   3.473   3.244   0.294  0.0374 -0.3708  0.1992
    9MOL   C517 5973   3.445   3.364   0.223 -0.6943 -0.7562  0.3880
    9MOL   C518 5974   3.494   3.487   0.265 -1.2813 -0.2484 -0.3067
    9MOL   C519 5975   3.458   3.614   0.202 -0.0821 -0.0914 -0.3461
    9MOL   O520 5976   3.342   3.640   0.174 -0.3220 -0.2141  0.0954
    9MOL   C521 5977   3.564   3.717   0.178 -0.0729  0.6480  0.3673
    9MOL   C522 5978   3.689   3.679   0.133 -0.1037 -0.1954 -0.7018
    9MOL   C523 5979   3.787   3.775   0.105  0.7218  0.1914 -0.0679
    9MOL   C524 5980   3.747   3.908   0.101 -0.0868  0.4556 -0.1129
    9MOL   O525 5981   3.838   4.005   0.070  0.4439 -0.3849 -0.1369
    9MOL   C526 5982   3.863   4.030   8.246 -0.5972 -0.7879 -0.1772
    9MOL   C527 5983   3.994   4.040   8.193 -0.4772  0.6348  0.1175
    9MOL   C528 5984   4.013   4.072   8.058  0.5322  0.4590 -1.0932
    9MOL   C529 5985   3.900   4.090   7.974 -0.4855  0.0629 -0.6642
    9MOL   C530 5986   3.769   4.071   8.019  0.9795 -0.4888 -0.2983
    9MOL   C531 5987   3.750   4.044   8.160  0.1337 -0.1919  0.2679
    9MOL   C532 5988   3.622   3.949   0.148  0.8910  0.1962 -0.0078
    9MOL   C533 5989   3.526   3.855   0.185 -0.4660  1.1565 -0.3950
    9MOL   H534 5990   3.629   3.580   0.408  0.7439  0.3053 -1.3235
    9MOL   H535 5991   3.676   3.380   0.533  0.8117  0.5139 -1.3377
    9MOL   H536 5992   3.435   3.148   0.263  0.9437 -0.7128  0.1487
    9MOL   H537 5993   3.387   3.358   0.131  0.8240 -5.3710 -0.3810
    9MOL   H538 5994   3.704   3.573   0.122  1.3680 -0.1006  0.2570
    9MOL   H539 5995   3.890   3.756   0.080  1.1848  0.2329  1.7454
    9MOL   H540 5996   4.071   4.028   8.268 -1.1914  0.3123  0.8035
    9MOL   H541 5997   4.114   4.077   8.020  0.4049 -0.4146 -1.5799
    9MOL   H542 5998   3.684   4.100   7.960  2.0660  1.9019 -0.7305
    9MOL   H543 5999   3.649   4.053   8.198 -0.9658 -1.1610 -2.3045
    9MOL   H544 6000   3.596   4.052   0.166  2.1920  0.4507  0.4966
    9MOL   H545 6001   3.429   3.884   0.221  0.5636  0.9551  2.6738
    9MOL   C546 6002   3.952   3.842   7.622  0.7150 -0.6950  0.5389
    9MOL   C547 6003   3.948   3.916   7.742 -0.8389 -0.9103 -0.1368
    9MOL   C548 6004   3.906   4.052   7.743 -0.2939  0.3682  0.2739
    9MOL   O549 6005   3.918   4.139   7.849  0.0073  0.7614 -0.7740
    9MOL   C550 6006   3.861   4.109   7.623 -0.4771  0.5882  0.1117
    9MOL   C551 6007   3.854   4.030   7.509  0.5251 -0.0539  0.1479
    9MOL   C552 6008   3.910   3.901   7.503 -1.0151  0.3767 -0.0963
    9MOL   C553 6009   3.899   3.812   7.382  0.5098 -0.0451 -0.6578
    9MOL   O554 6010   3.850   3.862   7.282 -0.4689  0.0867 -0.6147
    9MOL   C555 6011   3.927   3.668   7.412  0.0986  0.9103  0.5970
    9MOL   C556 6012   3.818   3.583   7.435  0.0593 -0.1949  0.4656
    9MOL   C557 6013   3.844   3.448   7.445 -0.0247  0.0036  0.2174
    9MOL   C558 6014   3.979   3.400   7.428 -0.6666  0.0292 -0.5834
    9MOL   O559 6015   4.001   3.264   7.462  0.4452 -0.1124 -0.0245
    9MOL   C560 6016   4.095   3.200   7.383  0.2274 -0.1006  0.5816
    9MOL   C561 6017   4.218   3.157   7.423 -0.9124  1.0744  0.7174
    9MOL   C562 6018   4.307   3.098   7.330  0.0018 -0.1041  0.4922
    9MOL   C563 6019   4.273   3.073   7.195 -0.6317  0.5549  0.4775
    9MOL   C564 6020   4.147   3.113   7.153  0.3284  0.6806  0.3998
    9MOL   C565 6021   4.062   3.177   7.243  0.0765  1.0069  0.4671
    9MOL   C566 6022   4.084   3.485   7.411 -0.7417 -0.8161 -0.3855
    9MOL   C567 6023   4.059   3.618   7.398 -0.0191 -0.0302 -0.5905
    9MOL   H568 6024   3.989   3.742   7.634  0.1091 -1.0168 -0.3003
    9MOL   H569 6025   3.975   3.871   7.836  1.3209 -0.5936 -0.5840
    9MOL   H570 6026   3.835   4.214   7.617  0.4893  0.8056 -0.4602
    9MOL   H571 6027   3.803   4.077   7.426 -0.3101  0.7365  1.1069
    9MOL   H572 6028   3.718   3.623   7.442  0.0500  0.0387 -0.9019
    9MOL   H573 6029   3.758   3.385   7.463 -0.2913  0.1374 -0.6000
    9MOL   H574 6030   4.246   3.175   7.526  1.3600 -0.9865  0.5071
    9MOL   H575 6031   4.408   3.077   7.363 -0.2924 -0.6034  1.0749
    9MOL   H576 6032   4.102   3.101   7.056 -0.0684  0.2471  0.6328
    9MOL   H577 6033   3.964   3.205   7.208  0.6207  0.1674 -1.7766
    9MOL   H578 6034   4.187   3.463   7.391 -0.3188  0.1902  0.6096
    9MOL   H579 6035   4.147   3.676   7.372  1.2091 -1.4328  0.3501
    9MOL   C580 6036   4.388   2.711   6.913  0.4916 -0.0995  0.9907
    9MOL   C581 6037   4.395   2.843   6.954  0.1150 -0.0973 -0.3735
    9MOL   C582 6038   4.344   2.882   7.073  0.1670  0.0771 -0.0766
    9MOL   O583 6039   4.365   3.014   7.115  0.0182  0.3322  0.5464
    9MOL   C584 6040   4.277   2.783   7.154 -0.1882 -0.6933 -0.0371
    9MOL   C585 6041   4.268   2.651   7.109  0.0256  0.8673 -0.0140
    9MOL   C586 6042   4.328   2.613   6.989 -0.2037  0.3253  0.3316
    9MOL   C587 6043   4.351   2.469   6.957  0.4282  0.3999 -0.0656
    9MOL   O588 6044   4.469   2.427   6.963  0.2096 -0.0552  0.0171
    9MOL   C589 6045   4.241   2.372   6.920  0.6047 -0.3310  0.3039
    9MOL   C590 6046   4.108   2.416   6.895  0.4289 -0.1356 -0.3711
    9MOL   C591 6047   4.002   2.325   6.871 -0.8173  0.2862 -0.3612
    9MOL   C592 6048   4.037   2.185   6.850 -0.3196  0.6623 -0.5541
    9MOL   O593 6049   3.941   2.095   6.808 -0.0790 -0.0006 -0.1987
    9MOL   C594 6050   3.942   2.040   6.688  0.1558  0.7970  0.5960
    9MOL   C595 6051   3.965   1.902   6.671 -0.0660 -0.2635 -0.3827
    9MOL   C596 6052   3.971   1.847   6.544 -0.8493  0.2343 -0.0817
    9MOL   C597 6053   3.926   1.919   6.432 -0.2414  0.5090 -0.0445
    9MOL   C598 6054   3.907   2.060   6.444 -0.4384 -0.4000  0.1977
    9MOL   C599 6055   3.921   2.119   6.570  0.1175  0.3803  0.2655
    9MOL   C600 6056   4.168   2.140   6.877 -0.0402 -0.3704 -0.6316
    9MOL   C601 6057   4.271   2.232   6.910  0.4365 -0.3569 -0.2309
    9MOL   H602 6058   4.453   2.681   6.831 -1.8423 -0.0348 -0.9484
    9MOL   H603 6059   4.445   2.911   6.887  2.3992 -0.7375  0.6219
    9MOL   H604 6060   4.239   2.803   7.254 -1.7802  1.5551 -1.0484
    9MOL   H605 6061   4.235   2.574   7.178 -0.6524  1.3944  0.2563
    9MOL   H606 6062   4.086   2.521   6.884  1.1312  0.3875  2.6643
    9MOL   H607 6063   3.902   2.353   6.844 -0.7620  1.0927  0.2611
    9MOL   H608 6064   3.988   1.838   6.755 -0.2085  1.3101  0.8886
    9MOL   H609 6065   3.993   1.742   6.533  0.0916  0.3233  0.8953
    9MOL   H610 6066   3.875   2.108   6.353  0.4463 -0.6200 -0.2379
    9MOL   H611 6067   3.904   2.225   6.585  0.4894  0.5577 -0.5442
    9MOL   H612 6068   4.193   2.036   6.864  0.7381 -0.1729 -0.7089
    9MOL   H613 6069   4.372   2.195   6.919  0.1458 -0.9050  0.8705
    9MOL   C614 6070   3.568   1.723   6.345  0.6576 -0.9501 -0.2335
    9MOL   C615 6071   3.692   1.776   6.381 -0.0672  0.6648 -0.7251
    9MOL   C616 6072   3.786   1.802   6.281  0.0740 -0.3439  0.3757
    9MOL   O617 6073   3.909   1.856   6.307 -1.0217  0.1007  0.8460
    9MOL   C618 6074   3.762   1.774   6.146 -1.1352 -0.7786  0.1064
    9MOL   C619 6075   3.639   1.715   6.111  0.4079  0.4084 -0.2091
    9MOL   C620 6076   3.537   1.686   6.208  0.1980  0.1639 -0.6928
    9MOL   C621 6077   3.402   1.630   6.165  0.1023  0.2275 -0.7744
    9MOL   O622 6078   3.393   1.565   6.064 -0.5574 -0.1570 -0.0896
    9MOL   C623 6079   3.282   1.649   6.258 -0.4047  0.6380  0.0436
    9MOL   C624 6080   3.250   1.780   6.290  0.5938  0.0163 -0.4500
    9MOL   C625 6081   3.133   1.809   6.367  0.1939  0.2165  0.5969
    9MOL   C626 6082   3.063   1.700   6.419  0.0684 -1.1650 -0.3057
    9MOL   O627 6083   2.952   1.718   6.495  0.1221  0.7617 -0.2033
    9MOL   C628 6084   2.962   1.704   6.630 -0.4835  0.2268 -0.4236
    9MOL   C629 6085   3.022   1.803   6.711 -0.2210  0.5178  0.0896
    9MOL   C630 6086   3.027   1.777   6.858 -0.4221 -0.1751 -0.3004
    9MOL   C631 6087   2.966   1.663   6.911  0.6842 -0.2236  0.2109
    9MOL   C632 6088   2.903   1.571   6.822  0.1662 -0.4323 -0.6113
    9MOL   C633 6089   2.905   1.592   6.684  0.5857 -0.4915  0.1135
    9MOL   C634 6090   3.100   1.568   6.389  0.2775 -0.5274 -0.3086
    9MOL   C635 6091   3.215   1.538   6.311  1.3033 -0.2722  0.5247
    9MOL   H636 6092   3.498   1.706   6.426 -1.1724  0.5822 -1.4447
    9MOL   H637 6093   3.705   1.799   6.486 -2.7413  2.1317 -0.6937
    9MOL   H638 6094   3.841   1.795   6.076  0.3063 -0.8160  1.6964
    9MOL   H639 6095   3.621   1.693   6.006  3.3741  0.7840 -0.8441
    9MOL   H640 6096   3.307   1.868   6.263  3.0783 -1.1237  0.8442
    9MOL   H641 6097   3.124   1.916   6.381  2.5240  0.2018  2.5729
    9MOL   H642 6098   3.066   1.888   6.660 -0.0212  0.9996  1.0428
    9MOL   H643 6099   3.073   1.849   6.924  3.5789 -1.2166 -1.8285
    9MOL   H644 6100   2.855   1.479   6.852  0.5734 -0.4351  0.0549
    9MOL   H645 6101   2.858   1.521   6.618 -3.8986  0.4967  2.0424
    9MOL   H646 6102   3.041   1.486   6.425 -3.3535  1.5697 -1.2818
    9MOL   H647 6103   3.237   1.438   6.276 -1.1804  0.2913 -2.9660
    9MOL   C648 6104   2.750   1.597   7.348  0.7065  0.1248 -0.4554
    9MOL   C649 6105   2.866   1.608   7.264  0.4252  0.4091  0.5754
    9MOL   C650 6106   2.857   1.640   7.133  0.3609  0.4855 -0.1070
    9MOL   O651 6107   2.970   1.636   7.050  0.3086 -0.1111 -0.5322
    9MOL   C652 6108   2.725   1.679   7.084 -0.1411 -0.2888  0.4012
    9MOL   C653 6109   2.616   1.690   7.171  0.1156  0.4482  0.3707
    9MOL   C654 6110   2.624   1.640   7.299  0.1972  0.3763 -0.5668
    9MOL   C655 6111   2.497   1.643   7.379 -0.4213 -0.7898 -0.0678
    9MOL   O656 6112   2.419   1.740   7.370 -0.4092  0.3658  0.2398
    9MOL   C657 6113   2.472   1.529   7.468 -0.1609 -0.0454 -0.3939
    9MOL   C658 6114   2.514   1.401   7.444  0.1026  0.3768  0.3645
    9MOL   C659 6115   2.492   1.292   7.529 -0.0129  0.5310  0.0996
    9MOL   C660 6116   2.416   1.313   7.645  0.2551 -0.5434  0.0106
    9MOL   O661 6117   2.404   1.216   7.742  0.7359  0.2433  0.2804
    9MOL   C662 6118   2.310   1.116   7.714 -0.6449 -0.2814 -0.2575
    9MOL   C663 6119   2.181   1.129   7.770 -0.2474 -0.0951 -0.4086
    9MOL   C664 6120   2.085   1.031   7.751  0.1927 -0.0067 -0.4371
    9MOL   C665 6121   2.126   0.920   7.675  0.7393  0.5698 -0.2031
    9MOL   C666 6122   2.258   0.904   7.618 -0.1706 -0.1919 -1.0037
    9MOL   C667 6123   2.349   1.011   7.632 -1.1976  0.4466  0.2730
    9MOL   C668 6124   2.370   1.445   7.672 -0.4671 -0.0913  0.2928
    9MOL   C669 6125   2.411   1.551   7.592  0.2952 -0.9207  1.4371
    9MOL   H670 6126   2.754   1.553   7.446 -1.1179  0.5711 -0.1527
    9MOL   H671 6127   2.958   1.594   7.317  0.3239  2.8090  1.4611
    9MOL   H672 6128   2.694   1.692   6.981 -3.6672 -2.1986  1.1735
    9MOL   H673 6129   2.520   1.722   7.132  0.2477  1.2610  0.6983
    9MOL   H674 6130   2.584   1.389   7.362  0.4945  2.2254  0.4202
    9MOL   H675 6131   2.535   1.196   7.505 -0.0478  0.3681  0.6857
    9MOL   H676 6132   2.163   1.213   7.836  1.8383  0.9670 -1.1458
    9MOL   H677 6133   1.983   1.042   7.785  0.3195 -2.2765  0.8023
    9MOL   H678 6134   2.280   0.830   7.543 -0.3686 -0.7378 -0.5311
    9MOL   H679 6135   2.449   0.998   7.594 -1.5742 -3.0528  0.2802
    9MOL   H680 6136   2.316   1.464   7.764 -1.0383 -0.7943  0.1092
    9MOL   H681 6137   2.396   1.650   7.632  1.0944  0.2146 -0.9409
    9MOL   H682 6138   2.043   0.852   7.660 -1.2335  2.9841 -0.4234
   10MOL     C1 6139   3.844   6.427   6.208 -0.6397  0.8789 -0.6387
   10MOL     C2 6140   3.859   6.520   6.098  0.4085 -0.3262 -0.6193
   10MOL     C3 6141   3.857   6.661   6.117 -0.1384  0.0514 -0.0217
   10MOL     O4 6142   3.863   6.750   6.017  0.6204 -0.2982 -0.5878
   10MOL     C5 6143   3.830   6.710   6.245  0.1418 -0.1437 -0.0958
   10MOL     C6 6144   3.812   6.622   6.356  0.0681  0.5406  0.0637
   10MOL     C7 6145   3.830   6.478   6.337  0.3932 -0.1283  0.2950
   10MOL     C8 6146   3.829   6.383   6.455 -0.0073  0.2689 -0.3970
   10MOL     O9 6147   3.754   6.388   6.549  0.0856  0.1319 -0.6211
   10MOL    C10 6148   3.914   6.263   6.458 -0.5110  0.1664  0.4243
   10MOL    C11 6149   3.866   6.145   6.522  0.0477 -0.1314 -0.4713
   10MOL    C12 6150   3.945   6.027   6.528 -0.2330  0.3063 -0.0887
   10MOL    C13 6151   4.065   6.028   6.456  0.0129  0.3932 -0.1003
   10MOL    O14 6152   4.144   5.920   6.442  0.9483 -0.5257  0.4406
   10MOL    C15 6153   4.118   5.837   6.339 -0.1154  0.1601  0.1505
   10MOL    C16 6154   4.042   5.720   6.358 -0.6251 -0.1393 -0.0734
   10MOL    C17 6155   4.009   5.636   6.251 -0.3467  0.6062  0.2759
   10MOL    C18 6156   4.040   5.672   6.118  0.3534 -0.0749  0.5823
   10MOL    C19 6157   4.121   5.784   6.100  0.3127  0.1384 -0.5791
   10MOL    C20 6158   4.160   5.870   6.208  0.2390  0.0769  0.5909
   10MOL    C21 6159   4.119   6.147   6.406  0.0282  0.2011  0.2462
   10MOL    C22 6160   4.050   6.268   6.415 -0.2468  0.4637  0.3431
   10MOL    H23 6161   3.852   6.323   6.183  0.5450  1.2919 -2.0917
   10MOL    H24 6162   3.869   6.482   5.998 -2.0741 -2.7160 -0.0364
   10MOL    H25 6163   3.810   6.814   6.266  1.1486 -0.4859  2.6808
   10MOL    H26 6164   3.807   6.658   6.457  0.8402  2.1655 -0.4499
   10MOL    H27 6165   3.770   6.147   6.571  0.6914 -1.2570  0.8552
   10MOL    H28 6166   3.908   5.941   6.581 -0.5577  1.8313  2.2791
   10MOL    H29 6167   4.000   5.697   6.455 -2.2102 -1.5048 -1.0419
   10MOL    H30 6168   3.955   5.544   6.270 -0.7335  0.7138 -0.3223
   10MOL    H31 6169   4.155   5.827   6.007 -1.8900  2.6207 -0.2741
   10MOL    H32 6170   4.230   5.951   6.198  0.7441 -0.2852  1.1312
   10MOL    H33 6171   4.218   6.136   6.365  0.1345 -1.1477  0.8389
   10MOL    H34 6172   4.091   6.363   6.384 -0.7321  0.5749  0.0442
   10MOL    H35 6173   3.831   6.716   5.934 -0.0998 -0.3076 -0.3058
   10MOL    C36 6174   3.789   5.309   6.058  0.2286  0.2643 -0.2103
   10MOL    C37 6175   3.906   5.382   6.033  0.0834 -0.5766  0.7537
   10MOL    C38 6176   3.899   5.516   5.993  0.3123 -0.2890  0.5530
   10MOL    O39 6177   4.018   5.591   6.006  0.1131 -0.0455 -0.5131
   10MOL    C40 6178   3.775   5.572   5.966 -0.3292 -0.3074  0.3698
   10MOL    C41 6179   3.658   5.500   5.985 -0.3818 -0.3996 -0.5123
   10MOL    C42 6180   3.662   5.360   6.017  1.4185 -0.6026 -0.1605
   10MOL    C43 6181   3.529   5.288   6.043  0.0907 -0.5858 -0.1847
   10MOL    O44 6182   3.445   5.340   6.111  0.6183  0.2998 -0.5028
   10MOL    C45 6183   3.512   5.146   5.986  0.6629 -0.4286  0.1904
   10MOL    C46 6184   3.445   5.047   6.059 -0.3041  0.2313 -0.6388
   10MOL    C47 6185   3.444   4.914   6.014 -0.6045  0.1281  0.3917
   10MOL    C48 6186   3.500   4.878   5.891  0.5989 -0.0710 -0.3827
   10MOL    O49 6187   3.475   4.750   5.854  0.3740  0.6637 -0.1099
   10MOL    C50 6188   3.553   4.696   5.755 -0.6888  0.5349 -0.4341
   10MOL    C51 6189   3.695   4.695   5.762  0.2175  0.2234 -0.4721
   10MOL    C52 6190   3.776   4.626   5.672 -0.2623 -0.3464  0.6044
   10MOL    C53 6191   3.706   4.564   5.561 -0.0908 -0.0553  0.1379
   10MOL    C54 6192   3.566   4.563   5.554  0.3331 -0.5299  0.0927
   10MOL    C55 6193   3.487   4.625   5.652  0.0726  0.3168  0.6107
   10MOL    C56 6194   3.563   4.979   5.819  0.1277  0.3662  0.7756
   10MOL    C57 6195   3.579   5.109   5.869  0.2347  0.5290  0.7226
   10MOL    H58 6196   3.795   5.212   6.104 -1.5397 -0.2810 -1.0669
   10MOL    H59 6197   4.002   5.345   6.064  1.7099  2.6030 -0.2291
   10MOL    H60 6198   3.766   5.674   5.933  1.9545 -0.5788 -1.1755
   10MOL    H61 6199   3.558   5.533   5.961 -0.4359 -1.4422 -1.8360
   10MOL    H62 6200   3.405   5.075   6.155 -0.6692  0.0967 -0.7468
   10MOL    H63 6201   3.379   4.847   6.067 -0.4540  1.4615  2.3346
   10MOL    H64 6202   3.738   4.736   5.852 -1.4329 -0.8336  0.8472
   10MOL    H65 6203   3.883   4.620   5.688 -0.5064 -0.8620  2.1175
   10MOL    H66 6204   3.520   4.517   5.467  1.1630 -0.1044 -0.5859
   10MOL    H67 6205   3.379   4.618   5.650  0.1166 -0.3012  0.4953
   10MOL    H68 6206   3.616   4.953   5.729  1.2998  0.7890  1.3348
   10MOL    H69 6207   3.639   5.175   5.808 -0.2759 -0.2963 -0.6991
   10MOL    C70 6208   3.879   4.178   5.595  1.5166  0.0836 -0.1988
   10MOL    C71 6209   3.796   4.282   5.550  0.3943 -0.0983  0.1264
   10MOL    C72 6210   3.855   4.403   5.503 -0.5019 -0.5583  0.1129
   10MOL    O73 6211   3.774   4.507   5.460 -0.3705  0.5015  0.3641
   10MOL    C74 6212   3.993   4.410   5.493 -0.9738 -0.7131  0.7462
   10MOL    C75 6213   4.073   4.308   5.542 -0.3045  0.0752  0.6012
   10MOL    C76 6214   4.015   4.195   5.602 -0.2937 -0.5765  0.4512
   10MOL    C77 6215   4.097   4.091   5.663 -0.0859 -0.7663  0.3580
   10MOL    O78 6216   4.071   3.977   5.629  0.0277 -0.2833  0.0411
   10MOL    C79 6217   4.192   4.123   5.767  0.6668  0.7944 -0.7055
   10MOL    C80 6218   4.185   4.247   5.837 -0.1292  0.1616  0.3878
   10MOL    C81 6219   4.268   4.266   5.951 -0.1006  0.2610  0.6423
   10MOL    C82 6220   4.369   4.178   5.990 -0.4824 -0.5245  0.0845
   10MOL    O83 6221   4.452   4.209   6.095  0.4477  0.0032  0.2681
   10MOL    C84 6222   4.438   4.151   6.220 -0.4313  0.6185 -0.0142
   10MOL    C85 6223   4.309   4.114   6.263 -0.7108 -0.8097 -0.0192
   10MOL    C86 6224   4.282   4.062   6.390 -0.9957  0.4049 -0.7970
   10MOL    C87 6225   4.397   4.051   6.479 -0.0022  0.1389  0.3722
   10MOL    C88 6226   4.527   4.097   6.438 -0.5078  0.4974  0.1723
   10MOL    C89 6227   4.548   4.142   6.306 -0.2381 -0.3762  0.5700
   10MOL    C90 6228   4.392   4.067   5.907  0.0800 -0.5609 -0.3741
   10MOL    C91 6229   4.302   4.036   5.800  0.8736 -0.1789 -0.1200
   10MOL    H92 6230   3.827   4.089   5.625 -2.3491  1.9208 -1.0759
   10MOL    H93 6231   3.688   4.271   5.547  0.2752  1.3343 -2.1400
   10MOL    H94 6232   4.049   4.488   5.443 -1.5958  0.3663  1.6857
   10MOL    H95 6233   4.178   4.330   5.545 -0.1381 -0.7551  0.9218
   10MOL    H96 6234   4.112   4.325   5.825  0.1532  0.1674 -1.3354
   10MOL    H97 6235   4.247   4.359   6.003  0.7573  2.4969 -2.8234
   10MOL    H98 6236   4.226   4.126   6.195  1.0149 -0.2297 -2.0933
   10MOL    H99 6237   4.188   4.025   6.427 -0.9505 -0.9921 -2.0584
   10MOL   H100 6238   4.606   4.094   6.512 -0.4813  1.4676  0.1873
   10MOL   H101 6239   4.648   4.169   6.274  0.5060 -1.4821  1.9068
   10MOL   H102 6240   4.478   4.009   5.939 -0.3004 -0.1610  1.4013
   10MOL   H103 6241   4.315   3.944   5.745  2.5779 -1.4802  2.3987
   10MOL   C104 6242   4.414   4.252   6.876  0.3874  0.0143 -0.0244
   10MOL   C105 6243   4.446   4.145   6.785 -1.0656 -0.5646  0.5775
   10MOL   C106 6244   4.347   4.104   6.693  0.1619 -1.1376 -1.0116
   10MOL   O107 6245   4.381   4.012   6.606  0.0619 -0.3189  0.0424
   10MOL   C108 6246   4.213   4.144   6.716  0.3222 -0.1887 -0.6191
   10MOL   C109 6247   4.179   4.243   6.807  0.0704 -0.0647 -0.6068
   10MOL   C110 6248   4.288   4.307   6.871  0.6292 -0.8957 -0.5664
   10MOL   C111 6249   4.255   4.424   6.956  0.0198 -0.1804 -0.1694
   10MOL   O112 6250   4.154   4.422   7.027 -0.1164  0.1568  0.4052
   10MOL   C113 6251   4.366   4.519   6.969 -0.0568  0.7055 -0.1945
   10MOL   C114 6252   4.409   4.557   7.105  0.4697  0.1262 -0.6054
   10MOL   C115 6253   4.516   4.644   7.117  0.1226  0.0715 -0.3163
   10MOL   C116 6254   4.583   4.696   7.005  0.2540 -0.4819  0.5645
   10MOL   O117 6255   4.684   4.786   7.014  0.2962  0.1146  0.1225
   10MOL   C118 6256   4.802   4.761   7.083 -0.3704 -0.1991  0.7216
   10MOL   C119 6257   4.840   4.827   7.204  0.0936 -0.0648  0.6161
   10MOL   C120 6258   4.961   4.794   7.260 -0.5706  0.5835 -0.2526
   10MOL   C121 6259   5.058   4.707   7.202  0.3378 -0.8131 -0.3048
   10MOL   C122 6260   5.018   4.639   7.082 -0.5702 -0.2227 -0.3236
   10MOL   C123 6261   4.891   4.664   7.026  0.1708 -0.2606  0.1655
   10MOL   C124 6262   4.543   4.656   6.877  0.0429  0.9428  0.4726
   10MOL   C125 6263   4.438   4.567   6.862 -1.0627 -0.3791 -0.1578
   10MOL   H126 6264   4.500   4.288   6.931 -0.6992  1.6336  0.6145
   10MOL   H127 6265   4.548   4.110   6.778  0.1147  2.7699 -0.0874
   10MOL   H128 6266   4.132   4.110   6.653 -0.0314  0.3652 -0.4760
   10MOL   H129 6267   4.074   4.255   6.832 -0.3775  0.2339 -2.5741
   10MOL   H130 6268   4.351   4.517   7.187 -0.0369 -0.5719 -1.2945
   10MOL   H131 6269   4.553   4.665   7.216 -0.9953 -1.3881  0.4436
   10MOL   H132 6270   4.770   4.901   7.239 -1.1849 -0.9232 -0.0793
   10MOL   H133 6271   4.997   4.852   7.343 -0.3673  0.1167 -0.0094
   10MOL   H134 6272   5.086   4.586   7.017  3.4801  0.0909  3.4293
   10MOL   H135 6273   4.862   4.622   6.931 -1.9435 -2.5977  1.7868
   10MOL   H136 6274   4.588   4.704   6.791  0.7437  0.5152  0.5994
   10MOL   H137 6275   4.413   4.527   6.765 -1.5645 -1.8975  0.5800
   10MOL   C138 6276   5.376   4.408   7.178 -0.1151  0.1792  0.5068
   10MOL   C139 6277   5.338   4.541   7.202  0.2498 -0.0986 -0.2765
   10MOL   C140 6278   5.219   4.568   7.268 -0.2584 -0.4469  0.5948
   10MOL   O141 6279   5.171   4.689   7.272  0.0632 -0.3975  0.4227
   10MOL   C142 6280   5.146   4.467   7.331  0.4443  0.1667 -0.4110
   10MOL   C143 6281   5.187   4.331   7.318 -0.2507  0.2250 -0.2010
   10MOL   C144 6282   5.307   4.300   7.241  0.6591 -0.1247  0.3387
   10MOL   C145 6283   5.349   4.158   7.222 -0.2906 -0.2533 -0.1879
   10MOL   O146 6284   5.392   4.120   7.112  0.1979  0.2684  0.5581
   10MOL   C147 6285   5.340   4.073   7.344  0.0818 -0.5430 -0.2887
   10MOL   C148 6286   5.332   3.933   7.324 -0.0276 -0.6106 -0.5741
   10MOL   C149 6287   5.347   3.848   7.436 -0.6994  0.3657 -0.4788
   10MOL   C150 6288   5.364   3.901   7.564 -0.7144  0.0910  0.2118
   10MOL   O151 6289   5.379   3.820   7.672  0.8938  0.1132  0.4486
   10MOL   C152 6290   5.266   3.813   7.752  0.1489  0.3942 -0.4674
   10MOL   C153 6291   5.166   3.720   7.725  0.4806 -0.4778  0.0760
   10MOL   C154 6292   5.061   3.698   7.810 -0.1159  0.1292 -0.5188
   10MOL   C155 6293   5.046   3.779   7.924  0.1790  0.6647 -0.1155
   10MOL   C156 6294   5.141   3.885   7.947  0.9333 -0.0516  0.1824
   10MOL   C157 6295   5.255   3.903   7.867  0.0049  0.0987 -0.0624
   10MOL   C158 6296   5.363   4.042   7.580 -0.3754  0.2194 -1.2553
   10MOL   C159 6297   5.364   4.123   7.470 -0.9506  0.0837  0.7569
   10MOL   H160 6298   5.458   4.392   7.110 -0.9929  0.2152 -0.5761
   10MOL   H161 6299   5.387   4.624   7.153 -0.1119  0.5895  0.5208
   10MOL   H162 6300   5.059   4.493   7.390  1.7331  0.5346  1.3471
   10MOL   H163 6301   5.113   4.262   7.354 -0.8767  1.3649  0.7372
   10MOL   H164 6302   5.329   3.890   7.225  1.1737  0.0532 -0.9150
   10MOL   H165 6303   5.366   3.744   7.413  2.9510  0.9015 -0.2149
   10MOL   H166 6304   5.183   3.656   7.640  0.5594 -2.3776  1.5001
   10MOL   H167 6305   4.984   3.624   7.795 -0.0867  0.2930 -1.5516
   10MOL   H168 6306   5.132   3.943   8.038 -0.0702 -0.6339  0.4660
   10MOL   H169 6307   5.337   3.968   7.895  0.8075 -0.3355 -1.3412
   10MOL   H170 6308   5.380   4.084   7.678  0.1925 -1.4384 -0.6257
   10MOL   H171 6309   5.379   4.230   7.482  0.1499  0.2036 -1.4887
   10MOL   C172 6310   4.839   3.920   0.011 -0.1865 -0.1157  0.0070
   10MOL   C173 6311   4.893   3.825   8.237  0.3680 -0.0659  0.5691
   10MOL   C174 6312   4.890   3.834   8.096  0.0064  0.2169  0.0076
   10MOL   O175 6313   4.945   3.742   8.011 -0.2736 -0.0075 -0.2124
   10MOL   C176 6314   4.833   3.944   8.043  0.2650 -0.2105 -0.0427
   10MOL   C177 6315   4.772   4.036   8.123  0.4470  0.1441  0.0390
   10MOL   C178 6316   4.766   4.029   8.268 -0.3979  0.5621  0.2391
   10MOL   C179 6317   4.697   4.127   0.048 -0.4054  0.7880  1.0908
   10MOL   O180 6318   4.651   4.096   0.161  0.2417  0.6146 -0.1366
   10MOL   C181 6319   4.696   4.273   0.009 -0.0329  0.7750 -0.0873
   10MOL   C182 6320   4.794   4.337   8.235  0.5982 -0.2419 -0.0730
   10MOL   C183 6321   4.775   4.464   8.190  0.4614 -0.1484 -0.0839
   10MOL   C184 6322   4.673   4.547   8.244  0.7978  0.3610 -0.8219
   10MOL   O185 6323   4.659   4.677   8.205  1.0995 -0.0587 -0.3970
   10MOL   C186 6324   4.717   4.779   8.281  0.6178 -0.1675 -0.2339
   10MOL   C187 6325   4.638   4.887   0.007  0.1930  0.0991 -0.4268
   10MOL   C188 6326   4.698   4.998   0.064 -0.2145  0.5002 -0.1469
   10MOL   C189 6327   4.836   5.000   0.086  0.0056  0.4124  0.6796
   10MOL   C190 6328   4.917   4.891   0.048 -0.5383  0.6222  0.6405
   10MOL   C191 6329   4.857   4.775   8.302  0.6877  0.1587  0.5214
   10MOL   C192 6330   4.578   4.489   0.018 -0.5717  0.4163 -0.8830
   10MOL   C193 6331   4.596   4.355   0.063 -0.6210 -0.2604 -0.3116
   10MOL   H194 6332   4.846   3.909   0.118  1.6994  0.6213 -0.0269
   10MOL   H195 6333   4.933   3.736   8.283  0.3697 -0.2966  0.1299
   10MOL   H196 6334   4.829   3.953   7.936  1.1708 -0.6777 -0.1219
   10MOL   H197 6335   4.720   4.109   8.064  0.5170 -0.0074 -0.2088
   10MOL   H198 6336   4.876   4.278   8.198  1.1968  1.4516 -1.5488
   10MOL   H199 6337   4.841   4.508   8.117 -0.0517 -0.5607 -0.7905
   10MOL   H200 6338   4.530   4.889   8.307  0.2446 -0.0943 -0.8720
   10MOL   H201 6339   4.649   5.080   0.115 -1.5690 -0.8044  0.6745
   10MOL   H202 6340   5.023   4.898   0.064 -0.6198 -1.3017  2.2351
   10MOL   H203 6341   4.909   4.685   8.274  2.0099  0.8331  0.7500
   10MOL   H204 6342   4.495   4.547   0.056 -0.4126  0.8719 -1.2278
   10MOL   H205 6343   4.507   4.321   0.113 -2.1180  1.4418 -1.7431
   10MOL   C206 6344   5.098   5.396   0.071 -0.5089 -0.0142  0.3951
   10MOL   C207 6345   5.041   5.293   0.140 -0.7493  0.1727 -0.4337
   10MOL   C208 6346   4.940   5.212   0.084  0.2217  0.7464 -0.9267
   10MOL   O209 6347   4.894   5.104   0.156 -0.1351  0.0140 -0.0040
   10MOL   C210 6348   4.901   5.233   8.262 -0.1073  0.2407 -0.0225
   10MOL   C211 6349   4.943   5.354   8.204 -0.3131 -0.0972 -0.1253
   10MOL   C212 6350   5.045   5.432   8.263  0.6599 -0.2111 -0.1816
   10MOL   C213 6351   5.086   5.550   8.189 -0.2297  0.9805  0.1620
   10MOL   O214 6352   5.087   5.662   8.241 -0.1284  0.0813  0.1198
   10MOL   C215 6353   5.145   5.529   8.053 -0.1224 -0.5466 -0.7341
   10MOL   C216 6354   5.187   5.404   8.012  0.2093 -0.1703  0.8141
   10MOL   C217 6355   5.246   5.374   7.891  0.2865 -1.1725  0.2177
   10MOL   C218 6356   5.266   5.481   7.800  0.0241  0.9461 -0.5929
   10MOL   O219 6357   5.315   5.465   7.672 -0.2763  0.4491  0.0708
   10MOL   C220 6358   5.331   5.332   7.629 -0.4375 -0.5974 -0.0569
   10MOL   C221 6359   5.209   5.271   7.575 -0.2113  0.4512 -0.0256
   10MOL   C222 6360   5.219   5.133   7.536 -0.1506  0.9855 -0.5888
   10MOL   C223 6361   5.341   5.058   7.549 -0.2295 -0.5054  0.6420
   10MOL   C224 6362   5.460   5.129   7.577 -0.9142 -0.4967 -0.4441
   10MOL   C225 6363   5.461   5.262   7.624  0.2600 -0.0211 -0.0407
   10MOL   C226 6364   5.223   5.612   7.838  0.1287 -0.0412  0.9200
   10MOL   C227 6365   5.172   5.635   7.965  0.9878  0.2406  0.5542
   10MOL   H228 6366   5.186   5.448   0.104  0.1179  0.6170 -2.1647
   10MOL   H229 6367   5.076   5.269   0.240 -1.0883  2.5990  0.2895
   10MOL   H230 6368   4.825   5.171   8.216 -0.3769  1.1456 -0.8043
   10MOL   H231 6369   4.898   5.375   8.108 -0.4989  0.5455  0.0987
   10MOL   H232 6370   5.162   5.319   8.075 -0.2309 -0.1120  0.7196
   10MOL   H233 6371   5.255   5.271   7.860  2.0003 -0.3936 -2.0330
   10MOL   H234 6372   5.114   5.324   7.578 -0.2891  0.2660  0.8804
   10MOL   H235 6373   5.131   5.079   7.506  0.4280 -0.2308 -0.1172
   10MOL   H236 6374   5.551   5.076   7.553  0.5826  0.8479  2.0818
   10MOL   H237 6375   5.550   5.307   7.666 -0.2075 -0.2183  1.1742
   10MOL   H238 6376   5.222   5.699   7.774 -2.1220 -1.4655 -1.0428
   10MOL   H239 6377   5.149   5.739   7.986 -1.3651 -0.4538  1.5333
   10MOL   C240 6378   5.211   4.633   7.672  0.2765 -0.1436  0.0313
   10MOL   C241 6379   5.219   4.741   7.581  0.1809 -0.5410  0.5552
   10MOL   C242 6380   5.329   4.827   7.580 -0.0558 -0.2266 -0.1966
   10MOL   O243 6381   5.350   4.933   7.498 -0.6195 -0.0460  0.2618
   10MOL   C244 6382   5.436   4.799   7.669 -0.5571  0.3468 -0.4182
   10MOL   C245 6383   5.429   4.688   7.757  0.2379 -0.5052  0.1561
   10MOL   C246 6384   5.319   4.599   7.757 -0.3145  0.4645 -0.4128
   10MOL   C247 6385   5.301   4.489   7.859 -0.3813 -0.4037  0.3196
   10MOL   O248 6386   5.195   4.431   7.874  0.0462  0.5203  0.1260
   10MOL   C249 6387   5.408   4.466   7.960 -0.3956 -0.0628 -0.5089
   10MOL   C250 6388   5.449   4.566   8.055  0.2243  0.0796 -0.4502
   10MOL   C251 6389   5.534   4.529   8.164  0.5810  0.0639 -0.0040
   10MOL   C252 6390   5.583   4.395   8.176  0.3794  0.5147  0.6071
   10MOL   O253 6391   5.653   4.351   8.285 -0.0084 -0.4868 -0.0591
   10MOL   C254 6392   5.771   4.415   0.002 -1.0649  0.5521 -0.1512
   10MOL   C255 6393   5.882   4.397   8.223 -0.2766 -0.3140  1.0474
   10MOL   C256 6394   6.004   4.452   8.258 -0.1120 -0.0366  0.3472
   10MOL   C257 6395   6.025   4.517   0.066 -0.3959 -0.5524  0.5650
   10MOL   C258 6396   5.915   4.530   0.154  0.3237  0.1043 -0.5189
   10MOL   C259 6397   5.785   4.485   0.119  0.2837  0.0600  0.0985
   10MOL   C260 6398   5.542   4.300   8.083  0.1123  0.5452  0.0404
   10MOL   C261 6399   5.443   4.329   7.987 -0.2530 -0.0014  0.3661
   10MOL   H262 6400   5.129   4.563   7.669  0.9273 -0.9650  1.0356
   10MOL   H263 6401   5.139   4.764   7.512 -0.7303  0.0019  1.7628
   10MOL   H264 6402   5.518   4.867   7.688 -0.2971  0.0065 -0.3349
   10MOL   H265 6403   5.507   4.678   7.831  1.1832 -0.2468 -0.7927
   10MOL   H266 6404   5.430   4.671   8.041  1.9940  0.6912  1.5494
   10MOL   H267 6405   5.565   4.602   8.237  0.3338 -0.5425  0.7144
   10MOL   H268 6406   5.867   4.339   8.133  1.4479  2.4513 -1.1231
   10MOL   H269 6407   6.086   4.439   8.188 -0.8473 -0.6611 -0.4163
   10MOL   H270 6408   5.929   4.586   0.245  2.8490 -2.2575  0.6366
   10MOL   H271 6409   5.697   4.514   0.174 -1.0602 -0.4796 -1.7094
   10MOL   H272 6410   5.576   4.198   8.093  3.9231  1.7419  0.0836
   10MOL   H273 6411   5.386   4.255   7.933 -0.1297  0.3130 -0.2029
   10MOL   C274 6412   6.459   4.443   0.256 -0.1797 -0.2658 -0.1306
   10MOL   C275 6413   6.371   4.518   0.167  0.2401 -0.6198 -0.1072
   10MOL   C276 6414   6.232   4.489   0.169  0.1915  0.2342 -0.2104
   10MOL   O277 6415   6.148   4.561   0.092 -0.5366  0.1125  0.2407
   10MOL   C278 6416   6.189   4.377   0.242 -0.7678  0.6617 -0.4165
   10MOL   C279 6417   6.279   4.292   0.309  0.0863  0.3133  0.3478
   10MOL   C280 6418   6.414   4.328   0.322 -0.5157  0.5234  0.2809
   10MOL   C281 6419   6.492   4.246   0.409 -0.2282 -0.2291  0.2174
   10MOL   O282 6420   6.452   4.224   0.522  0.5474 -0.3456 -0.2634
   10MOL   C283 6421   6.614   4.176   0.358  0.4678 -0.0289  0.2327
   10MOL   C284 6422   6.718   4.133   0.445  0.6076  0.5439 -0.6404
   10MOL   C285 6423   6.845   4.085   0.394  0.2839 -0.1058 -0.7756
   10MOL   C286 6424   6.856   4.061   0.253 -0.2699 -0.1302  0.4608
   10MOL   O287 6425   6.974   4.014   0.192 -0.3788 -0.2450 -0.2854
   10MOL   C288 6426   7.059   4.117   0.155 -0.2086  0.2930  0.1659
   10MOL   C289 6427   7.044   4.163   0.019  0.6538 -0.2026 -0.9069
   10MOL   C290 6428   7.130   4.259   8.281 -0.4910 -0.1646 -0.4221
   10MOL   C291 6429   7.243   4.295   0.041  0.5535  0.0883  0.3247
   10MOL   C292 6430   7.261   4.248   0.170 -0.0316  0.1389  0.5541
   10MOL   C293 6431   7.171   4.161   0.228  0.0735  0.4585  0.0271
   10MOL   C294 6432   6.740   4.078   0.168  0.4590 -0.3899 -0.4802
   10MOL   C295 6433   6.632   4.149   0.221  0.2696  0.0223  0.5225
   10MOL   H296 6434   6.566   4.459   0.268 -0.7988  3.4239  1.0476
   10MOL   H297 6435   6.417   4.585   0.096  2.9300 -3.9197 -1.6309
   10MOL   H298 6436   6.083   4.357   0.250 -0.4424 -1.0479 -0.3167
   10MOL   H299 6437   6.231   4.208   0.357  1.0362 -0.6383 -0.3522
   10MOL   H300 6438   6.715   4.146   0.552 -0.4907  1.6286 -0.7954
   10MOL   H301 6439   6.930   4.060   0.455  1.6472  0.7747 -2.2750
   10MOL   H302 6440   6.959   4.128   8.275  1.4407  0.9929 -2.9228
   10MOL   H303 6441   7.113   4.285   8.178  0.5910 -3.3867 -1.4707
   10MOL   H304 6442   7.342   4.296   0.223  0.5430  1.3975 -1.4159
   10MOL   H305 6443   7.186   4.127   0.329 -0.5140 -3.7255 -1.1799
   10MOL   H306 6444   6.738   4.062   0.061 -0.4279  0.7228 -0.6341
   10MOL   H307 6445   6.551   4.177   0.155 -0.3906 -1.1920  0.8148
   10MOL   C308 6446   7.383   4.330   7.943  0.5808  0.6158  0.7410
   10MOL   C309 6447   7.364   4.292   8.078 -0.9684 -0.0316  0.4312
   10MOL   C310 6448   7.355   4.401   8.166 -0.0471  0.1183 -0.1307
   10MOL   O311 6449   7.335   4.387   8.299  0.2155 -0.3126  0.0866
   10MOL   C312 6450   7.367   4.531   8.117  0.1158 -0.4395 -0.2855
   10MOL   C313 6451   7.389   4.562   7.979 -0.3255  0.6981 -0.3046
   10MOL   C314 6452   7.398   4.461   7.888  0.4295 -0.2769  0.6087
   10MOL   C315 6453   7.418   4.492   7.745 -0.3768 -0.5933  0.0408
   10MOL   O316 6454   7.366   4.602   7.703  0.3951 -0.1255  0.3553
   10MOL   C317 6455   7.498   4.391   7.662 -0.0411  0.1775  0.4126
   10MOL   C318 6456   7.610   4.324   7.725 -0.4546  0.4876 -0.0662
   10MOL   C319 6457   7.681   4.230   7.652 -0.3303 -0.3305 -0.5426
   10MOL   C320 6458   7.651   4.209   7.516 -0.8274 -1.0454  0.0126
   10MOL   O321 6459   7.726   4.114   7.443 -0.0057 -0.4328  0.2128
   10MOL   C322 6460   7.676   3.985   7.441 -0.0657 -0.6058  0.3216
   10MOL   C323 6461   7.545   3.950   7.399  0.1606  0.2217  0.0092
   10MOL   C324 6462   7.500   3.819   7.408 -0.2510 -1.0777 -0.6252
   10MOL   C325 6463   7.590   3.717   7.452 -0.5349 -0.6825  0.5015
   10MOL   C326 6464   7.716   3.751   7.497  0.3420  0.4073 -0.0919
   10MOL   C327 6465   7.760   3.885   7.491 -0.6251 -0.0627  0.6835
   10MOL   C328 6466   7.543   4.277   7.449  1.0074  0.3405  0.0546
   10MOL   C329 6467   7.470   4.376   7.523  0.2284 -0.2688 -0.0608
   10MOL   H330 6468   7.384   4.248   7.873 -1.1190 -0.5707  2.0879
   10MOL   H331 6469   7.352   4.193   8.119  1.2891 -0.4625  0.1358
   10MOL   H332 6470   7.358   4.608   8.192 -0.1490 -1.6881  1.0038
   10MOL   H333 6471   7.399   4.666   7.954 -1.7936  0.8401 -0.3195
   10MOL   H334 6472   7.650   4.362   7.818  0.7674  1.3730 -0.9467
   10MOL   H335 6473   7.765   4.173   7.688 -1.5198 -0.2847  2.4275
   10MOL   H336 6474   7.480   4.028   7.363 -0.4164  2.0223  4.6664
   10MOL   H337 6475   7.403   3.788   7.373 -0.7220  0.6193 -0.8714
   10MOL   H338 6476   7.784   3.673   7.529 -0.5395 -0.9774 -1.5022
   10MOL   H339 6477   7.860   3.907   7.527  0.2081  0.0303 -1.5854
   10MOL   H340 6478   7.519   4.263   7.344 -0.5710  2.1827  0.1457
   10MOL   H341 6479   7.391   4.436   7.479  0.8395  1.9442  1.7666
   10MOL   C342 6480   7.464   3.388   7.167 -0.2922  0.2675  0.4268
   10MOL   C343 6481   7.462   3.495   7.260  0.0052 -0.0129  0.2474
   10MOL   C344 6482   7.546   3.498   7.371  0.6916 -0.1428 -0.2112
   10MOL   O345 6483   7.544   3.595   7.466 -0.6720  0.4724 -0.0526
   10MOL   C346 6484   7.622   3.383   7.398  0.5143 -0.4092  0.1650
   10MOL   C347 6485   7.628   3.278   7.307  0.5510 -0.0629 -0.1378
   10MOL   C348 6486   7.550   3.274   7.184 -0.1482  0.9247 -0.1109
   10MOL   C349 6487   7.569   3.166   7.083  0.1455 -0.1910  0.9702
   10MOL   O350 6488   7.674   3.101   7.073 -0.0853  0.1632 -0.2192
   10MOL   C351 6489   7.452   3.145   6.990  0.0587 -0.4336  1.3061
   10MOL   C352 6490   7.483   3.155   6.850 -0.1782 -0.1022  0.4456
   10MOL   C353 6491   7.380   3.144   6.753 -0.6022  0.0702  0.5640
   10MOL   C354 6492   7.244   3.130   6.796 -1.0220  0.1666  0.1331
   10MOL   O355 6493   7.139   3.128   6.703 -0.2181  0.1027 -0.0398
   10MOL   C356 6494   7.113   3.235   6.632 -1.3400  0.4561  0.9165
   10MOL   C357 6495   7.180   3.257   6.508  0.3047 -0.3984 -0.4471
   10MOL   C358 6496   7.157   3.377   6.443  0.3558 -0.0848  0.3188
   10MOL   C359 6497   7.074   3.478   6.492 -0.1030  0.1313  0.3706
   10MOL   C360 6498   7.003   3.450   6.612 -0.1747 -0.6207 -0.2937
   10MOL   C361 6499   7.023   3.330   6.678 -0.4083 -0.5015  0.1173
   10MOL   C362 6500   7.214   3.103   6.928 -0.5977  0.0083 -0.1111
   10MOL   C363 6501   7.317   3.116   7.023  0.6176 -0.5373 -0.8194
   10MOL   H364 6502   7.415   3.400   7.071  1.5626 -1.3990 -0.7750
   10MOL   H365 6503   7.400   3.582   7.246  1.1463  1.0065  1.4064
   10MOL   H366 6504   7.701   3.374   7.471  1.1936 -1.5353 -0.6935
   10MOL   H367 6505   7.693   3.193   7.324  0.5532 -0.0923 -0.2920
   10MOL   H368 6506   7.585   3.168   6.816 -0.1544  0.8495  0.8535
   10MOL   H369 6507   7.405   3.132   6.649  0.6950 -0.7100  0.9551
   10MOL   H370 6508   7.250   3.185   6.467  1.6571  0.4335  0.3758
   10MOL   H371 6509   7.193   3.397   6.343 -2.3315 -2.1033 -1.1172
   10MOL   H372 6510   6.931   3.521   6.649 -2.0328 -2.7483  0.2612
   10MOL   H373 6511   6.962   3.315   6.766  1.3718  0.2057  1.4953
   10MOL   H374 6512   7.110   3.097   6.956 -0.2507  0.9176  1.4749
   10MOL   H375 6513   7.295   3.106   7.129 -1.1089  0.5103 -1.0630
   10MOL   C376 6514   7.131   3.908   6.611 -0.1312 -0.6083  0.0211
   10MOL   C377 6515   7.065   3.795   6.563 -0.3131  0.3300  0.0228
   10MOL   C378 6516   7.123   3.712   6.468 -0.5958  0.1454  0.2182
   10MOL   O379 6517   7.062   3.597   6.423 -0.0200 -0.2067 -0.1754
   10MOL   C380 6518   7.247   3.752   6.412 -0.2319 -0.2677  0.1375
   10MOL   C381 6519   7.320   3.852   6.470 -0.0819  0.0415  0.2681
   10MOL   C382 6520   7.264   3.930   6.567  0.0166 -0.4558 -0.3342
   10MOL   C383 6521   7.329   4.048   6.625  0.3220 -0.4035 -0.3476
   10MOL   O384 6522   7.307   4.074   6.745 -0.1249 -0.0165 -0.3520
   10MOL   C385 6523   7.418   4.128   6.549 -0.6452  0.4947  0.6590
   10MOL   C386 6524   7.525   4.182   6.619 -0.9546  0.1133  0.2622
   10MOL   C387 6525   7.618   4.265   6.552  0.0545 -0.2976 -0.0584
   10MOL   C388 6526   7.605   4.290   6.415  0.3757  0.2118 -0.1845
   10MOL   O389 6527   7.693   4.369   6.343 -0.5243 -0.1810 -0.1314
   10MOL   C390 6528   7.798   4.296   6.298  0.7457  0.4418 -0.3498
   10MOL   C391 6529   7.789   4.203   6.194 -0.3672 -0.3478 -0.1330
   10MOL   C392 6530   7.904   4.139   6.142  0.2544 -0.3425 -0.0199
   10MOL   C393 6531   8.035   4.163   6.198  0.1944  0.5062 -0.1552
   10MOL   C394 6532   8.040   4.259   6.299 -0.5486  0.0289 -0.8143
   10MOL   C395 6533   7.926   4.329   6.347  0.4619 -0.2493 -0.4160
   10MOL   C396 6534   7.493   4.237   6.354 -0.3668  0.6606 -0.3656
   10MOL   C397 6535   7.398   4.155   6.414 -0.0079  0.5509  0.2226
   10MOL   H398 6536   7.087   3.978   6.681 -1.4015  1.9116 -3.1571
   10MOL   H399 6537   6.973   3.760   6.608 -0.6721  3.3882  1.7902
   10MOL   H400 6538   7.294   3.687   6.339  1.3102  0.0338  0.8390
   10MOL   H401 6539   7.419   3.875   6.433 -0.3898  0.0562 -0.5530
   10MOL   H402 6540   7.537   4.160   6.724  1.4902 -1.0527 -0.2249
   10MOL   H403 6541   7.706   4.305   6.601 -0.9733  1.1739  0.6205
   10MOL   H404 6542   7.695   4.178   6.147  0.2272 -0.4180 -1.3132
   10MOL   H405 6543   7.897   4.078   6.053  1.8565 -1.3791  0.5359
   10MOL   H406 6544   8.136   4.285   6.343 -1.3136  1.7872 -0.1191
   10MOL   H407 6545   7.928   4.402   6.426 -1.5034 -0.4002 -0.2004
   10MOL   H408 6546   7.484   4.252   6.248  1.1698 -2.4507 -0.9980
   10MOL   H409 6547   7.324   4.101   6.357  0.4158  1.7688 -1.4953
   10MOL   C410 6548   8.137   4.028   5.797  0.1590 -0.3743  0.1487
   10MOL   C411 6549   8.138   4.106   5.913 -0.0810  0.2127 -0.2044
   10MOL   C412 6550   8.161   4.041   6.039 -0.3856 -0.5351  0.2350
   10MOL   O413 6551   8.149   4.104   6.158 -0.1752  0.3432  0.2063
   10MOL   C414 6552   8.198   3.903   6.037 -0.1265 -0.1278 -0.7943
   10MOL   C415 6553   8.209   3.835   5.922  0.0105  0.4449  1.1188
   10MOL   C416 6554   8.171   3.888   5.797 -0.8975  0.2040 -0.3723
   10MOL   C417 6555   8.192   3.801   5.670 -0.0486  0.2472  0.3859
   10MOL   O418 6556   8.279   3.719   5.657  0.4720 -0.1493 -1.0949
   10MOL   C419 6557   8.092   3.826   5.559 -0.1262  0.0804  0.2248
   10MOL   C420 6558   7.952   3.848   5.582 -0.1666  0.0043  0.7044
   10MOL   C421 6559   7.863   3.870   5.478 -0.1149  0.3070 -0.3995
   10MOL   C422 6560   7.916   3.884   5.346  0.4801  0.4628 -0.0391
   10MOL   O423 6561   7.828   3.901   5.245 -0.0702  0.1154  0.1036
   10MOL   C424 6562   7.806   4.024   5.194 -0.5685 -0.0612 -0.1189
   10MOL   C425 6563   7.717   4.028   5.088 -0.9351  0.6633 -0.3078
   10MOL   C426 6564   7.681   4.150   5.025 -0.0484 -0.5188 -0.8744
   10MOL   C427 6565   7.725   4.276   5.083  0.4792 -0.1993 -0.3434
   10MOL   C428 6566   7.818   4.268   5.186 -0.2247  0.5137 -0.1821
   10MOL   C429 6567   7.861   4.147   5.244  0.0084 -0.1810 -0.6168
   10MOL   C430 6568   8.050   3.862   5.322 -0.2276  0.5246 -0.0678
   10MOL   C431 6569   8.141   3.832   5.426 -0.0570 -0.1346 -1.1408
   10MOL   H432 6570   8.117   4.075   5.702 -1.1870 -1.9693 -0.3823
   10MOL   H433 6571   8.133   4.213   5.928  1.1691  0.0620  1.4908
   10MOL   H434 6572   8.225   3.857   6.131  0.0484 -0.4221 -0.9879
   10MOL   H435 6573   8.258   3.739   5.929  0.1965  0.3329 -1.3368
   10MOL   H436 6574   7.925   3.828   5.685  0.1743 -1.8201  0.4634
   10MOL   H437 6575   7.756   3.868   5.493 -0.0875  1.2546 -0.0816
   10MOL   H438 6576   7.663   3.939   5.060  1.1523 -0.5198 -0.6668
   10MOL   H439 6577   7.602   4.155   4.951 -0.2682  1.4496 -0.5447
   10MOL   H440 6578   7.869   4.360   5.214  0.5594  0.6286 -1.9207
   10MOL   H441 6579   7.942   4.147   5.316 -0.8971  2.2143  0.4765
   10MOL   H442 6580   8.086   3.872   5.220  2.4678 -0.3523  0.7496
   10MOL   H443 6581   8.246   3.826   5.405  0.6118  2.0740  1.2853
   10MOL   C444 6582   7.533   4.402   4.696 -0.8885  0.3305 -0.6574
   10MOL   C445 6583   7.634   4.419   4.795 -0.1681  0.2798 -0.6795
   10MOL   C446 6584   7.598   4.417   4.927 -0.5178  0.4808 -0.6345
   10MOL   O447 6585   7.692   4.404   5.029  0.1851 -0.1742  1.0934
   10MOL   C448 6586   7.463   4.421   4.967  1.1871  0.3049  0.3117
   10MOL   C449 6587   7.363   4.427   4.866 -1.0939  0.0608  0.1868
   10MOL   C450 6588   7.398   4.418   4.729 -0.6631 -0.0219  0.1190
   10MOL   C451 6589   7.295   4.430   4.622  0.0637 -0.2507 -0.4517
   10MOL   O452 6590   7.185   4.379   4.640  0.4638 -0.7056 -0.0014
   10MOL   C453 6591   7.322   4.517   4.503 -0.0958  0.5343  0.2655
   10MOL   C454 6592   7.267   4.486   4.375 -0.2216 -0.3613  0.9257
   10MOL   C455 6593   7.299   4.576   4.267  0.2710 -0.2445  0.6947
   10MOL   C456 6594   7.370   4.696   4.290 -0.1119  0.5077  1.3626
   10MOL   O457 6595   7.382   4.777   4.181 -0.1717 -0.2197 -0.2442
   10MOL   C458 6596   7.505   4.797   4.123  0.4983 -0.2290  0.8649
   10MOL   C459 6597   7.543   4.710   4.022 -0.4998  0.3744 -0.2435
   10MOL   C460 6598   7.673   4.724   3.966 -0.2812 -0.1832  0.8209
   10MOL   C461 6599   7.767   4.821   4.018  0.2424 -0.6197 -0.0016
   10MOL   C462 6600   7.721   4.911   4.114 -0.3360 -0.8419  0.6959
   10MOL   C463 6601   7.592   4.901   4.160  0.4999  0.1060 -0.7319
   10MOL   C464 6602   7.421   4.726   4.413 -0.8990 -0.2399 -0.4455
   10MOL   C465 6603   7.402   4.633   4.518 -0.2323 -0.1778 -0.1422
   10MOL   H466 6604   7.552   4.393   4.590 -2.9229 -2.3366 -0.8578
   10MOL   H467 6605   7.740   4.427   4.779 -0.5772 -0.1590 -3.8082
   10MOL   H468 6606   7.439   4.420   5.072 -1.9351 -1.4478 -0.3549
   10MOL   H469 6607   7.264   4.465   4.888  0.0778  3.7722 -0.6927
   10MOL   H470 6608   7.199   4.403   4.363  0.4960 -1.2327  2.7746
   10MOL   H471 6609   7.268   4.552   4.167  1.5411 -0.1278  0.2715
   10MOL   H472 6610   7.475   4.634   3.989 -0.7795 -0.1857  1.5940
   10MOL   H473 6611   7.696   4.660   3.882 -0.8836 -1.2540  1.4630
   10MOL   H474 6612   7.794   4.982   4.150  1.2132 -2.3576  0.5964
   10MOL   H475 6613   7.552   4.968   4.234 -3.0372 -1.4621 -1.1087
   10MOL   H476 6614   7.479   4.817   4.427 -0.8441 -0.1257 -1.3655
   10MOL   H477 6615   7.429   4.667   4.617  0.2858  2.4838 -1.1424
   10MOL   C478 6616   8.209   4.802   4.156  0.9310 -0.5570 -0.9030
   10MOL   C479 6617   8.101   4.850   4.076  0.4813  0.7103  0.0320
   10MOL   C480 6618   7.992   4.774   4.051  0.2106 -0.0251  0.8835
   10MOL   O481 6619   7.894   4.825   3.964 -0.6726 -0.4014  0.1666
   10MOL   C482 6620   7.981   4.643   4.101  0.0043  0.0295 -0.6913
   10MOL   C483 6621   8.072   4.600   4.202 -1.0469  0.2073  0.0114
   10MOL   C484 6622   8.194   4.677   4.220  0.3137  0.4849  0.0498
   10MOL   C485 6623   8.306   4.615   4.292  0.7440  0.3676 -0.4066
   10MOL   O486 6624   0.001   4.490   4.305  0.1612  0.5789  0.0407
   10MOL   C487 6625   0.100   4.704   4.341 -0.5774  0.4879  0.3248
   10MOL   C488 6626   0.235   4.675   4.303  0.1063  0.1789 -0.4018
   10MOL   C489 6627   0.346   4.745   4.362  0.8372 -0.3301  0.0738
   10MOL   C490 6628   0.313   4.863   4.433  0.2264  0.1619  0.0832
   10MOL   O491 6629   0.411   4.943   4.482  0.0033  0.1993  0.2854
   10MOL   C492 6630   0.451   4.948   4.615  0.7393 -0.5952  0.2155
   10MOL   C493 6631   0.549   5.049   4.650  0.2307 -0.3071 -0.2874
   10MOL   C494 6632   0.597   5.041   4.781  0.1887  0.2670 -0.3499
   10MOL   C495 6633   0.559   4.942   4.877 -0.9257  0.1902 -0.2997
   10MOL   C496 6634   0.453   4.856   4.839 -0.0754  0.7027 -0.4953
   10MOL   C497 6635   0.403   4.854   4.709  0.3294 -0.2370 -0.0741
   10MOL   C498 6636   0.181   4.900   4.459 -0.4214  0.7631 -0.4997
   10MOL   C499 6637   0.073   4.823   4.409 -0.2695  0.8198  0.5752
   10MOL   H500 6638   8.296   4.867   4.162 -0.8431  1.7529  0.6462
   10MOL   H501 6639   8.105   4.948   4.032  1.3006  1.4772  1.7454
   10MOL   H502 6640   7.904   4.574   4.072  1.1065 -0.9884 -1.2289
   10MOL   H503 6641   8.057   4.507   4.255 -1.4806 -0.1482 -0.7142
   10MOL   H504 6642   0.258   4.594   4.236  1.4399  0.4492 -0.2836
   10MOL   H505 6643   0.449   4.723   4.337  0.4399 -3.3600  0.9214
   10MOL   H506 6644   0.592   5.119   4.579  2.1465 -1.7562 -0.6185
   10MOL   H507 6645   0.669   5.119   4.804  0.0659  0.1701  0.3568
   10MOL   H508 6646   0.424   4.788   4.918 -0.0031  0.8771 -0.3202
   10MOL   H509 6647   0.327   4.782   4.680 -1.5957  0.4095  3.1762
   10MOL   H510 6648   0.157   4.999   4.498  1.4349  1.2658 -0.6172
   10MOL   H511 6649   8.282   4.845   4.429 -0.9903  0.2348 -2.2964
   10MOL   C512 6650   0.986   4.898   4.943  0.1529  0.3754  0.7415
   10MOL   C513 6651   0.846   4.881   4.927  0.1048 -0.0384  0.1888
   10MOL   C514 6652   0.756   4.941   5.012  0.5893 -0.3462 -0.0087
   10MOL   O515 6653   0.620   4.928   4.999 -0.0503 -0.7752  0.0596
   10MOL   C516 6654   0.806   5.029   5.110  0.7695 -0.3406  0.3291
   10MOL   C517 6655   0.943   5.050   5.134 -0.8507 -0.1436 -0.4160
   10MOL   C518 6656   1.036   4.983   5.049 -0.1256 -0.2509  0.1018
   10MOL   C519 6657   1.183   5.000   5.079 -0.0002 -0.0848  0.4798
   10MOL   O520 6658   1.242   5.105   5.066  0.2248  0.0549 -0.0143
   10MOL   C521 6659   1.252   4.876   5.129 -0.2626  0.2029  0.3000
   10MOL   C522 6660   1.194   4.805   5.234 -0.0675 -0.6144  0.9903
   10MOL   C523 6661   1.251   4.683   5.272 -0.6277 -0.0833 -0.2397
   10MOL   C524 6662   1.363   4.633   5.213 -0.3734 -0.0603  1.0192
   10MOL   O525 6663   1.406   4.505   5.242 -0.0778  0.3721 -0.2990
   10MOL   C526 6664   1.479   4.473   5.353 -0.1334  0.9598  1.1315
   10MOL   C527 6665   1.561   4.565   5.425  1.0354 -0.4421  0.6769
   10MOL   C528 6666   1.621   4.522   5.542  0.0616 -0.4599  0.5519
   10MOL   C529 6667   1.599   4.394   5.592 -0.2796  0.9645 -0.0078
   10MOL   C530 6668   1.531   4.294   5.511  0.2494 -0.0928 -0.0033
   10MOL   C531 6669   1.469   4.338   5.388  0.6241 -0.3156  0.4475
   10MOL   C532 6670   1.425   4.702   5.106 -0.4193  0.1750 -0.1705
   10MOL   C533 6671   1.371   4.826   5.068 -0.3079 -0.8349 -0.2373
   10MOL   H534 6672   1.044   4.837   4.876 -2.4615  0.0932 -1.3739
   10MOL   H535 6673   0.807   4.816   4.850 -2.0043 -0.0405  1.2216
   10MOL   H536 6674   0.731   5.077   5.172 -0.8906  0.1493 -2.0076
   10MOL   H537 6675   0.977   5.111   5.216  2.4566 -0.3653 -1.5440
   10MOL   H538 6676   1.105   4.855   5.270 -0.7151  0.0151 -1.3668
   10MOL   H539 6677   1.209   4.623   5.352  0.4219 -2.2917 -1.2973
   10MOL   H540 6678   1.575   4.665   5.386 -2.3052  0.2231  0.9848
   10MOL   H541 6679   1.677   4.597   5.596  0.0927  1.1412 -1.6406
   10MOL   H542 6680   1.506   4.191   5.535 -0.2784  0.1729  0.5942
   10MOL   H543 6681   1.409   4.266   5.335  0.5945  0.5692 -0.7268
   10MOL   H544 6682   1.513   4.663   5.057  2.2118 -0.0659  4.4141
   10MOL   H545 6683   1.413   4.874   4.981 -0.2062 -0.1770  0.1753
   10MOL   C546 6684   1.361   4.323   5.942 -0.6644  0.0511  0.7826
   10MOL   C547 6685   1.463   4.286   5.855  0.0707 -0.4952 -0.3107
   10MOL   C548 6686   1.557   4.380   5.815  0.4444  0.7736 -0.0221
   10MOL   O549 6687   1.644   4.357   5.715  0.2704  0.1217  0.3319
   10MOL   C550 6688   1.556   4.506   5.879 -0.2372 -0.2686  0.0066
   10MOL   C551 6689   1.451   4.549   5.957  0.0180  0.4856  0.6317
   10MOL   C552 6690   1.347   4.453   5.988  0.0709 -0.0586 -0.3738
   10MOL   C553 6691   1.225   4.493   6.080 -0.1032 -0.4008 -0.5423
   10MOL   O554 6692   1.240   4.570   6.177 -0.2799  0.0324  0.1621
   10MOL   C555 6693   1.092   4.431   6.032  0.0790 -0.2709 -0.4778
   10MOL   C556 6694   1.067   4.411   5.898  0.4755  0.6554 -0.4952
   10MOL   C557 6695   0.954   4.345   5.852 -0.3703 -0.0805 -0.0730
   10MOL   C558 6696   0.853   4.297   5.937 -0.8537 -0.0559  1.0035
   10MOL   O559 6697   0.739   4.228   5.896  0.2013  0.1326  0.3510
   10MOL   C560 6698   0.693   4.238   5.765 -0.3390  1.0208 -0.8683
   10MOL   C561 6699   0.689   4.123   5.681  0.0999 -0.1578 -0.2017
   10MOL   C562 6700   0.637   4.139   5.547 -0.0199 -0.3678  0.1445
   10MOL   C563 6701   0.587   4.262   5.502 -0.6153  0.0825 -0.9553
   10MOL   C564 6702   0.587   4.372   5.589 -0.3172  0.2163  0.3323
   10MOL   C565 6703   0.650   4.360   5.718  0.0875 -0.7710  0.6871
   10MOL   C566 6704   0.874   4.305   6.074 -0.0234  0.2149  0.0218
   10MOL   C567 6705   0.994   4.376   6.119 -0.2337  0.1140  0.2250
   10MOL   H568 6706   1.284   4.251   5.966 -2.9278  1.7163 -1.1854
   10MOL   H569 6707   1.482   4.188   5.813  0.0050 -0.3570 -0.6631
   10MOL   H570 6708   1.616   4.591   5.850 -0.1242 -0.3753 -0.0743
   10MOL   H571 6709   1.447   4.650   5.993 -1.7100  1.1481 -1.3096
   10MOL   H572 6710   1.134   4.443   5.819  2.2986 -0.6866  0.4749
   10MOL   H573 6711   0.947   4.348   5.744 -0.2892  1.9961 -0.0561
   10MOL   H574 6712   0.718   4.027   5.720 -1.4010 -0.5885 -0.1117
   10MOL   H575 6713   0.614   4.053   5.486 -1.3564  0.5741 -0.7020
   10MOL   H576 6714   0.559   4.465   5.542  0.5805  1.3334  1.9725
   10MOL   H577 6715   0.671   4.440   5.788  0.0399 -0.5247  0.4200
   10MOL   H578 6716   0.803   4.254   6.137 -1.3920  1.1247 -0.7623
   10MOL   H579 6717   1.011   4.383   6.226 -0.5792  0.0647  0.2817
   10MOL   C580 6718   0.682   4.505   5.133 -0.5256 -0.4534 -0.0328
   10MOL   C581 6719   0.591   4.454   5.231  0.7831  0.5002  0.0902
   10MOL   C582 6720   0.617   4.326   5.281 -0.0333 -0.3772 -0.9637
   10MOL   O583 6721   0.534   4.276   5.378 -0.3382  0.1863 -0.2583
   10MOL   C584 6722   0.724   4.250   5.233 -0.1266 -0.3322  0.0083
   10MOL   C585 6723   0.802   4.304   5.127  0.5999 -0.2150  0.7131
   10MOL   C586 6724   0.784   4.432   5.072 -0.2337  0.0317 -0.0688
   10MOL   C587 6725   0.878   4.487   4.962  0.2256  0.2970 -0.5678
   10MOL   O588 6726   0.999   4.502   4.977 -0.4659  0.0167 -0.2836
   10MOL   C589 6727   0.820   4.534   4.833  0.1452  0.0256  0.6438
   10MOL   C590 6728   0.911   4.547   4.723  0.2796 -0.0816 -0.1317
   10MOL   C591 6729   0.861   4.583   4.592 -0.4185  0.0312  0.1991
   10MOL   C592 6730   0.727   4.603   4.569 -0.1159  0.1428 -0.5376
   10MOL   O593 6731   0.684   4.631   4.441  0.2915  0.1858  0.0267
   10MOL   C594 6732   0.658   4.529   4.352 -0.0865  0.7605  0.5078
   10MOL   C595 6733   0.539   4.454   4.354  1.4385  0.3306  0.5573
   10MOL   C596 6734   0.512   4.365   4.246 -0.2487  0.0933 -0.5633
   10MOL   C597 6735   0.603   4.349   4.142  0.1350 -0.6114 -0.1638
   10MOL   C598 6736   0.723   4.423   4.141  0.0363  0.7719 -0.2181
   10MOL   C599 6737   0.745   4.516   4.241  0.2266  0.4526  0.7426
   10MOL   C600 6738   0.639   4.605   4.679 -1.0175  0.0497 -0.1326
   10MOL   C601 6739   0.685   4.569   4.811 -0.0748  0.1745  0.5872
   10MOL   H602 6740   0.681   4.608   5.103 -2.2026 -0.1496  1.0049
   10MOL   H603 6741   0.505   4.510   5.261 -0.6330 -1.4214 -0.2812
   10MOL   H604 6742   0.749   4.153   5.271 -1.7216  0.0427  2.0737
   10MOL   H605 6743   0.883   4.241   5.092  1.4004  1.9760 -1.5125
   10MOL   H606 6744   1.014   4.538   4.755  0.1586 -1.5700 -0.1319
   10MOL   H607 6745   0.923   4.596   4.504  1.3138  0.7750  1.4998
   10MOL   H608 6746   0.468   4.469   4.434 -0.5979 -2.3397 -0.6898
   10MOL   H609 6747   0.424   4.303   4.250 -1.0314  1.1449 -1.4204
   10MOL   H610 6748   0.789   4.415   4.056  1.1462  1.0306  0.6173
   10MOL   H611 6749   0.829   4.584   4.241 -0.1611  0.9395 -1.2289
   10MOL   H612 6750   0.534   4.616   4.655 -1.3206 -1.4718  0.4418
   10MOL   H613 6751   0.606   4.554   4.882  0.8616  1.4707  1.9221
   10MOL   C614 6752   0.501   4.426   3.728  1.0100 -0.0636  0.3726
   10MOL   C615 6753   0.566   4.394   3.847  0.5168  0.0208 -0.6227
   10MOL   C616 6754   0.507   4.307   3.934 -0.1117  0.0367  0.0372
   10MOL   O617 6755   0.583   4.262   4.038 -0.0227  0.3343  0.0298
   10MOL   C618 6756   0.375   4.262   3.910 -0.7192  0.6460  0.8528
   10MOL   C619 6757   0.313   4.290   3.785 -0.5317 -0.2673 -0.3981
   10MOL   C620 6758   0.380   4.370   3.691  0.2677 -1.0593  0.2121
   10MOL   C621 6759   0.308   4.385   3.560  0.4176  0.1226 -0.3287
   10MOL   O622 6760   0.185   4.375   3.550 -0.4406 -0.1254  0.2090
   10MOL   C623 6761   0.389   4.419   3.438  0.2914  0.1124  0.0932
   10MOL   C624 6762   0.516   4.361   3.412  0.7404 -0.0722 -0.1619
   10MOL   C625 6763   0.602   4.411   3.313  0.4643 -1.0967 -0.9155
   10MOL   C626 6764   0.549   4.506   3.223  0.1529  0.6939  0.4984
   10MOL   O627 6765   0.630   4.548   3.120 -0.0411 -0.5362  0.4089
   10MOL   C628 6766   0.590   4.534   2.995  0.0327 -0.3436 -0.3151
   10MOL   C629 6767   0.509   4.634   2.937 -0.5578  0.1198 -0.3866
   10MOL   C630 6768   0.459   4.622   2.809  0.3230  0.3300  0.4587
   10MOL   C631 6769   0.482   4.506   2.734 -0.1138  0.1184  0.2199
   10MOL   C632 6770   0.566   4.403   2.792  0.2361  0.8135  0.1712
   10MOL   C633 6771   0.620   4.417   2.920 -0.2201 -1.2385 -0.0463
   10MOL   C634 6772   0.426   4.561   3.241 -0.1300 -0.0047  0.2075
   10MOL   C635 6773   0.347   4.519   3.351 -0.0201 -0.1106 -0.3678
   10MOL   H636 6774   0.552   4.495   3.661  0.8349  0.5532  0.8724
   10MOL   H637 6775   0.656   4.450   3.869  1.4129 -0.6644 -2.4538
   10MOL   H638 6776   0.331   4.185   3.972 -1.7929 -0.5497 -1.3487
   10MOL   H639 6777   0.217   4.242   3.767 -0.6461 -1.0285  1.9878
   10MOL   H640 6778   0.562   4.288   3.477  0.6973  0.2572  0.2411
   10MOL   H641 6779   0.699   4.369   3.292  0.2495 -1.9388 -0.2483
   10MOL   H642 6780   0.473   4.715   2.998 -0.5097 -0.5917  0.6205
   10MOL   H643 6781   0.393   4.698   2.768 -0.3056 -0.0815  0.7089
   10MOL   H644 6782   0.580   4.305   2.750 -1.3994 -1.0351  3.8266
   10MOL   H645 6783   0.678   4.343   2.972 -1.4312 -1.1731  1.4494
   10MOL   H646 6784   0.397   4.641   3.174  2.2789 -1.4417 -2.6533
   10MOL   H647 6785   0.251   4.564   3.370  0.8791  1.1178  1.3675
   10MOL   C648 6786   0.143   4.238   2.625  0.7150  0.0862  0.2623
   10MOL   C649 6787   0.270   4.296   2.622  0.2606 -0.1621 -0.6703
   10MOL   C650 6788   0.295   4.436   2.607 -0.0204  0.0071 -0.1273
   10MOL   O651 6789   0.423   4.486   2.611 -0.6219 -0.2431 -0.0514
   10MOL   C652 6790   0.193   4.520   2.573 -0.0797 -0.5117 -0.1020
   10MOL   C653 6791   0.064   4.465   2.576 -0.2684  0.4205 -0.2392
   10MOL   C654 6792   0.033   4.332   2.611 -0.1200  0.5077 -0.5348
   10MOL   C655 6793   8.203   4.295   2.610 -0.7472 -0.1580  0.0868
   10MOL   O656 6794   8.129   4.342   2.524  0.7747 -0.3385  0.0950
   10MOL   C657 6795   8.161   4.187   2.700 -0.0566 -0.0924 -0.4671
   10MOL   C658 6796   8.212   4.170   2.829 -0.3238  0.0184 -0.1476
   10MOL   C659 6797   8.163   4.066   2.913 -0.0271 -0.0226 -0.4011
   10MOL   C660 6798   8.063   3.977   2.869  0.6033 -0.3810  0.2854
   10MOL   O661 6799   8.010   3.877   2.949  0.4042 -0.0061 -0.3233
   10MOL   C662 6800   7.934   3.926   3.057 -0.0920 -0.0394  0.2725
   10MOL   C663 6801   7.991   3.929   3.189  0.0463 -0.2194 -0.0978
   10MOL   C664 6802   7.921   3.982   3.297  0.2018 -0.2552 -0.1138
   10MOL   C665 6803   7.787   4.035   3.275  0.2798  0.0387  0.1261
   10MOL   C666 6804   7.726   4.025   3.141  0.3086  0.4792 -0.0490
   10MOL   C667 6805   7.804   3.978   3.035 -0.2764  0.0375 -0.2286
   10MOL   C668 6806   8.018   3.990   2.731  1.0206 -1.2624 -0.1883
   10MOL   C669 6807   8.068   4.091   2.644 -0.4174 -0.4848  1.1003
   10MOL   H670 6808   0.122   4.133   2.637 -0.2509  0.1742 -0.6076
   10MOL   H671 6809   0.347   4.237   2.668 -1.1962 -1.3816  0.2343
   10MOL   H672 6810   0.211   4.625   2.559 -1.0138 -0.3576 -0.1950
   10MOL   H673 6811   8.300   4.538   2.555 -2.0602 -1.3748  0.0103
   10MOL   H674 6812   8.278   4.241   2.877  1.6795 -1.7594 -0.2104
   10MOL   H675 6813   8.209   4.062   3.011 -0.3997 -0.1810 -0.2309
   10MOL   H676 6814   8.086   3.880   3.206 -0.5139 -0.0601  3.7681
   10MOL   H677 6815   7.959   3.978   3.397  2.1121  0.8858 -0.7721
   10MOL   H678 6816   7.625   4.053   3.115  1.7015  3.6168 -2.3902
   10MOL   H679 6817   7.763   3.977   2.935  0.5948 -2.2967 -0.6133
   10MOL   H680 6818   7.940   3.931   2.685  1.9154 -1.3012 -1.6923
   10MOL   H681 6819   8.034   4.106   2.543  0.8655  3.2454  1.1553
   10MOL   H682 6820   7.724   4.074   3.353  1.0791 -2.8808  2.3429
   11MOL     C1 6821   7.397   5.183   3.507 -0.0916 -0.0909 -0.4584
   11MOL     C2 6822   7.325   5.131   3.618 -0.0638  0.0671  0.0721
   11MOL     C3 6823   7.239   5.209   3.700  0.0190  0.1643 -0.0447
   11MOL     O4 6824   7.184   5.152   3.812 -0.4897 -0.2612  0.1690
   11MOL     C5 6825   7.235   5.347   3.677  0.0937 -0.2239  0.3090
   11MOL     C6 6826   7.294   5.404   3.562 -0.1781  1.0086  0.0533
   11MOL     C7 6827   7.378   5.323   3.478  0.0898 -0.1335 -0.4716
   11MOL     C8 6828   7.460   5.387   3.370 -0.1100  0.1141  0.4183
   11MOL     O9 6829   7.581   5.370   3.366 -0.6525 -0.2471  0.0046
   11MOL    C10 6830   7.395   5.459   3.253 -0.1241  0.3318  0.1148
   11MOL    C11 6831   7.275   5.414   3.198 -0.1711  0.2279  0.2576
   11MOL    C12 6832   7.209   5.485   3.098 -0.3679 -0.1916  0.0651
   11MOL    C13 6833   7.264   5.605   3.050 -0.5570  0.5661 -0.6139
   11MOL    O14 6834   7.207   5.682   2.952 -0.2280 -0.4407  1.1102
   11MOL    C15 6835   7.185   5.818   2.970  0.2313 -0.2951 -0.4348
   11MOL    C16 6836   7.158   5.875   3.099 -0.2854 -0.3737 -0.3490
   11MOL    C17 6837   7.137   6.010   3.112  0.4287  0.4055 -0.9199
   11MOL    C18 6838   7.139   6.093   2.998  0.4287  0.3356  0.5342
   11MOL    C19 6839   7.170   6.034   2.874  0.2817 -0.2721  0.6920
   11MOL    C20 6840   7.198   5.900   2.860 -0.5590 -0.3455 -0.1966
   11MOL    C21 6841   7.381   5.649   3.109  0.1249 -0.1446  0.8697
   11MOL    C22 6842   7.451   5.579   3.206 -0.1009 -0.3913  0.5749
   11MOL    H23 6843   7.448   5.118   3.437  1.1759 -0.0004  0.3535
   11MOL    H24 6844   7.324   5.026   3.645 -1.1823  0.1824  0.4923
   11MOL    H25 6845   7.178   5.413   3.740 -1.8501  0.0859 -1.7211
   11MOL    H26 6846   7.290   5.511   3.552 -1.3806  1.0022  0.3951
   11MOL    H27 6847   7.223   5.329   3.238 -0.2381  0.0808 -0.1349
   11MOL    H28 6848   7.115   5.447   3.062 -0.7581  0.0514  0.8270
   11MOL    H29 6849   7.154   5.816   3.189  2.2014  0.0138  0.0577
   11MOL    H30 6850   7.103   6.052   3.206  0.0260  2.5778 -2.0108
   11MOL    H31 6851   7.183   6.095   2.786 -2.1907  1.7180  1.6314
   11MOL    H32 6852   7.235   5.852   2.771 -2.9151 -1.2560 -0.7193
   11MOL    H33 6853   7.415   5.746   3.075 -2.8372  0.3616 -0.8652
   11MOL    H34 6854   7.547   5.618   3.237  0.1609 -0.3406 -0.2874
   11MOL    H35 6855   7.217   5.073   3.852 -0.4583  0.0260  0.7152
   11MOL    C36 6856   7.417   6.405   3.017  0.2280 -0.1611 -0.5270
   11MOL    C37 6857   7.313   6.327   3.058  0.2832  0.2461  0.0534
   11MOL    C38 6858   7.204   6.306   2.973 -0.4524  0.0108  0.0704
   11MOL    O39 6859   7.105   6.222   3.009  0.2162 -0.0392  0.2579
   11MOL    C40 6860   7.203   6.373   2.846 -0.0212  0.2525 -0.5891
   11MOL    C41 6861   7.313   6.450   2.805 -0.1949  0.6185  0.2800
   11MOL    C42 6862   7.426   6.460   2.888  0.4721 -0.2976  0.2799
   11MOL    C43 6863   7.552   6.534   2.841 -0.0162 -0.5025  0.2647
   11MOL    O44 6864   7.639   6.551   2.924  0.3323 -0.9382 -0.2462
   11MOL    C45 6865   7.570   6.552   2.696  0.3329 -0.5774  0.1335
   11MOL    C46 6866   7.561   6.447   2.604  0.2505  0.0073  0.2697
   11MOL    C47 6867   7.578   6.471   2.466 -0.5070  0.1563 -0.4140
   11MOL    C48 6868   7.608   6.601   2.424  0.4016 -0.5167 -0.6162
   11MOL    O49 6869   7.633   6.637   2.294 -0.1869  0.4330  0.1217
   11MOL    C50 6870   7.554   6.577   2.202 -0.2510 -0.0364  0.0855
   11MOL    C51 6871   7.601   6.465   2.130  0.7368 -0.4310  0.8865
   11MOL    C52 6872   7.525   6.421   2.016  0.4795 -0.1080  1.0744
   11MOL    C53 6873   7.399   6.480   1.989 -0.0322  0.3771 -0.1016
   11MOL    C54 6874   7.355   6.598   2.057 -0.0746 -0.0155 -1.5994
   11MOL    C55 6875   7.438   6.641   2.163 -0.3449  0.2352 -0.2313
   11MOL    C56 6876   7.612   6.707   2.515  0.7562 -0.7457  0.2459
   11MOL    C57 6877   7.597   6.682   2.653  0.4917 -0.0025  0.2789
   11MOL    H58 6878   7.505   6.407   3.080 -0.0901 -0.7084 -0.0679
   11MOL    H59 6879   7.307   6.286   3.157  2.7947 -3.2970 -1.1605
   11MOL    H60 6880   7.119   6.368   2.779 -2.5280 -0.9186  2.4646
   11MOL    H61 6881   7.310   6.504   2.712 -0.0901 -1.4156 -0.9254
   11MOL    H62 6882   7.551   6.344   2.632 -0.4828  0.1315  0.4839
   11MOL    H63 6883   7.599   6.389   2.399  1.4885 -0.2010  0.5869
   11MOL    H64 6884   7.697   6.418   2.149 -0.2109 -2.7397  0.1493
   11MOL    H65 6885   7.560   6.335   1.961  1.9008  2.7495 -2.6595
   11MOL    H66 6886   7.270   6.659   2.032  0.7936  1.0621 -1.9648
   11MOL    H67 6887   7.416   6.733   2.214 -0.2698  0.2865 -0.2933
   11MOL    H68 6888   7.625   6.811   2.486 -1.2327 -0.3797  0.6011
   11MOL    H69 6889   7.590   6.769   2.716  1.9940 -0.2768  0.8471
   11MOL    C70 6890   7.005   6.484   1.718 -0.0971  0.2173  0.0501
   11MOL    C71 6891   7.142   6.461   1.748  0.4005  0.1150 -0.4634
   11MOL    C72 6892   7.188   6.443   1.880  0.0103 -0.0285 -0.0625
   11MOL    O73 6893   7.321   6.417   1.892 -0.2636  0.6600  0.5428
   11MOL    C74 6894   7.094   6.437   1.983  0.4364  0.3427 -0.1604
   11MOL    C75 6895   6.957   6.455   1.960 -0.8639  0.3476 -0.6555
   11MOL    C76 6896   6.912   6.476   1.824  0.9779  0.7741  0.6208
   11MOL    C77 6897   6.769   6.504   1.796  0.1240  0.0433  0.0852
   11MOL    O78 6898   6.715   6.602   1.843 -0.4391 -0.1939 -0.5330
   11MOL    C79 6899   6.694   6.410   1.706  0.6318  0.1903 -0.2201
   11MOL    C80 6900   6.559   6.438   1.669  0.1120  0.6257 -0.5123
   11MOL    C81 6901   6.490   6.352   1.587 -0.6091 -1.0538  0.2532
   11MOL    C82 6902   6.548   6.234   1.544  0.0367  0.2266  0.7187
   11MOL    O83 6903   6.471   6.148   1.470  0.2563 -0.3388 -0.4644
   11MOL    C84 6904   6.491   6.016   1.489 -0.7936 -0.2181  0.9449
   11MOL    C85 6905   6.576   5.948   1.400 -0.3485  0.7520  0.8152
   11MOL    C86 6906   6.610   5.817   1.420 -0.3083 -0.2467  0.2963
   11MOL    C87 6907   6.545   5.738   1.524 -0.0500  0.4060  1.2633
   11MOL    C88 6908   6.453   5.802   1.610 -0.3068  0.0981 -0.0182
   11MOL    C89 6909   6.416   5.939   1.581 -0.2213 -0.1529 -0.3834
   11MOL    C90 6910   6.670   6.193   1.588 -0.4705  0.9069  0.0519
   11MOL    C91 6911   6.750   6.283   1.671  0.1630 -0.7219 -0.5437
   11MOL    H92 6912   6.973   6.500   1.616  0.8268 -0.3334 -0.3316
   11MOL    H93 6913   7.210   6.457   1.664 -1.1397 -1.8353 -1.6492
   11MOL    H94 6914   7.136   6.432   2.082  1.1543  1.1194 -0.4168
   11MOL    H95 6915   6.899   6.466   2.051  1.8766 -1.0108  1.3261
   11MOL    H96 6916   6.517   6.537   1.683  0.5095  0.8449 -0.8492
   11MOL    H97 6917   6.405   6.396   1.537  1.0881  1.7372 -0.3028
   11MOL    H98 6918   6.622   5.999   1.316 -1.4833 -1.2520 -1.0815
   11MOL    H99 6919   6.683   5.771   1.355  1.3718  1.6585  0.7938
   11MOL   H100 6920   6.395   5.751   1.684 -1.4685 -1.1576 -1.7628
   11MOL   H101 6921   6.327   5.983   1.623 -1.1577 -1.6645 -0.7742
   11MOL   H102 6922   6.713   6.097   1.565 -0.9953  0.9268 -1.0385
   11MOL   H103 6923   6.850   6.251   1.695  0.6864  0.0220 -1.7384
   11MOL   C104 6924   6.837   5.585   1.808 -0.6566 -0.5108 -0.0011
   11MOL   C105 6925   6.708   5.600   1.745 -0.2967 -0.1114  0.0219
   11MOL   C106 6926   6.695   5.570   1.609  0.7965 -0.2105 -0.5528
   11MOL   O107 6927   6.578   5.606   1.544 -0.5252  0.3418  0.0396
   11MOL   C108 6928   6.802   5.508   1.540 -0.3798  0.3067  0.6234
   11MOL   C109 6929   6.929   5.493   1.602  0.3930 -0.2527 -0.1911
   11MOL   C110 6930   6.954   5.534   1.732 -0.1835 -0.6141 -0.5384
   11MOL   C111 6931   7.095   5.521   1.793  0.4985  1.3866 -0.2760
   11MOL   O112 6932   7.177   5.445   1.746  0.3865  0.2917  0.0590
   11MOL   C113 6933   7.132   5.601   1.921  0.2897  0.4191 -0.4607
   11MOL   C114 6934   7.198   5.536   2.028 -0.2367 -0.2428  0.8182
   11MOL   C115 6935   7.231   5.603   2.150  0.4819  0.4810  0.1197
   11MOL   C116 6936   7.191   5.740   2.162 -0.6597  0.9855  0.0695
   11MOL   O117 6937   7.215   5.799   2.276 -0.4660  0.4379  0.2568
   11MOL   C118 6938   7.106   5.820   2.362  0.0010  0.6773 -0.0554
   11MOL   C119 6939   7.086   5.731   2.467  0.0255  0.3079 -0.5463
   11MOL   C120 6940   6.978   5.749   2.554 -0.8874 -0.6188  0.3242
   11MOL   C121 6941   6.888   5.859   2.530 -0.2982 -0.2013 -0.5519
   11MOL   C122 6942   6.917   5.954   2.432  0.1519  0.1927 -0.1234
   11MOL   C123 6943   7.026   5.933   2.342  0.0102 -0.5869 -0.6467
   11MOL   C124 6944   7.130   5.809   2.053  0.7349 -0.0962  0.4111
   11MOL   C125 6945   7.096   5.738   1.938 -0.9652 -0.3114 -0.0956
   11MOL   H126 6946   6.844   5.615   1.912  1.8539  0.7501 -0.5051
   11MOL   H127 6947   6.622   5.632   1.803 -0.4021 -1.0452  0.3915
   11MOL   H128 6948   6.792   5.477   1.437  3.4439  0.3841  0.1289
   11MOL   H129 6949   7.009   5.454   1.541 -0.6588 -0.1815 -1.6450
   11MOL   H130 6950   7.223   5.431   2.023 -0.9927 -0.4580  1.3842
   11MOL   H131 6951   7.272   5.556   2.238 -0.8073 -0.4694  0.2322
   11MOL   H132 6952   7.148   5.643   2.473  0.7100  0.8349  0.2801
   11MOL   H133 6953   6.960   5.670   2.626 -1.6541 -0.8148 -0.0835
   11MOL   H134 6954   6.854   6.041   2.421 -0.0196  0.3435  1.7730
   11MOL   H135 6955   7.046   6.001   2.261  0.8060 -1.1954 -0.9672
   11MOL   H136 6956   7.100   5.912   2.065 -2.6355 -0.9280 -0.3602
   11MOL   H137 6957   7.044   5.782   1.854 -0.2048  0.0835 -0.3627
   11MOL   C138 6958   6.843   5.751   2.950  0.9481 -0.2912 -0.3677
   11MOL   C139 6959   6.860   5.823   2.832  0.3799 -0.3380 -0.4822
   11MOL   C140 6960   6.760   5.821   2.733  0.2371 -0.2619 -0.7911
   11MOL   O141 6961   6.776   5.887   2.616 -0.7980 -0.2974 -0.1311
   11MOL   C142 6962   6.643   5.745   2.752  0.8996 -0.4990 -0.1426
   11MOL   C143 6963   6.623   5.682   2.876 -0.1409 -0.4238 -0.0057
   11MOL   C144 6964   6.727   5.677   2.973 -0.0686  0.2931  0.5901
   11MOL   C145 6965   6.719   5.609   3.104 -0.2641  1.2805 -0.4826
   11MOL   O146 6966   6.823   5.592   3.172  0.4782 -0.5745 -0.2102
   11MOL   C147 6967   6.581   5.572   3.160 -0.1551  0.2676 -0.4869
   11MOL   C148 6968   6.562   5.616   3.296 -0.1738 -0.3301  0.0034
   11MOL   C149 6969   6.447   5.569   3.358 -0.1152  0.1867 -0.2738
   11MOL   C150 6970   6.355   5.487   3.288 -0.8816  0.1685  0.2751
   11MOL   O151 6971   6.250   5.440   3.359  0.6097  0.3413  0.0917
   11MOL   C152 6972   6.132   5.505   3.344  0.4909 -0.2157  0.0496
   11MOL   C153 6973   6.043   5.460   3.245  0.3642  0.1722 -0.2163
   11MOL   C154 6974   5.911   5.517   3.226 -0.3232 -0.3276  0.4445
   11MOL   C155 6975   5.874   5.629   3.304 -0.3594  0.1404  0.1557
   11MOL   C156 6976   5.963   5.671   3.407  0.3352  0.4023  0.0404
   11MOL   C157 6977   6.088   5.605   3.431 -0.3424 -0.3075  0.2825
   11MOL   C158 6978   6.383   5.445   3.159 -0.3032  0.0869 -0.3412
   11MOL   C159 6979   6.500   5.481   3.092  0.4490  0.1840 -0.2950
   11MOL   H160 6980   6.926   5.744   3.019  0.1257 -0.3886  0.6133
   11MOL   H161 6981   6.954   5.876   2.822  0.4493  0.1123  2.2951
   11MOL   H162 6982   6.570   5.753   2.673  0.2127  2.2047  0.7302
   11MOL   H163 6983   6.529   5.632   2.897  0.7323 -1.2547  1.9886
   11MOL   H164 6984   6.636   5.673   3.351 -0.7005 -0.8213  1.2465
   11MOL   H165 6985   6.422   5.594   3.460  0.2490 -2.5901  0.5346
   11MOL   H166 6986   6.077   5.381   3.181  0.4929  1.2023 -1.4496
   11MOL   H167 6987   5.846   5.480   3.148  1.1635  3.4827 -2.7913
   11MOL   H168 6988   5.933   5.749   3.477 -0.0944  0.5265 -0.2860
   11MOL   H169 6989   6.153   5.619   3.516  0.1605 -1.0059  0.0123
   11MOL   H170 6990   6.314   5.378   3.110 -0.2334  0.7856 -1.3907
   11MOL   H171 6991   6.533   5.430   3.003 -0.3992 -0.7391 -0.0915
   11MOL   C172 6992   5.769   6.041   3.179 -1.1094  0.0973  0.8405
   11MOL   C173 6993   5.767   5.930   3.264 -0.0587  0.1416 -0.4835
   11MOL   C174 6994   5.762   5.801   3.201 -0.4482 -0.1182  0.3182
   11MOL   O175 6995   5.756   5.689   3.277 -1.0384  0.6075 -0.5161
   11MOL   C176 6996   5.755   5.790   3.063  0.3621 -0.4532 -0.6193
   11MOL   C177 6997   5.767   5.896   2.974  0.5582  0.1181 -0.1605
   11MOL   C178 6998   5.774   6.026   3.033  0.3062 -0.4420  0.2324
   11MOL   C179 6999   5.787   6.151   2.946  0.4958  0.0258 -0.6262
   11MOL   O180 7000   5.703   6.235   2.957  0.6968 -0.0452  0.0188
   11MOL   C181 7001   5.876   6.151   2.838 -0.3040  0.4873 -0.0177
   11MOL   C182 7002   5.838   6.171   2.704 -0.4904 -0.5021  0.1052
   11MOL   C183 7003   5.936   6.171   2.600  0.1591 -0.3227 -0.3983
   11MOL   C184 7004   6.074   6.166   2.630  0.8620 -0.1897  0.2620
   11MOL   O185 7005   6.160   6.183   2.527  0.2215  0.9162 -0.0603
   11MOL   C186 7006   6.290   6.218   2.552  0.9620 -0.1369  0.5033
   11MOL   C187 7007   6.384   6.119   2.580 -0.1116 -0.4130 -0.4603
   11MOL   C188 7008   6.518   6.155   2.603 -0.1450  0.1974  0.4575
   11MOL   C189 7009   6.559   6.289   2.617 -0.3458 -0.1156  0.6684
   11MOL   C190 7010   6.466   6.388   2.574  0.0407 -0.1077  0.0498
   11MOL   C191 7011   6.337   6.350   2.536  0.6147 -0.5460  0.4694
   11MOL   C192 7012   6.113   6.149   2.761  0.5599  0.1927 -0.1919
   11MOL   C193 7013   6.022   6.141   2.863  0.3064 -0.3302  0.2418
   11MOL   H194 7014   5.778   6.136   3.230 -1.3586  0.0283  1.0163
   11MOL   H195 7015   5.769   5.942   3.371 -1.6523  1.4296 -0.5841
   11MOL   H196 7016   5.749   5.691   3.019 -2.5146 -0.7458  0.3439
   11MOL   H197 7017   5.768   5.887   2.867 -0.7745  1.7063 -0.3350
   11MOL   H198 7018   5.733   6.161   2.685 -0.1076 -2.4148 -1.1679
   11MOL   H199 7019   5.909   6.206   2.501 -0.5539 -0.4456 -0.2517
   11MOL   H200 7020   6.353   6.015   2.580  0.4159 -0.5759  0.4483
   11MOL   H201 7021   6.592   6.078   2.620  0.5868  0.4854 -1.3793
   11MOL   H202 7022   6.483   6.492   2.596  0.7501  0.1034 -1.4760
   11MOL   H203 7023   6.269   6.425   2.499  0.1902 -1.2439 -0.1966
   11MOL   H204 7024   6.217   6.154   2.787  0.5709  1.7784 -0.4813
   11MOL   H205 7025   6.062   6.147   2.963  3.2919 -1.1209 -0.8353
   11MOL   C206 7026   6.803   6.142   2.965  0.0527  0.4504  0.1828
   11MOL   C207 7027   6.801   6.201   2.836 -0.4595  0.0860 -0.8224
   11MOL   C208 7028   6.696   6.289   2.801 -0.1415  0.3762 -0.0153
   11MOL   O209 7029   6.680   6.334   2.676 -0.0065 -0.8333 -0.2599
   11MOL   C210 7030   6.594   6.317   2.894  0.5149 -0.2495 -0.7159
   11MOL   C211 7031   6.591   6.253   3.019 -0.0624 -0.3228 -0.4048
   11MOL   C212 7032   6.697   6.171   3.058 -0.0745 -0.5002 -0.2380
   11MOL   C213 7033   6.699   6.112   3.195 -0.7847  0.1402  0.0062
   11MOL   O214 7034   6.602   6.038   3.226 -0.3527 -0.0431  0.2704
   11MOL   C215 7035   6.813   6.146   3.289  0.3782  0.2517  0.5590
   11MOL   C216 7036   6.834   6.064   3.403  0.4758  0.6160  0.1948
   11MOL   C217 7037   6.960   6.077   3.469  0.4952 -0.4581 -0.1800
   11MOL   C218 7038   7.040   6.192   3.447  0.1660  0.4576 -0.6055
   11MOL   O219 7039   7.158   6.215   3.517 -0.3231  0.6624  0.0960
   11MOL   C220 7040   7.265   6.155   3.470 -0.4854 -0.8571  0.2561
   11MOL   C221 7041   7.365   6.231   3.413 -0.5441  0.3598  0.6996
   11MOL   C222 7042   7.490   6.175   3.373 -0.5248  0.7207  1.0569
   11MOL   C223 7043   7.510   6.036   3.392  0.3531 -0.2590 -0.1574
   11MOL   C224 7044   7.403   5.961   3.445 -0.5570  1.1516 -0.7083
   11MOL   C225 7045   7.280   6.018   3.486 -0.0129 -0.6270  0.2930
   11MOL   C226 7046   7.017   6.274   3.335 -0.2869  0.5488 -0.5296
   11MOL   C227 7047   6.898   6.254   3.265  0.2831 -0.7290  0.1276
   11MOL   H228 7048   6.888   6.081   2.992  0.3844  0.7535 -0.1702
   11MOL   H229 7049   6.865   6.166   2.756 -1.3855 -0.4803 -1.3248
   11MOL   H230 7050   6.533   6.403   2.872 -0.4875 -0.2341  1.9381
   11MOL   H231 7051   6.511   6.278   3.088  0.4061  0.2357 -0.0521
   11MOL   H232 7052   6.772   5.977   3.416  0.9506  0.2365 -0.0856
   11MOL   H233 7053   6.985   6.020   3.558  0.0957  0.3284  0.4511
   11MOL   H234 7054   7.345   6.335   3.390 -3.4372  0.0990  1.7736
   11MOL   H235 7055   7.569   6.240   3.338  0.5831 -0.6370  1.0133
   11MOL   H236 7056   7.426   5.856   3.450  2.1422  1.7863  1.0032
   11MOL   H237 7057   7.195   5.960   3.521  0.0738 -1.5644 -1.0011
   11MOL   H238 7058   7.084   6.358   3.323 -1.8319  1.5835 -2.0848
   11MOL   H239 7059   6.875   6.312   3.177 -1.8533  0.7946  1.6356
   11MOL   C240 7060   7.847   6.075   3.635 -0.1046  0.7838  0.2122
   11MOL   C241 7061   7.733   6.020   3.567 -1.0314 -0.0328  0.3015
   11MOL   C242 7062   7.733   6.025   3.428  0.0114 -0.1418 -0.3907
   11MOL   O243 7063   7.628   5.974   3.358  0.6288  0.9748  0.1096
   11MOL   C244 7064   7.839   6.082   3.357 -0.2100 -0.2966  0.1240
   11MOL   C245 7065   7.941   6.147   3.426 -0.0461 -0.1464  0.1507
   11MOL   C246 7066   7.952   6.145   3.566 -0.3148  0.5838  0.0998
   11MOL   C247 7067   8.067   6.198   3.628  0.2329  0.2076 -0.1545
   11MOL   O248 7068   8.095   6.318   3.621  0.1814  0.3084 -0.2402
   11MOL   C249 7069   8.148   6.101   3.699  0.1018 -0.1543  0.0363
   11MOL   C250 7070   8.161   5.971   3.651  0.2171  0.2802 -0.4315
   11MOL   C251 7071   8.227   5.865   3.719 -0.0328  0.2023  0.8272
   11MOL   C252 7072   8.287   5.893   3.840 -0.1699  0.2712  0.0474
   11MOL   O253 7073   0.017   5.787   3.913 -0.3827 -0.3135 -0.1252
   11MOL   C254 7074   0.139   5.799   3.973  0.4008  0.5468  0.8327
   11MOL   C255 7075   0.263   5.810   3.908  0.2676  0.0243  0.2476
   11MOL   C256 7076   0.379   5.821   3.986 -0.0520  0.0200 -0.3085
   11MOL   C257 7077   0.376   5.818   4.127  0.4475 -0.1442 -0.3786
   11MOL   C258 7078   0.257   5.798   4.196 -0.1066 -0.3001  0.4176
   11MOL   C259 7079   0.138   5.793   4.114 -0.0808  0.5143 -0.0725
   11MOL   C260 7080   8.264   6.021   3.897 -0.0613 -0.1201  0.2478
   11MOL   C261 7081   8.203   6.126   3.830  0.4627 -0.5955  0.6128
   11MOL   H262 7082   7.840   6.063   3.742 -0.5503 -0.3034  0.0655
   11MOL   H263 7083   7.657   5.966   3.623 -0.6574  0.1498  0.9956
   11MOL   H264 7084   7.835   6.088   3.249 -1.3739  2.3341  0.2774
   11MOL   H265 7085   8.022   6.190   3.370  2.1181 -2.0755  1.6828
   11MOL   H266 7086   8.113   5.957   3.555 -4.1387  2.6829  1.2210
   11MOL   H267 7087   8.228   5.762   3.684 -0.2815 -0.4272  2.6198
   11MOL   H268 7088   0.274   5.816   3.801  1.4050  2.2015  0.4498
   11MOL   H269 7089   0.469   5.843   3.931 -0.1709 -1.3421 -1.0823
   11MOL   H270 7090   0.250   5.785   4.302 -0.9439 -0.4875  0.3423
   11MOL   H271 7091   0.043   5.783   4.164 -0.4242  0.9893 -0.6132
   11MOL   H272 7092   8.305   6.045   3.994  0.2102  1.1009 -0.1581
   11MOL   H273 7093   8.195   6.227   3.866 -1.2179 -0.9384  1.2541
   11MOL   C274 7094   0.477   6.149   4.392  0.3968  0.1951  0.3885
   11MOL   C275 7095   0.458   6.058   4.283 -0.5630 -0.3720 -0.1442
   11MOL   C276 7096   0.512   5.926   4.291 -0.4231  0.0705 -0.4431
   11MOL   O277 7097   0.493   5.840   4.190 -0.4852 -0.2287 -0.4832
   11MOL   C278 7098   0.596   5.897   4.396 -0.7138  0.1881 -0.9571
   11MOL   C279 7099   0.622   5.990   4.504  0.5268  0.5463 -0.3748
   11MOL   C280 7100   0.549   6.111   4.503  0.1861  0.2287  0.1901
   11MOL   C281 7101   0.561   6.207   4.613 -0.9284 -0.0764 -0.3297
   11MOL   O282 7102   0.471   6.282   4.641 -0.3752  0.4201 -0.1856
   11MOL   C283 7103   0.680   6.195   4.706 -0.6603  0.3402  0.4296
   11MOL   C284 7104   0.808   6.182   4.655  0.1610  0.4338  0.1080
   11MOL   C285 7105   0.915   6.162   4.743  0.3560 -0.6979  0.2511
   11MOL   C286 7106   0.897   6.164   4.885 -0.1864 -1.2185  0.5843
   11MOL   O287 7107   1.008   6.158   4.961 -0.5968  0.3858 -0.0045
   11MOL   C288 7108   1.110   6.240   4.929 -0.1206 -0.2032 -0.2780
   11MOL   C289 7109   1.093   6.377   4.925  0.5873  0.2318  0.3113
   11MOL   C290 7110   1.198   6.467   4.900  0.3123  0.6076 -0.2060
   11MOL   C291 7111   1.321   6.413   4.865 -0.2125 -0.8421  0.5261
   11MOL   C292 7112   1.339   6.276   4.864 -0.4750  0.6705 -0.4903
   11MOL   C293 7113   1.239   6.186   4.905 -0.2057  0.0285  0.0090
   11MOL   C294 7114   0.766   6.173   4.938  0.0947  0.1755  0.1947
   11MOL   C295 7115   0.665   6.191   4.845 -0.0716  0.7463 -0.6400
   11MOL   H296 7116   0.421   6.241   4.386  0.9897  0.6465  1.6124
   11MOL   H297 7117   0.393   6.092   4.204  0.6429 -1.0095 -1.4345
   11MOL   H298 7118   0.646   5.801   4.403  0.8444  0.9875 -0.7667
   11MOL   H299 7119   0.696   5.962   4.578 -0.1442 -0.9939 -0.2707
   11MOL   H300 7120   0.825   6.194   4.549  2.4034  1.2149  0.5369
   11MOL   H301 7121   1.010   6.150   4.693 -0.1798 -0.9911 -0.6852
   11MOL   H302 7122   0.999   6.423   4.951 -0.1315 -0.2560 -1.3469
   11MOL   H303 7123   1.190   6.575   4.893 -0.7525  0.5206 -0.3161
   11MOL   H304 7124   1.428   6.229   4.827 -0.6111  0.0570 -0.0514
   11MOL   H305 7125   1.262   6.081   4.892 -0.2211  0.1389 -0.9868
   11MOL   H306 7126   0.733   6.169   5.041  2.2236  0.8615  0.9420
   11MOL   H307 7127   0.564   6.196   4.883  0.2002  1.3535  0.0135
   11MOL   C308 7128   1.566   6.565   4.490  0.3764 -1.1055 -0.1546
   11MOL   C309 7129   1.544   6.522   4.622  0.6448 -0.0394  0.5253
   11MOL   C310 7130   1.421   6.530   4.686 -0.1542 -0.1521 -0.5188
   11MOL   O311 7131   1.420   6.496   4.822 -0.3576 -0.2373 -0.2100
   11MOL   C312 7132   1.311   6.585   4.618 -0.0005 -0.1645  0.4971
   11MOL   C313 7133   1.326   6.629   4.483  0.1655  0.3044  0.6194
   11MOL   C314 7134   1.450   6.612   4.417  0.3371 -0.6753 -1.3064
   11MOL   C315 7135   1.456   6.655   4.279 -0.0477 -0.2060 -1.0366
   11MOL   O316 7136   1.355   6.706   4.229 -0.1091 -0.2340 -0.1717
   11MOL   C317 7137   1.580   6.641   4.209  0.4168  0.7696 -0.2418
   11MOL   C318 7138   1.608   6.529   4.121 -0.4274  0.3281  0.5474
   11MOL   C319 7139   1.733   6.521   4.062 -0.6375 -0.5291  0.0227
   11MOL   C320 7140   1.831   6.618   4.098  0.5310  0.1051 -0.5422
   11MOL   O321 7141   1.953   6.613   4.043  0.1284  0.5277 -0.0060
   11MOL   C322 7142   2.028   6.499   4.071  0.0755 -0.0043  0.2920
   11MOL   C323 7143   2.072   6.429   3.958  0.6016  0.0522 -0.2258
   11MOL   C324 7144   2.157   6.317   3.973 -0.6264  0.6101 -0.3068
   11MOL   C325 7145   2.188   6.266   4.103  0.1026  0.4317 -0.2889
   11MOL   C326 7146   2.143   6.339   4.210 -0.0160 -1.0948  0.8644
   11MOL   C327 7147   2.068   6.459   4.199  0.1828  0.0847 -0.1636
   11MOL   C328 7148   1.795   6.732   4.168 -0.8631  0.7424 -0.4140
   11MOL   C329 7149   1.672   6.743   4.227 -0.8894  0.3750  0.1626
   11MOL   H330 7150   1.666   6.573   4.450  0.9760  4.1821  2.0158
   11MOL   H331 7151   1.624   6.478   4.680  2.0928 -1.2003 -2.2604
   11MOL   H332 7152   1.219   6.596   4.674  0.0993 -0.6187  0.7491
   11MOL   H333 7153   1.241   6.673   4.433  0.0164 -0.3213  0.3209
   11MOL   H334 7154   1.535   6.454   4.096 -0.3793  0.6302 -0.5194
   11MOL   H335 7155   1.761   6.446   3.989  1.2593 -1.2881  1.4622
   11MOL   H336 7156   2.051   6.472   3.861  0.6573 -1.6778 -1.0099
   11MOL   H337 7157   2.206   6.267   3.890  3.0167  0.5903  1.7811
   11MOL   H338 7158   2.158   6.310   4.313 -2.5307 -3.2702  0.6667
   11MOL   H339 7159   2.028   6.501   4.290  0.2183  0.5791 -0.3759
   11MOL   H340 7160   1.855   6.820   4.185 -1.1933  0.8169  0.4418
   11MOL   H341 7161   1.650   6.835   4.279 -0.5200 -0.8967  2.6582
   11MOL   C342 7162   2.485   6.145   4.388 -0.0032  0.0818 -0.2276
   11MOL   C343 7163   2.415   6.197   4.272 -0.6953  0.0773  0.9815
   11MOL   C344 7164   2.315   6.111   4.217 -0.2086 -0.5388  0.3652
   11MOL   O345 7165   2.257   6.147   4.098 -0.1345  0.1172 -0.1868
   11MOL   C346 7166   2.285   5.988   4.273 -0.6259  0.4720 -0.1954
   11MOL   C347 7167   2.350   5.950   4.393  0.8197 -0.8416 -0.3794
   11MOL   C348 7168   2.461   6.023   4.445 -0.8830 -0.1592 -0.0867
   11MOL   C349 7169   2.529   5.980   4.565  0.1959  0.1155 -0.7944
   11MOL   O350 7170   2.562   6.055   4.651 -0.1786  0.7898 -0.5410
   11MOL   C351 7171   2.575   5.839   4.554  0.0869  0.8621 -0.6364
   11MOL   C352 7172   2.639   5.782   4.664  0.1771 -0.0161  0.2760
   11MOL   C353 7173   2.688   5.656   4.661  0.0564  0.0911  0.1229
   11MOL   C354 7174   2.704   5.583   4.541 -0.2209  0.0071  0.0902
   11MOL   O355 7175   2.742   5.455   4.546  0.3680  0.0604  0.1562
   11MOL   C356 7176   2.878   5.432   4.519  0.7095  0.1298 -0.0278
   11MOL   C357 7177   2.949   5.369   4.627 -0.4465  0.3311  0.4794
   11MOL   C358 7178   3.078   5.319   4.608 -0.0902  0.1946 -0.2103
   11MOL   C359 7179   3.136   5.342   4.482  0.0997  0.7153  0.6279
   11MOL   C360 7180   3.075   5.413   4.380 -0.0328  0.4319  0.3226
   11MOL   C361 7181   2.947   5.453   4.396 -0.6182  0.1137 -0.2976
   11MOL   C362 7182   2.652   5.645   4.425 -0.0498 -0.0846 -0.4472
   11MOL   C363 7183   2.588   5.772   4.432 -0.7783  0.1624 -0.2187
   11MOL   H364 7184   2.558   6.210   4.433 -1.0169  2.2798 -1.6868
   11MOL   H365 7185   2.434   6.293   4.228 -1.3812 -0.6734 -0.9992
   11MOL   H366 7186   2.225   5.913   4.224 -0.8218  0.7732 -0.4243
   11MOL   H367 7187   2.321   5.858   4.441  0.3800  0.3173  1.6414
   11MOL   H368 7188   2.649   5.842   4.753  4.0656 -0.2055  0.0483
   11MOL   H369 7189   2.729   5.611   4.750  0.2455 -1.6369 -0.8043
   11MOL   H370 7190   2.902   5.360   4.723 -1.9384  1.9613 -0.0654
   11MOL   H371 7191   3.134   5.271   4.687  0.4910  0.6438 -0.3462
   11MOL   H372 7192   3.128   5.422   4.286  1.3273  1.9359  1.2239
   11MOL   H373 7193   2.904   5.511   4.316  0.1305 -0.5817 -1.2046
   11MOL   H374 7194   2.667   5.601   4.327 -0.1383  4.9337 -2.8868
   11MOL   H375 7195   2.569   5.813   4.334  0.8406 -2.4722 -1.6783
   11MOL   C376 7196   3.501   5.501   4.652 -0.1650 -0.2813  0.2314
   11MOL   C377 7197   3.410   5.396   4.624 -0.1724  0.4530  0.6742
   11MOL   C378 7198   3.362   5.376   4.491 -0.2078  0.5199  0.2428
   11MOL   O379 7199   3.259   5.297   4.460  0.0477  0.0979 -0.4909
   11MOL   C380 7200   3.415   5.464   4.393  0.6434 -0.0974  0.9251
   11MOL   C381 7201   3.501   5.575   4.426 -0.0400 -0.6139  0.3387
   11MOL   C382 7202   3.550   5.585   4.554  0.3007 -0.2228  0.4110
   11MOL   C383 7203   3.652   5.696   4.590  0.4529 -0.9534 -0.1218
   11MOL   O384 7204   3.749   5.736   4.520  0.0009  0.0294 -0.1461
   11MOL   C385 7205   3.628   5.766   4.720  0.1630  0.9701 -0.0864
   11MOL   C386 7206   3.741   5.800   4.801  0.7330  0.2828  0.6125
   11MOL   C387 7207   3.715   5.863   4.927  0.1882 -0.0354  0.1696
   11MOL   C388 7208   3.581   5.877   4.978  0.0748  0.1283 -0.5226
   11MOL   O389 7209   3.564   5.934   5.098  0.0919 -0.0620 -0.5674
   11MOL   C390 7210   3.453   5.900   5.168  0.8092 -0.0940  0.3023
   11MOL   C391 7211   3.431   5.767   5.226 -0.0610 -0.2266 -0.2906
   11MOL   C392 7212   3.313   5.733   5.294 -0.2295 -0.5833 -0.0199
   11MOL   C393 7213   3.217   5.833   5.311  0.0022 -0.6372 -0.4339
   11MOL   C394 7214   3.231   5.961   5.263 -0.6572 -0.1079 -1.2150
   11MOL   C395 7215   3.347   5.994   5.188  0.5003 -0.0228  0.4054
   11MOL   C396 7216   3.476   5.850   4.888  0.2197  0.9163 -0.5300
   11MOL   C397 7217   3.498   5.790   4.760  0.9595 -0.3186 -0.0084
   11MOL   H398 7218   3.531   5.514   4.755 -0.3459  0.8161  0.1510
   11MOL   H399 7219   3.388   5.339   4.714  1.8495 -0.2769  0.7495
   11MOL   H400 7220   3.388   5.453   4.289  1.7635 -2.6230  0.8798
   11MOL   H401 7221   3.537   5.643   4.350  0.1532  0.3970  1.3339
   11MOL   H402 7222   3.841   5.787   4.764  0.4826 -0.0871  0.0714
   11MOL   H403 7223   3.802   5.881   4.989  0.0709 -1.2583  0.7107
   11MOL   H404 7224   3.509   5.693   5.216  0.9541  0.5171  1.8615
   11MOL   H405 7225   3.295   5.634   5.334 -0.9741 -0.2049  0.5858
   11MOL   H406 7226   3.152   6.032   5.285 -0.7578 -0.5002 -0.2652
   11MOL   H407 7227   3.359   6.089   5.139  0.6211 -0.7996 -1.0984
   11MOL   H408 7228   3.374   5.868   4.917 -0.6544 -2.2644 -1.5133
   11MOL   H409 7229   3.413   5.759   4.700  0.3642  1.5216 -0.1671
   11MOL   C410 7230   3.106   5.703   5.731 -0.6088 -0.1465 -0.1224
   11MOL   C411 7231   3.106   5.692   5.588 -0.0734 -0.4229 -0.6140
   11MOL   C412 7232   3.100   5.812   5.509 -0.1811  0.1997 -0.0349
   11MOL   O413 7233   3.094   5.799   5.373 -0.3154 -0.0683  0.1376
   11MOL   C414 7234   3.092   5.934   5.577  0.1680 -0.4268  0.3348
   11MOL   C415 7235   3.102   5.941   5.718  0.4973 -0.3832  0.3540
   11MOL   C416 7236   3.110   5.828   5.800 -0.1616  0.0783 -0.1501
   11MOL   C417 7237   3.127   5.834   5.956  0.1947  0.5592  0.7600
   11MOL   O418 7238   3.199   5.750   6.011 -0.2079 -0.0816  0.0723
   11MOL   C419 7239   3.060   5.935   6.038  0.1000 -0.7197  0.1265
   11MOL   C420 7240   2.946   6.008   5.999  0.4486 -0.1609  0.0194
   11MOL   C421 7241   2.881   6.093   6.090  0.4518 -0.2895  0.1376
   11MOL   C422 7242   2.933   6.108   6.219  0.4662 -0.0651 -1.2156
   11MOL   O423 7243   2.879   6.195   6.314 -0.3562 -0.3459 -0.2111
   11MOL   C424 7244   2.742   6.225   6.315 -0.2656  0.1925 -0.0177
   11MOL   C425 7245   2.651   6.142   6.387 -0.6276 -0.4154  0.1623
   11MOL   C426 7246   2.515   6.178   6.404 -0.1629 -0.7128 -0.0556
   11MOL   C427 7247   2.463   6.292   6.331  1.0232  0.2306 -0.3368
   11MOL   C428 7248   2.552   6.373   6.259  0.2684 -0.3156 -0.7429
   11MOL   C429 7249   2.697   6.345   6.253  0.2724  0.6511  0.5291
   11MOL   C430 7250   3.058   6.045   6.255  0.7727  0.2021  0.1634
   11MOL   C431 7251   3.120   5.954   6.169 -0.1373 -0.1056  0.0750
   11MOL   H432 7252   3.103   5.609   5.784 -0.6198  0.7725  1.5339
   11MOL   H433 7253   3.096   5.597   5.537  3.4097 -0.4784 -1.3202
   11MOL   H434 7254   3.080   6.028   5.525 -0.5610 -1.2225 -0.9423
   11MOL   H435 7255   3.096   6.040   5.760 -1.4832  0.3319 -1.4992
   11MOL   H436 7256   2.903   6.006   5.900  0.0720  2.9535  0.0968
   11MOL   H437 7257   2.791   6.149   6.066  2.5018  3.4170  0.6953
   11MOL   H438 7258   2.692   6.058   6.441  0.3687  0.1281  0.2579
   11MOL   H439 7259   2.453   6.114   6.465  0.7213  0.7139  2.4022
   11MOL   H440 7260   2.523   6.461   6.203 -0.3728 -0.4122 -0.5619
   11MOL   H441 7261   2.755   6.417   6.197  0.1569  0.2987 -0.0488
   11MOL   H442 7262   3.112   6.060   6.347  0.0564 -1.3096  0.8506
   11MOL   H443 7263   3.214   5.907   6.196 -0.6922 -0.2659  1.8311
   11MOL   C444 7264   2.210   6.612   6.182  0.5147 -0.5888  0.8411
   11MOL   C445 7265   2.255   6.528   6.288  0.5744  0.4128  0.1808
   11MOL   C446 7266   2.278   6.394   6.250  0.0272  0.5250 -0.1902
   11MOL   O447 7267   2.327   6.315   6.346 -0.2715  0.0539 -0.2723
   11MOL   C448 7268   2.260   6.342   6.120  0.7222 -0.5808  0.8046
   11MOL   C449 7269   2.225   6.430   6.022 -0.0656  0.5053  0.5339
   11MOL   C450 7270   2.194   6.565   6.052 -0.3653 -0.5234  0.1894
   11MOL   C451 7271   2.146   6.662   5.948 -0.0641  0.4399  0.2650
   11MOL   O452 7272   2.209   6.770   5.922  0.3510  0.5659  0.4320
   11MOL   C453 7273   2.019   6.638   5.872 -0.4546  0.6281 -0.5671
   11MOL   C454 7274   1.928   6.532   5.906 -0.4883  0.0138 -0.0309
   11MOL   C455 7275   1.815   6.503   5.820 -0.5758 -1.0311  0.1425
   11MOL   C456 7276   1.795   6.591   5.713 -0.2457  0.3074  0.7737
   11MOL   O457 7277   1.690   6.561   5.631 -0.5250 -0.2052  0.2570
   11MOL   C458 7278   1.560   6.605   5.658 -0.0882 -0.7104  0.3570
   11MOL   C459 7279   1.498   6.611   5.787 -0.1895  1.2275  0.4164
   11MOL   C460 7280   1.362   6.643   5.804 -0.1867  0.0844 -0.2138
   11MOL   C461 7281   1.285   6.677   5.691 -0.0593 -0.1355  0.0359
   11MOL   C462 7282   1.353   6.680   5.566  0.3522 -0.4494  0.0855
   11MOL   C463 7283   1.485   6.638   5.548 -0.5127 -0.2902  0.2408
   11MOL   C464 7284   1.877   6.704   5.684  0.3207 -0.2063 -0.3979
   11MOL   C465 7285   1.990   6.724   5.763  0.1309 -0.5529 -0.6526
   11MOL   H466 7286   2.192   6.716   6.203  1.6791 -0.1037 -0.4830
   11MOL   H467 7287   2.282   6.559   6.388 -0.8741  0.8639  0.4526
   11MOL   H468 7288   2.273   6.240   6.088  0.2584 -0.7412  1.1225
   11MOL   H469 7289   2.216   6.393   5.921 -1.1591 -0.2223  0.8865
   11MOL   H470 7290   1.944   6.466   5.990 -0.2937  0.3035  0.1590
   11MOL   H471 7291   1.752   6.417   5.833 -4.0975  0.7248 -3.9439
   11MOL   H472 7292   1.566   6.587   5.867  0.1747 -1.4558 -0.6205
   11MOL   H473 7293   1.320   6.635   5.903  0.3099 -2.2768 -0.1626
   11MOL   H474 7294   1.302   6.713   5.476  0.4211 -0.2862  0.1070
   11MOL   H475 7295   1.528   6.651   5.450 -1.3980 -1.5490 -0.3230
   11MOL   H476 7296   1.845   6.776   5.611  2.0732 -0.4644 -1.4205
   11MOL   H477 7297   2.050   6.811   5.744 -1.0994  0.7536  1.2028
   11MOL   C478 7298   1.172   7.080   5.709 -0.6458 -0.2175  0.0715
   11MOL   C479 7299   1.206   6.942   5.697  0.1703 -0.2218  0.2013
   11MOL   C480 7300   1.109   6.842   5.682  0.3719  0.5423  0.0441
   11MOL   O481 7301   1.149   6.707   5.699 -0.8476 -0.3575  0.0910
   11MOL   C482 7302   0.975   6.873   5.669  0.7292  0.2046 -0.1032
   11MOL   C483 7303   0.937   7.011   5.677  0.3336  0.6202  0.0907
   11MOL   C484 7304   1.033   7.108   5.699 -0.1101 -0.6677 -0.2026
   11MOL   C485 7305   0.983   7.247   5.722  0.2711 -0.4572  0.2336
   11MOL   O486 7306   0.868   7.292   5.696 -0.4148  0.0823 -0.0796
   11MOL   C487 7307   1.082   7.345   5.793 -0.2260  0.0936  0.0197
   11MOL   C488 7308   1.087   7.476   5.744 -0.1821 -1.0077  0.8248
   11MOL   C489 7309   1.179   7.565   5.805  0.0935 -0.8259  0.6940
   11MOL   C490 7310   1.264   7.524   5.910  0.2313  0.3951 -0.1818
   11MOL   O491 7311   1.359   7.609   5.968  0.1460 -0.6268  0.1957
   11MOL   C492 7312   1.479   7.623   5.904 -0.5728  0.4291  0.2801
   11MOL   C493 7313   1.597   7.580   5.965  0.0603 -0.1836 -0.0669
   11MOL   C494 7314   1.712   7.568   5.886 -0.1668 -0.1099 -0.5509
   11MOL   C495 7315   1.716   7.629   5.758  0.1281 -0.1411  0.3009
   11MOL   C496 7316   1.606   7.698   5.705  0.2165 -1.0623  0.7929
   11MOL   C497 7317   1.484   7.689   5.778 -0.4502  1.0814  0.5274
   11MOL   C498 7318   1.242   7.400   5.972 -0.2011  0.4719  0.4364
   11MOL   C499 7319   1.159   7.310   5.907  0.7973  0.0886 -0.1139
   11MOL   H500 7320   1.257   7.147   5.710  0.1404 -1.1894 -0.3844
   11MOL   H501 7321   1.310   6.917   5.707  0.1039 -1.1778 -1.4929
   11MOL   H502 7322   0.894   6.802   5.662  0.2041  0.6492  1.4198
   11MOL   H503 7323   0.833   7.040   5.669 -0.0557 -0.2463  1.7288
   11MOL   H504 7324   1.026   7.510   5.662  0.1248  0.3931  1.1606
   11MOL   H505 7325   1.194   7.657   5.751 -3.1922  0.0512  1.1675
   11MOL   H506 7326   1.603   7.537   6.064  0.4883 -0.3750 -0.1736
   11MOL   H507 7327   1.805   7.528   5.924  0.7279  1.7929 -0.7101
   11MOL   H508 7328   1.609   7.749   5.610 -1.4553  0.4131  1.4847
   11MOL   H509 7329   1.393   7.731   5.736  0.8450  1.9852 -1.4293
   11MOL   H510 7330   1.306   7.368   6.053  0.0626 -2.3342 -0.8466
   11MOL   H511 7331   1.147   7.208   5.938 -0.4000  0.4359  0.5791
   11MOL   C512 7332   1.927   7.327   5.528  0.0948 -0.0872  0.6091
   11MOL   C513 7333   1.848   7.433   5.575  0.0697 -0.5159 -0.7125
   11MOL   C514 7334   1.912   7.537   5.649  0.6475 -0.5321  0.0631
   11MOL   O515 7335   1.843   7.644   5.700 -0.2589  0.3753  0.3388
   11MOL   C516 7336   2.050   7.522   5.688 -0.0246 -0.2857 -0.2984
   11MOL   C517 7337   2.123   7.413   5.650  0.1497 -0.0749 -0.1792
   11MOL   C518 7338   2.063   7.310   5.568 -0.0917 -0.0525  0.1786
   11MOL   C519 7339   2.146   7.195   5.519  0.0699  0.7039 -0.1971
   11MOL   O520 7340   2.111   7.082   5.548  0.1406  0.3039 -0.5918
   11MOL   C521 7341   2.270   7.221   5.440 -0.1916  0.7671  0.4657
   11MOL   C522 7342   2.391   7.148   5.475  1.4294 -0.9053 -0.7358
   11MOL   C523 7343   2.514   7.189   5.420 -0.1177  0.1195 -0.2373
   11MOL   C524 7344   2.514   7.299   5.332 -1.4348 -0.0434  0.0153
   11MOL   O525 7345   2.633   7.336   5.276 -0.2080 -0.2314 -0.3402
   11MOL   C526 7346   2.653   7.324   5.147 -0.2472 -0.0425  0.1232
   11MOL   C527 7347   2.746   7.420   5.096  0.2680  0.2215  0.0232
   11MOL   C528 7348   2.790   7.417   4.960  0.3310  0.3993  0.2831
   11MOL   C529 7349   2.750   7.306   4.883  0.0792 -0.1212  0.5277
   11MOL   C530 7350   2.656   7.214   4.927 -0.8426  0.4191 -0.4154
   11MOL   C531 7351   2.607   7.221   5.062  0.2821 -0.2821  0.1535
   11MOL   C532 7352   2.397   7.363   5.288 -0.2036  0.3234  0.1278
   11MOL   C533 7353   2.278   7.325   5.346  0.2133  0.7072 -0.8936
   11MOL   H534 7354   1.886   7.258   5.456  1.3022 -1.9556  1.6608
   11MOL   H535 7355   1.747   7.439   5.537  0.2114 -0.6277 -1.1044
   11MOL   H536 7356   2.089   7.600   5.751  1.5592 -0.3496 -1.1697
   11MOL   H537 7357   2.221   7.395   5.693 -0.4071 -1.3347  0.6144
   11MOL   H538 7358   2.396   7.073   5.553  1.4829  2.6039  2.8051
   11MOL   H539 7359   2.607   7.140   5.446  1.1351  1.0426 -2.8215
   11MOL   H540 7360   2.787   7.494   5.163 -0.0012  0.2475  0.1636
   11MOL   H541 7361   2.852   7.500   4.929  0.3501  0.3949  0.3106
   11MOL   H542 7362   2.632   7.127   4.868  0.2970 -0.8948  1.0456
   11MOL   H543 7363   2.546   7.138   5.093  1.4873 -1.2823 -0.1414
   11MOL   H544 7364   2.406   7.442   5.215  2.1008  2.5391  2.6987
   11MOL   H545 7365   2.188   7.374   5.311 -0.0787 -1.3740 -3.1304
   11MOL   C546 7366   2.720   7.617   4.572 -0.1138  0.4026 -0.0647
   11MOL   C547 7367   2.709   7.509   4.662 -0.3481 -0.1492  0.3812
   11MOL   C548 7368   2.799   7.395   4.666  0.2706  0.6769 -0.2050
   11MOL   O549 7369   2.791   7.293   4.756 -0.5073  0.2082 -0.0164
   11MOL   C550 7370   2.886   7.385   4.556  0.2735  0.8446 -0.5808
   11MOL   C551 7371   2.889   7.487   4.456 -0.7021 -0.4680 -0.0095
   11MOL   C552 7372   2.817   7.608   4.466 -0.6907  0.6807 -0.1962
   11MOL   C553 7373   2.837   7.715   4.371 -0.1298  0.0758 -0.1943
   11MOL   O554 7374   2.933   7.717   4.288 -0.0158  0.3115  0.5651
   11MOL   C555 7375   2.738   7.828   4.371  0.4927 -0.7838 -0.0130
   11MOL   C556 7376   2.620   7.821   4.304  0.8792 -0.3762 -0.5925
   11MOL   C557 7377   2.529   7.926   4.295 -0.0201 -0.2883 -0.0642
   11MOL   C558 7378   2.556   8.041   4.370  0.3503  0.3999  0.1196
   11MOL   O559 7379   2.466   8.146   4.363  0.0884  0.8246 -0.2048
   11MOL   C560 7380   2.383   8.176   4.470 -0.4596 -0.5501 -0.0661
   11MOL   C561 7381   2.391   8.301   4.535  0.1849 -0.0151 -0.3562
   11MOL   C562 7382   2.318   0.013   4.653  0.6507  0.6551 -0.5793
   11MOL   C563 7383   2.232   8.223   4.702  0.5154  0.5063 -0.3215
   11MOL   C564 7384   2.229   8.095   4.643 -0.2976 -0.4395 -0.3397
   11MOL   C565 7385   2.300   8.073   4.520  0.1605 -0.3730 -0.9666
   11MOL   C566 7386   2.674   8.052   4.445  0.1985  0.0876  0.0429
   11MOL   C567 7387   2.765   7.944   4.448  0.2745  0.9985  0.1329
   11MOL   H568 7388   2.653   7.702   4.578  2.1176  2.2759 -0.8657
   11MOL   H569 7389   2.638   7.517   4.742  0.0740  1.2224  0.6302
   11MOL   H570 7390   2.950   7.298   4.548  0.1215  0.3980  2.4066
   11MOL   H571 7391   2.957   7.478   4.372  1.0989  3.0374  0.9724
   11MOL   H572 7392   2.580   7.737   4.249 -0.9846  0.9310 -1.3036
   11MOL   H573 7393   2.449   7.929   4.223  0.3248 -0.3232 -0.4557
   11MOL   H574 7394   2.449   0.074   4.504 -1.1344  1.4662  1.2107
   11MOL   H575 7395   2.315   0.114   4.691 -3.3006  0.2443  0.4142
   11MOL   H576 7396   2.165   8.023   4.691  1.5977 -2.6046 -1.0099
   11MOL   H577 7397   2.291   7.978   4.469 -2.4843 -1.2107  0.9644
   11MOL   H578 7398   2.691   8.141   4.503  2.1471 -0.8859  1.0171
   11MOL   H579 7399   2.856   7.944   4.507  1.8071 -2.2359 -2.0690
   11MOL   C580 7400   1.854   0.132   4.871 -0.3983  0.3057  1.1321
   11MOL   C581 7401   1.983   0.084   4.877 -0.5157 -0.1476 -0.2496
   11MOL   C582 7402   2.030   8.312   4.778  0.0104  0.6045  0.0463
   11MOL   O583 7403   2.145   8.246   4.807  0.3993 -0.4841  0.6795
   11MOL   C584 7404   1.952   8.280   4.661  0.9465 -0.4492 -0.0548
   11MOL   C585 7405   1.819   0.015   4.655  0.4877  0.8600 -1.1253
   11MOL   C586 7406   1.769   0.097   4.761 -0.0003 -0.4199  0.3914
   11MOL   C587 7407   1.632   0.149   4.767  0.0329  0.6889 -0.2593
   11MOL   O588 7408   1.600   0.259   4.811  0.0847  0.0342  0.5909
   11MOL   C589 7409   1.529   0.066   4.706 -0.3598 -0.2260 -0.6104
   11MOL   C590 7410   1.535   8.239   4.698  0.5482  0.9650  0.3979
   11MOL   C591 7411   1.432   8.161   4.636  0.6303 -0.9426  0.1619
   11MOL   C592 7412   1.322   8.229   4.579  0.2909 -0.1694 -0.0233
   11MOL   O593 7413   1.238   8.164   4.495  0.4623 -0.3841  0.5601
   11MOL   C594 7414   1.266   8.042   4.443 -0.2876  0.4012  0.2161
   11MOL   C595 7415   1.344   8.043   4.331 -0.0914 -0.0800  0.4680
   11MOL   C596 7416   1.378   7.929   4.262  0.3713 -0.3314  0.2192
   11MOL   C597 7417   1.328   7.806   4.306  0.2977  0.5112  0.2039
   11MOL   C598 7418   1.240   7.796   4.418  0.0870 -0.9398 -0.6221
   11MOL   C599 7419   1.216   7.914   4.487 -0.4164 -0.3630 -0.7657
   11MOL   C600 7420   1.313   0.057   4.593  0.4917  0.0843  0.1870
   11MOL   C601 7421   1.416   0.129   4.650 -0.3090 -0.0678  0.0823
   11MOL   H602 7422   1.813   0.180   4.959 -0.8855 -1.8174  2.0860
   11MOL   H603 7423   2.035   0.093   4.971  0.5933 -0.3798 -0.8341
   11MOL   H604 7424   1.994   8.220   4.582 -0.1109 -1.0348 -0.1768
   11MOL   H605 7425   1.755   8.299   4.573 -0.2348 -1.2388  0.1374
   11MOL   H606 7426   1.620   8.185   4.738 -1.5816 -1.4383  1.8784
   11MOL   H607 7427   1.445   8.055   4.621  1.2916 -0.6732 -1.1673
   11MOL   H608 7428   1.381   8.133   4.283  1.5786 -0.8652  0.2523
   11MOL   H609 7429   1.437   7.927   4.172 -2.3678  1.6895 -1.7195
   11MOL   H610 7430   1.196   7.708   4.462 -0.4550  0.4256  1.6318
   11MOL   H611 7431   1.157   7.917   4.577  0.2105 -0.8072 -0.3387
   11MOL   H612 7432   1.230   0.109   4.550  1.2910  2.1624  1.1053
   11MOL   H613 7433   1.400   0.235   4.661 -0.3072  0.0813 -1.2292
   11MOL   C614 7434   1.153   7.712   3.935  0.0756  0.1789 -0.1853
   11MOL   C615 7435   1.187   7.685   4.066 -0.0910  0.4804  0.2400
   11MOL   C616 7436   1.321   7.693   4.106  0.0148  0.2492 -0.3541
   11MOL   O617 7437   1.350   7.688   4.237 -0.0484 -0.1473 -0.5308
   11MOL   C618 7438   1.420   7.711   4.010  0.0951 -0.0075 -0.3490
   11MOL   C619 7439   1.383   7.737   3.874  0.8625  0.0553  0.1473
   11MOL   C620 7440   1.248   7.731   3.835  0.0288  0.3788 -0.3052
   11MOL   C621 7441   1.211   7.761   3.700  0.2670 -0.0058  0.7853
   11MOL   O622 7442   1.178   7.875   3.667 -0.1077  0.0367 -0.4734
   11MOL   C623 7443   1.212   7.655   3.603  0.5419  0.0884  0.0898
   11MOL   C624 7444   1.227   7.692   3.466 -0.0729 -0.8274  0.9608
   11MOL   C625 7445   1.225   7.595   3.364 -1.1743 -0.5682 -0.7835
   11MOL   C626 7446   1.198   7.458   3.401  0.0571  0.7705 -0.1231
   11MOL   O627 7447   1.189   7.369   3.300 -0.2188 -0.6895  0.3228
   11MOL   C628 7448   1.064   7.353   3.248  0.3024  1.0704  0.2004
   11MOL   C629 7449   0.963   7.286   3.323  0.0392  0.4219  0.8668
   11MOL   C630 7450   0.835   7.273   3.267  0.1768  1.1287 -0.7664
   11MOL   C631 7451   0.810   7.315   3.139  0.6297 -0.7610 -0.7813
   11MOL   C632 7452   0.907   7.387   3.069  0.0182 -0.5505  0.3086
   11MOL   C633 7453   1.035   7.409   3.121 -0.0691 -0.7987 -0.1900
   11MOL   C634 7454   1.182   7.418   3.533 -0.7324 -0.0786 -0.6032
   11MOL   C635 7455   1.197   7.512   3.636 -0.1304  0.1872 -0.1169
   11MOL   H636 7456   1.051   7.723   3.902 -0.2160  0.7814  0.8667
   11MOL   H637 7457   1.113   7.669   4.143 -0.5575 -1.8804 -0.6740
   11MOL   H638 7458   1.528   7.714   4.011  0.1364 -1.1207 -0.4420
   11MOL   H639 7459   1.460   7.754   3.801  1.1478 -1.5696  0.0539
   11MOL   H640 7460   1.257   7.794   3.449  0.4060 -1.1224  0.0372
   11MOL   H641 7461   1.247   7.631   3.265 -2.2389  1.2160 -0.4056
   11MOL   H642 7462   0.990   7.252   3.422 -0.2793 -2.1634  0.1035
   11MOL   H643 7463   0.758   7.219   3.321  0.4821  0.8850 -0.5722
   11MOL   H644 7464   0.885   7.417   2.968 -2.3414 -2.6458  0.1409
   11MOL   H645 7465   1.105   7.467   3.063 -0.8198 -0.3303 -0.6400
   11MOL   H646 7466   1.163   7.315   3.560 -0.7984 -0.1494 -0.9171
   11MOL   H647 7467   1.188   7.480   3.738 -3.0344 -1.6811 -0.9047
   11MOL   C648 7468   0.651   7.030   2.805 -0.5047  0.1242  0.0773
   11MOL   C649 7469   0.694   7.154   2.869 -0.5174  0.6835  0.2114
   11MOL   C650 7470   0.684   7.164   3.005  0.9919 -0.2413 -0.5320
   11MOL   O651 7471   0.693   7.284   3.078 -0.0795 -0.4134  0.3230
   11MOL   C652 7472   0.659   7.047   3.082  0.2500 -0.0525 -0.6547
   11MOL   C653 7473   0.628   6.923   3.021 -0.1084  0.7229 -0.9101
   11MOL   C654 7474   0.615   6.914   2.882 -0.2417  0.9593 -0.1473
   11MOL   C655 7475   0.592   6.783   2.814  0.3121  0.6409 -0.3903
   11MOL   O656 7476   0.643   6.752   2.702  0.5216 -0.0560  0.3875
   11MOL   C657 7477   0.510   6.688   2.889 -0.2220  0.5243  0.3688
   11MOL   C658 7478   0.565   6.556   2.922  0.1045 -0.2581 -0.1293
   11MOL   C659 7479   0.487   6.468   3.001  0.1627 -0.6543  0.3715
   11MOL   C660 7480   0.353   6.506   3.039  0.4727 -0.0726 -0.5742
   11MOL   O661 7481   0.272   6.409   3.092 -0.2691 -0.4602 -0.2388
   11MOL   C662 7482   0.200   6.344   2.996  0.0962  0.3742 -0.0086
   11MOL   C663 7483   0.240   6.218   2.962 -0.3102 -0.0575  0.9943
   11MOL   C664 7484   0.164   6.143   2.869 -0.5831 -0.6153 -0.2450
   11MOL   C665 7485   0.044   6.197   2.813 -0.6532  0.3186  0.0635
   11MOL   C666 7486   0.009   6.328   2.842 -0.0751  0.6304 -0.3184
   11MOL   C667 7487   0.086   6.401   2.931 -0.3132 -0.7312 -0.8513
   11MOL   C668 7488   0.299   6.632   3.007 -0.3390 -0.4138 -0.6033
   11MOL   C669 7489   0.377   6.723   2.930  0.4329  0.2592 -0.1119
   11MOL   H670 7490   0.662   7.013   2.699 -0.7551  0.6734 -0.0400
   11MOL   H671 7491   0.723   7.238   2.808  0.9464  1.9534  2.5512
   11MOL   H672 7492   0.661   7.059   3.189  0.8035 -0.3529 -0.6292
   11MOL   H673 7493   0.602   6.833   3.074 -1.1241  1.1306 -0.7095
   11MOL   H674 7494   0.664   6.525   2.893  0.3939  1.0273 -0.5201
   11MOL   H675 7495   0.526   6.369   3.017  1.7361 -0.3875 -1.5830
   11MOL   H676 7496   0.320   6.172   3.018 -0.6518 -2.2830 -0.3067
   11MOL   H677 7497   0.189   6.039   2.851  0.3287 -0.6500  1.0883
   11MOL   H678 7498   8.226   6.368   2.814  1.1037  1.0748 -3.9352
   11MOL   H679 7499   0.047   6.494   2.970 -1.8712 -1.4752 -0.6194
   11MOL   H680 7500   0.202   6.664   3.042 -0.4791  0.5643 -1.8179
   11MOL   H681 7501   0.337   6.822   2.916 -1.0566 -0.1083  1.4497
   11MOL   H682 7502   8.287   6.138   2.755  0.0762  0.0852 -0.5939
   12MOL     C1 7503   6.524   6.838   1.426 -0.7824 -0.4222 -0.6004
   12MOL     C2 7504   6.577   6.818   1.556  0.3888  0.6558 -0.8307
   12MOL     C3 7505   6.499   6.864   1.668  0.9504 -0.3710  0.1744
   12MOL     O4 7506   6.552   6.861   1.798  0.0483  0.5153 -0.4121
   12MOL     C5 7507   6.372   6.914   1.644 -0.5037 -0.0024  0.0491
   12MOL     C6 7508   6.313   6.918   1.514  0.3020 -0.0921  0.0849
   12MOL     C7 7509   6.395   6.891   1.407 -0.0522  0.2809 -0.5052
   12MOL     C8 7510   6.356   6.901   1.265 -0.6443 -0.1066  0.4387
   12MOL     O9 7511   6.360   6.809   1.184 -0.7645  0.0074 -0.2290
   12MOL    C10 7512   6.295   7.031   1.223  0.1500 -0.0761 -0.3096
   12MOL    C11 7513   6.196   7.044   1.120  0.6850  0.7421 -0.0189
   12MOL    C12 7514   6.140   7.170   1.092  0.4025 -0.2059  0.6852
   12MOL    C13 7515   6.189   7.287   1.158 -0.4228 -0.3259  0.7643
   12MOL    O14 7516   6.142   7.412   1.125 -0.1543  0.3214 -0.1803
   12MOL    C15 7517   6.014   7.433   1.151 -0.1070  0.1103  0.6093
   12MOL    C16 7518   5.939   7.507   1.063 -0.5194  0.4073 -0.2068
   12MOL    C17 7519   5.801   7.522   1.081  0.2330  0.4984  0.1715
   12MOL    C18 7520   5.743   7.460   1.196  0.4107 -0.1051  0.6733
   12MOL    C19 7521   5.818   7.398   1.293  0.2203  0.6547  0.2708
   12MOL    C20 7522   5.952   7.385   1.266 -0.1718 -0.2236  0.3587
   12MOL    C21 7523   6.287   7.272   1.262 -0.1770  0.3770  0.1299
   12MOL    C22 7524   6.340   7.146   1.290  0.1569 -1.0066  0.3632
   12MOL    H23 7525   6.581   6.811   1.338 -1.0286  0.3030 -0.9823
   12MOL    H24 7526   6.680   6.786   1.554  0.3464  0.2649  1.7420
   12MOL    H25 7527   6.313   6.936   1.733  1.3891 -0.7675  1.5212
   12MOL    H26 7528   6.207   6.934   1.500 -0.3529 -1.6793  2.8088
   12MOL    H27 7529   6.156   6.959   1.068  0.9200  1.8186 -2.0328
   12MOL    H28 7530   6.063   7.175   1.016  0.1152 -2.0391  0.8143
   12MOL    H29 7531   5.974   7.558   0.975  0.8628 -1.0516 -0.5397
   12MOL    H30 7532   5.755   7.585   1.006  1.0320 -1.2294 -1.8145
   12MOL    H31 7533   5.791   7.352   1.387  0.2031 -1.4454 -0.7438
   12MOL    H32 7534   6.014   7.323   1.328  0.7285 -0.3145 -0.6228
   12MOL    H33 7535   6.322   7.362   1.309  0.8894  0.5069 -0.8917
   12MOL    H34 7536   6.420   7.141   1.362  1.4809  0.2064 -0.9688
   12MOL    H35 7537   6.645   6.848   1.786 -0.1692 -1.8298  0.1036
   12MOL    C36 7538   5.503   7.834   1.271 -0.0624  0.8692  0.0639
   12MOL    C37 7539   5.575   7.713   1.291  0.4323  0.7685 -0.0520
   12MOL    C38 7540   5.552   7.604   1.204 -0.4503  0.5753  0.0352
   12MOL    O39 7541   5.610   7.481   1.217  0.6148  0.5441 -0.1951
   12MOL    C40 7542   5.455   7.619   1.097 -0.3767 -0.2875 -0.0864
   12MOL    C41 7543   5.382   7.737   1.085  0.5269 -0.5178  0.2451
   12MOL    C42 7544   5.399   7.843   1.177 -1.0096  0.2756  0.4964
   12MOL    C43 7545   5.320   7.969   1.169  0.0623  0.0793  0.2648
   12MOL    O44 7546   5.307   8.036   1.264 -0.0442 -0.2552  0.5133
   12MOL    C45 7547   5.248   7.987   1.045  0.3578 -0.0468  0.2143
   12MOL    C46 7548   5.310   7.998   0.918  0.0965 -0.6711 -0.3702
   12MOL    C47 7549   5.234   8.032   0.805  0.4868  0.1529  0.2462
   12MOL    C48 7550   5.096   8.047   0.813  0.4224  0.0008  0.1928
   12MOL    O49 7551   5.020   8.091   0.708 -0.2452 -0.2782 -0.0726
   12MOL    C50 7552   5.041   8.046   0.578  0.0356 -0.3050 -0.0030
   12MOL    C51 7553   5.090   7.912   0.559  0.4502  0.4542 -0.6478
   12MOL    C52 7554   5.126   7.871   0.432 -0.0297 -0.3021 -0.1878
   12MOL    C53 7555   5.094   7.952   0.323  0.3558  0.1076 -0.2249
   12MOL    C54 7556   5.043   8.082   0.343 -0.6478 -0.6844 -0.2594
   12MOL    C55 7557   5.011   8.128   0.469 -0.4255  0.0129 -0.4246
   12MOL    C56 7558   5.029   8.033   0.933  0.1434 -0.0948 -0.8826
   12MOL    C57 7559   5.108   8.010   1.053  0.1287 -0.3193 -0.0003
   12MOL    H58 7560   5.526   7.918   1.335 -0.3092 -0.5124  2.0214
   12MOL    H59 7561   5.644   7.704   1.373  2.3380  0.6172 -1.6380
   12MOL    H60 7562   5.429   7.537   1.032  1.6335 -0.6419 -0.4604
   12MOL    H61 7563   5.300   7.747   1.015  0.9620 -1.2442 -0.3886
   12MOL    H62 7564   5.415   7.979   0.908  0.8803  1.8876  2.2074
   12MOL    H63 7565   5.288   8.060   0.715  0.0110 -0.9458 -0.3876
   12MOL    H64 7566   5.121   7.845   0.637 -1.2497  1.2200  0.7037
   12MOL    H65 7567   5.174   7.775   0.425  0.1998 -0.2028  0.0065
   12MOL    H66 7568   5.023   8.148   0.260  0.4405  0.5696  0.4499
   12MOL    H67 7569   4.981   8.229   0.491 -0.6776 -0.3408  0.9017
   12MOL    H68 7570   4.922   8.041   0.931  0.3089  2.9204  0.1359
   12MOL    H69 7571   5.057   7.998   1.148 -3.0697  1.3609 -1.4479
   12MOL    C70 7572   5.428   7.804   0.006  0.5047  0.1608 -0.6451
   12MOL    C71 7573   5.295   7.828   0.047 -0.0043  0.1907  0.5109
   12MOL    C72 7574   5.264   7.905   0.158  0.7449 -0.3870  0.5722
   12MOL    O73 7575   5.133   7.913   0.195 -0.0939  0.0651 -0.4575
   12MOL    C74 7576   5.368   7.966   0.232  0.1026 -0.1315 -0.5677
   12MOL    C75 7577   5.503   7.941   0.190  0.4942 -0.5841 -0.6326
   12MOL    C76 7578   5.535   7.870   0.070  0.4485  0.5925 -0.3636
   12MOL    C77 7579   5.675   7.868   0.013  0.1701 -0.4380 -0.7081
   12MOL    O78 7580   5.755   7.956   0.046  0.3111 -0.2778  0.1159
   12MOL    C79 7581   5.718   7.764   8.229 -0.3192  0.2549  0.7415
   12MOL    C80 7582   5.724   7.631   8.268 -0.1432 -0.0363  0.2101
   12MOL    C81 7583   5.779   7.532   8.185  0.3954  0.2829  0.5555
   12MOL    C82 7584   5.839   7.564   8.066 -0.0524  0.0043  0.1198
   12MOL    O83 7585   5.906   7.463   7.996 -0.0145 -0.3444  0.8627
   12MOL    C84 7586   6.043   7.467   7.992 -0.1843  0.4393  0.0283
   12MOL    C85 7587   6.117   7.572   7.925 -0.5701 -0.4702 -0.2354
   12MOL    C86 7588   6.255   7.571   7.928  0.1684  0.1214  0.1433
   12MOL    C87 7589   6.323   7.462   7.993 -0.0942 -0.6533  0.2558
   12MOL    C88 7590   6.255   7.363   8.064 -0.5713 -0.3954 -0.0466
   12MOL    C89 7591   6.116   7.365   8.061 -0.3373 -0.0174  0.1208
   12MOL    C90 7592   5.825   7.698   8.026  0.5233  0.0293 -0.4768
   12MOL    C91 7593   5.766   7.799   8.105 -0.2024 -0.2622 -0.3413
   12MOL    H92 7594   5.448   7.750   8.227  3.4038 -0.4324  0.2948
   12MOL    H93 7595   5.216   7.783   8.301 -0.9102  2.5570 -0.1240
   12MOL    H94 7596   5.348   8.024   0.320 -0.2822  0.6909 -1.1864
   12MOL    H95 7597   5.583   7.980   0.251 -0.2748  2.1138 -1.2957
   12MOL    H96 7598   5.683   7.606   0.052 -2.2484 -2.0369 -1.1295
   12MOL    H97 7599   5.786   7.432   8.226 -0.4910  0.2919  0.7364
   12MOL    H98 7600   6.069   7.652   7.871  0.2911 -0.3057 -0.7532
   12MOL    H99 7601   6.319   7.643   7.879 -0.2517 -0.7893 -1.7991
   12MOL   H100 7602   6.309   7.281   8.109  0.6615 -0.2315 -1.2353
   12MOL   H101 7603   6.062   7.286   8.111 -0.7183 -0.6036 -1.1846
   12MOL   H102 7604   5.865   7.729   7.930 -1.1759  0.1048 -1.1710
   12MOL   H103 7605   5.777   7.901   8.069  0.4925 -0.6080 -1.1244
   12MOL   C104 7606   6.600   7.164   7.830 -0.0038  0.7234 -0.2728
   12MOL   C105 7607   6.552   7.253   7.927  0.4871  0.4673 -0.7601
   12MOL   C106 7608   6.517   7.390   7.892 -0.4670  0.1435  0.2145
   12MOL   O107 7609   6.462   7.469   7.987 -0.4679  0.1572 -0.2073
   12MOL   C108 7610   6.547   7.433   7.758  0.5041  0.2942 -0.6031
   12MOL   C109 7611   6.607   7.343   7.666 -0.0848  0.3255 -0.0032
   12MOL   C110 7612   6.629   7.204   7.701  0.4675 -0.1441  0.6864
   12MOL   C111 7613   6.678   7.099   7.607  0.1279 -0.5420  0.3622
   12MOL   O112 7614   6.672   6.979   7.645  0.3904 -0.6752 -0.2190
   12MOL   C113 7615   6.715   7.140   7.476  0.0314  0.4776  1.0725
   12MOL   C114 7616   6.626   7.159   7.369 -0.2106 -0.0334  0.4004
   12MOL   C115 7617   6.675   7.179   7.241  0.7422  0.2424  1.1784
   12MOL   C116 7618   6.815   7.196   7.221  0.2929  0.9062 -0.2062
   12MOL   O117 7619   6.858   7.214   7.091  0.3484 -0.3754 -0.1105
   12MOL   C118 7620   6.975   7.280   7.065  0.1836 -0.5574 -0.2262
   12MOL   C119 7621   7.000   7.405   7.132  0.2082 -0.3529 -0.0771
   12MOL   C120 7622   7.124   7.472   7.104  0.0909  0.2047  0.2061
   12MOL   C121 7623   7.216   7.423   7.007 -0.3989  0.0082 -0.4666
   12MOL   C122 7624   7.184   7.299   6.941  0.9046  0.2951  0.0431
   12MOL   C123 7625   7.065   7.232   6.966 -0.3787 -0.1063 -0.2848
   12MOL   C124 7626   6.907   7.190   7.329 -0.7653 -0.3436 -0.2641
   12MOL   C125 7627   6.854   7.156   7.456 -0.0271 -0.9397 -0.1438
   12MOL   H126 7628   6.623   7.063   7.860  0.1266  0.5125 -1.0758
   12MOL   H127 7629   6.540   7.221   8.029 -0.1532  1.7038 -0.4415
   12MOL   H128 7630   6.520   7.528   7.715  0.7802  0.4003 -0.5380
   12MOL   H129 7631   6.628   7.377   7.566 -0.6376  0.1169 -0.1936
   12MOL   H130 7632   6.520   7.142   7.386 -0.0899 -1.9662 -0.7017
   12MOL   H131 7633   6.615   7.179   7.152 -0.3462 -0.8271  1.8983
   12MOL   H132 7634   6.941   7.447   7.212 -0.3740 -0.2463 -0.5630
   12MOL   H133 7635   7.141   7.571   7.142 -0.6078 -0.4325  2.2227
   12MOL   H134 7636   7.254   7.238   6.886  1.7556  1.5342 -0.2581
   12MOL   H135 7637   7.038   7.134   6.929  1.2688 -1.2725  1.5062
   12MOL   H136 7638   7.013   7.189   7.312 -0.2926 -0.0912  2.4048
   12MOL   H137 7639   6.920   7.131   7.538 -0.2424 -0.2262  0.2625
   12MOL   C138 7640   7.453   7.822   6.969 -0.2362 -0.0611  0.4065
   12MOL   C139 7641   7.433   7.691   7.019  0.6653  0.4777  0.1280
   12MOL   C140 7642   7.360   7.601   6.940 -0.4641 -0.2035 -0.1646
   12MOL   O141 7643   7.339   7.477   6.994  0.0055  0.6227 -0.0254
   12MOL   C142 7644   7.307   7.639   6.817  0.4441  0.9996 -0.0942
   12MOL   C143 7645   7.327   7.770   6.773  0.4581 -0.8016 -0.0757
   12MOL   C144 7646   7.393   7.868   6.849  0.1766  0.1774  0.0609
   12MOL   C145 7647   7.411   8.009   6.810 -0.0295  0.2679 -0.2038
   12MOL   O146 7648   7.514   8.074   6.825  0.6115  0.2452 -0.0416
   12MOL   C147 7649   7.292   8.060   6.745  0.3446 -0.1776 -0.4285
   12MOL   C148 7650   7.310   8.147   6.634 -0.0582  0.0670 -0.2095
   12MOL   C149 7651   7.198   8.214   6.571  0.3609 -0.2350  0.4734
   12MOL   C150 7652   7.069   8.184   6.606 -0.4618  0.0244 -0.8343
   12MOL   O151 7653   6.961   8.246   6.546 -0.4577  0.0917 -0.1334
   12MOL   C152 7654   6.962   8.261   6.414 -0.0387 -0.5937 -0.1904
   12MOL   C153 7655   6.932   0.071   6.351 -0.3717 -0.1823  0.0592
   12MOL   C154 7656   6.932   0.085   6.210  0.1095  0.2726  0.3865
   12MOL   C155 7657   6.960   8.286   6.133 -0.1256  0.0533  0.0097
   12MOL   C156 7658   6.988   8.163   6.190 -0.3443 -0.3850 -0.4555
   12MOL   C157 7659   6.993   8.152   6.333  0.5124  0.3271  0.0429
   12MOL   C158 7660   7.046   8.097   6.712  0.4357  0.6824  0.1251
   12MOL   C159 7661   7.155   8.041   6.784 -0.2671  0.1527  0.6170
   12MOL   H160 7662   7.504   7.893   7.033 -2.9596  1.0549  1.4359
   12MOL   H161 7663   7.480   7.670   7.114 -1.2476  1.4252  1.3331
   12MOL   H162 7664   7.238   7.585   6.754  0.8230 -0.1506  0.4564
   12MOL   H163 7665   7.283   7.806   6.681  0.5371  0.6776  0.4397
   12MOL   H164 7666   7.410   8.175   6.605 -0.5103  1.3881 -0.5364
   12MOL   H165 7667   7.232   8.272   6.486  2.0669 -0.1720  1.1795
   12MOL   H166 7668   6.907   0.148   6.423  1.4867 -1.1261  1.7681
   12MOL   H167 7669   6.912   0.182   6.168  3.0733  1.8752  2.5208
   12MOL   H168 7670   6.992   8.077   6.126  0.8098 -0.9047  0.2942
   12MOL   H169 7671   7.008   8.056   6.379  0.9480  0.6150  0.5068
   12MOL   H170 7672   6.945   8.086   6.749  0.2804 -0.0375 -0.5031
   12MOL   H171 7673   7.134   7.984   6.873  1.0181 -0.9697  0.2301
   12MOL   C172 7674   6.602   8.184   5.922 -0.1745 -0.0559 -0.3969
   12MOL   C173 7675   6.713   8.247   5.987 -0.1306  0.5824 -0.3336
   12MOL   C174 7676   6.847   8.228   5.945 -0.1883 -0.7202  0.0485
   12MOL   O175 7677   6.950   8.298   6.000 -0.1047 -0.3059  0.2268
   12MOL   C176 7678   6.866   8.142   5.836 -0.0660  0.0410  0.3302
   12MOL   C177 7679   6.751   8.079   5.773  0.4704  0.6680  0.2765
   12MOL   C178 7680   6.622   8.097   5.817 -0.2656  0.7311  1.0956
   12MOL   C179 7681   6.508   8.031   5.749  0.4475  0.6690  0.2712
   12MOL   O180 7682   6.518   7.915   5.698  0.1278  0.1941 -0.8644
   12MOL   C181 7683   6.376   8.101   5.735 -0.6191  0.0369 -0.2222
   12MOL   C182 7684   6.259   8.029   5.707 -0.3266  0.3028  0.6813
   12MOL   C183 7685   6.132   8.098   5.697  0.3477  0.1024  0.3852
   12MOL   C184 7686   6.128   8.244   5.700  0.5698  1.1797  0.1288
   12MOL   O185 7687   6.003   8.307   5.688 -0.1541 -0.0574  0.2287
   12MOL   C186 7688   5.991   0.111   5.622 -0.0371  0.1632 -0.3796
   12MOL   C187 7689   6.031   0.130   5.490 -0.5148  0.2346  0.0252
   12MOL   C188 7690   6.010   0.256   5.433  0.3744  0.6210  0.5616
   12MOL   C189 7691   5.959   0.366   5.502 -0.1503  0.2699  0.5500
   12MOL   C190 7692   5.918   0.347   5.636 -0.5570  0.0254 -0.4053
   12MOL   C191 7693   5.936   0.218   5.690  0.3057 -0.5188 -0.1959
   12MOL   C192 7694   6.245   0.001   5.714 -0.6026 -0.0247 -0.1560
   12MOL   C193 7695   6.367   8.246   5.742  0.1173  0.2898 -0.0352
   12MOL   H194 7696   6.503   8.193   5.965  0.1363  2.6298 -0.1386
   12MOL   H195 7697   6.687   0.004   6.066  0.1677 -1.4509  1.5965
   12MOL   H196 7698   6.960   8.126   5.786  0.0974  0.7774  0.3950
   12MOL   H197 7699   6.771   8.009   5.693 -0.7282 -1.0071  1.4119
   12MOL   H198 7700   6.263   7.922   5.701  0.8914  0.4324 -1.3058
   12MOL   H199 7701   6.038   8.046   5.686  0.1800  0.4695  0.0735
   12MOL   H200 7702   6.069   0.054   5.423 -1.0721 -1.3163  1.4233
   12MOL   H201 7703   6.041   0.269   5.331  2.4500 -0.3809  1.0510
   12MOL   H202 7704   5.870   0.428   5.688  0.5031 -0.3733  1.2011
   12MOL   H203 7705   5.889   0.201   5.785 -0.4965  1.1180 -0.2886
   12MOL   H204 7706   6.240   0.109   5.719  0.6989  0.0678 -0.6643
   12MOL   H205 7707   6.455   8.306   5.760  0.5263  0.3846 -2.1454
   12MOL   C206 7708   5.655   0.599   5.280  0.3945 -0.7913 -0.0431
   12MOL   C207 7709   5.767   0.523   5.314 -0.3584  0.2958  0.0280
   12MOL   C208 7710   5.849   0.565   5.421 -0.1788 -0.3258 -0.2896
   12MOL   O209 7711   5.966   0.496   5.446 -0.2972  0.3973  0.5533
   12MOL   C210 7712   5.826   0.687   5.484 -0.1717 -0.3740 -0.5812
   12MOL   C211 7713   5.719   0.769   5.450 -0.1689 -0.4175  0.4978
   12MOL   C212 7714   5.625   0.723   5.345 -0.0845  0.3269  0.1625
   12MOL   C213 7715   5.509   0.797   5.290 -0.0329 -0.1275  0.6445
   12MOL   O214 7716   5.403   0.741   5.262 -0.1466  0.0997 -0.1374
   12MOL   C215 7717   5.511   0.946   5.289  0.6481  0.3008  0.1857
   12MOL   C216 7718   5.632   1.009   5.250  0.0359 -0.2391  0.9727
   12MOL   C217 7719   5.642   1.151   5.262 -0.1122  0.1034  0.2524
   12MOL   C218 7720   5.534   1.228   5.308  0.3701 -0.2466 -0.7997
   12MOL   O219 7721   5.535   1.358   5.342 -1.3504  0.7724 -0.4739
   12MOL   C220 7722   5.531   1.451   5.245 -0.2887  0.6973  0.7218
   12MOL   C221 7723   5.599   1.570   5.261  0.0420  0.5496  0.5321
   12MOL   C222 7724   5.602   1.669   5.163  0.3642  0.2775 -0.2965
   12MOL   C223 7725   5.530   1.650   5.045 -0.0664  0.6990  0.0684
   12MOL   C224 7726   5.452   1.540   5.028 -0.0551  1.0421 -0.3117
   12MOL   C225 7727   5.448   1.439   5.130  0.3713  0.6911  0.5127
   12MOL   C226 7728   5.415   1.162   5.349  0.3163 -0.4286  0.3249
   12MOL   C227 7729   5.402   1.023   5.347 -0.2624  0.2876  0.3783
   12MOL   H228 7730   5.590   0.569   5.199  0.0712  0.7349 -0.3762
   12MOL   H229 7731   5.789   0.428   5.266 -1.6874  1.4662 -3.0025
   12MOL   H230 7732   5.897   0.736   5.550 -2.2099  2.2269 -0.2560
   12MOL   H231 7733   5.706   0.869   5.489  3.6875 -0.1766  1.3246
   12MOL   H232 7734   5.717   0.952   5.217 -1.6244 -1.3956 -1.4012
   12MOL   H233 7735   5.738   1.199   5.253  1.1119 -1.8315  2.3539
   12MOL   H234 7736   5.665   1.583   5.346 -1.7642 -1.2713  2.2645
   12MOL   H235 7737   5.654   1.762   5.183 -0.6838  1.2174 -1.8680
   12MOL   H236 7738   5.392   1.538   4.938 -0.4573 -2.3354 -0.0377
   12MOL   H237 7739   5.375   1.361   5.115  1.6324 -0.2033 -1.1073
   12MOL   H238 7740   5.338   1.227   5.389  1.2084  0.4010  0.6992
   12MOL   H239 7741   5.315   0.969   5.382 -1.4520  0.1042 -2.7329
   12MOL   C240 7742   5.653   1.786   4.621 -0.2203 -0.1850  0.1283
   12MOL   C241 7743   5.572   1.738   4.726 -0.4540 -0.0061 -0.3101
   12MOL   C242 7744   5.596   1.774   4.859  0.2681  0.8509 -0.0013
   12MOL   O243 7745   5.506   1.751   4.959  0.5747 -0.7774  0.1496
   12MOL   C244 7746   5.701   1.855   4.883 -0.2168  0.0469  0.8607
   12MOL   C245 7747   5.788   1.907   4.784  0.4883  0.2304  0.2839
   12MOL   C246 7748   5.759   1.873   4.650  0.4641  0.8055  1.2054
   12MOL   C247 7749   5.858   1.922   4.546  0.7059  0.8697  0.0781
   12MOL   O248 7750   5.979   1.925   4.570  0.6362 -0.0146  0.1920
   12MOL   C249 7751   5.798   1.950   4.409 -0.4214  0.1733 -0.1773
   12MOL   C250 7752   5.696   2.053   4.397 -0.4806 -0.9823 -0.2301
   12MOL   C251 7753   5.651   2.095   4.269 -0.3067  0.2361 -0.5963
   12MOL   C252 7754   5.683   2.018   4.160  0.0262 -0.2088 -0.4357
   12MOL   O253 7755   5.619   2.048   4.041  0.3385 -0.7050  0.3637
   12MOL   C254 7756   5.602   1.948   3.957 -0.3053  0.8344 -0.1089
   12MOL   C255 7757   5.697   1.917   3.858 -0.3637  0.7968  0.3050
   12MOL   C256 7758   5.680   1.796   3.786 -0.3133  0.2696 -0.2897
   12MOL   C257 7759   5.573   1.709   3.808  0.5199  0.1809 -0.2428
   12MOL   C258 7760   5.474   1.749   3.901 -0.2557 -0.3379  0.2191
   12MOL   C259 7761   5.490   1.867   3.976  0.3625 -0.5275  0.1574
   12MOL   C260 7762   5.783   1.917   4.174  0.5754 -0.0887  0.3497
   12MOL   C261 7763   5.846   1.891   4.295 -0.0270 -0.2936  0.3807
   12MOL   H262 7764   5.641   1.760   4.517 -1.0021  0.9805 -0.0820
   12MOL   H263 7765   5.482   1.684   4.700 -0.8575 -0.8210  2.5980
   12MOL   H264 7766   5.720   1.890   4.984 -2.6850  1.5848  0.8422
   12MOL   H265 7767   5.876   1.966   4.805 -0.0996  0.3318  2.6766
   12MOL   H266 7768   5.658   2.116   4.476 -0.6023 -0.6063 -0.5850
   12MOL   H267 7769   5.590   2.181   4.250 -1.2111 -0.1078  0.6743
   12MOL   H268 7770   5.783   1.979   3.837  1.4293 -1.1812  1.6029
   12MOL   H269 7771   5.748   1.774   3.705  0.8946  1.2730  0.4248
   12MOL   H270 7772   5.389   1.683   3.917  0.0570 -1.5378 -2.6027
   12MOL   H271 7773   5.415   1.885   4.052 -0.0703  0.4279 -0.4899
   12MOL   H272 7774   5.817   1.862   4.088  0.0125  2.1864 -1.3599
   12MOL   H273 7775   5.912   1.806   4.298 -0.8939 -0.9463  0.8265
   12MOL   C274 7776   5.799   1.320   3.724  0.6720  0.0596 -1.0521
   12MOL   C275 7777   5.729   1.439   3.690 -0.5148  0.0850  0.3608
   12MOL   C276 7778   5.623   1.488   3.765  0.1621  0.4089 -0.1315
   12MOL   O277 7779   5.557   1.600   3.727 -0.3125  0.4229 -0.6782
   12MOL   C278 7780   5.578   1.416   3.879 -0.2895  0.1290 -0.1771
   12MOL   C279 7781   5.644   1.296   3.914  0.1814 -0.2211  0.5056
   12MOL   C280 7782   5.759   1.249   3.838  0.0830 -0.5278 -0.1170
   12MOL   C281 7783   5.841   1.132   3.884 -0.1003  0.2373  0.0357
   12MOL   O282 7784   5.926   1.144   3.974  0.2608 -0.0607  0.7909
   12MOL   C283 7785   5.829   0.998   3.811  0.5946 -0.2394  0.6331
   12MOL   C284 7786   5.709   0.971   3.734 -0.0779  0.3659  1.1778
   12MOL   C285 7787   5.708   0.848   3.668 -0.3093 -0.6229  0.4066
   12MOL   C286 7788   5.808   0.746   3.681 -0.4488  0.1699 -0.1532
   12MOL   O287 7789   5.802   0.630   3.607 -0.3935 -0.2514 -0.1041
   12MOL   C288 7790   5.697   0.557   3.652  0.4200 -1.2243 -0.2984
   12MOL   C289 7791   5.563   0.562   3.610  0.1904 -0.0480 -0.6982
   12MOL   C290 7792   5.460   0.473   3.660 -0.3236 -0.0206  0.8737
   12MOL   C291 7793   5.501   0.369   3.748 -0.6179  0.6376 -0.1219
   12MOL   C292 7794   5.643   0.362   3.787 -0.3249  0.3188 -0.2711
   12MOL   C293 7795   5.734   0.456   3.747  0.0594 -0.2802  0.0554
   12MOL   C294 7796   5.915   0.777   3.767 -1.0469 -0.2876  1.0022
   12MOL   C295 7797   5.932   0.896   3.833  0.2421 -0.1398 -0.5135
   12MOL   H296 7798   5.889   1.285   3.673  2.7190  1.3593  1.5753
   12MOL   H297 7799   5.782   1.500   3.617  0.6150 -2.1611 -0.7381
   12MOL   H298 7800   5.496   1.462   3.933 -0.4782  0.4421 -0.7238
   12MOL   H299 7801   5.626   1.250   4.010 -3.6840 -0.6818 -0.3643
   12MOL   H300 7802   5.624   1.034   3.714  0.4801  0.5436 -0.7924
   12MOL   H301 7803   5.618   0.814   3.618 -0.0389 -0.9024  0.1003
   12MOL   H302 7804   5.536   0.636   3.536 -2.2045 -1.2941 -1.1178
   12MOL   H303 7805   5.358   0.481   3.626 -0.3022 -3.0406 -0.0176
   12MOL   H304 7806   5.679   0.284   3.852  0.9763  1.5785  0.5406
   12MOL   H305 7807   5.837   0.446   3.778  0.4205 -0.6600 -1.2300
   12MOL   H306 7808   5.995   0.705   3.776  1.5656  2.0595 -2.1667
   12MOL   H307 7809   6.018   0.916   3.896 -1.5111  0.6096  1.7245
   12MOL   C308 7810   5.198   0.442   4.029  0.0095  0.3974 -0.7339
   12MOL   C309 7811   5.249   0.390   3.913  0.0803 -0.7164  0.7001
   12MOL   C310 7812   5.357   0.303   3.908  0.2788 -0.0492  0.3394
   12MOL   O311 7813   5.409   0.271   3.788 -0.2109 -0.8867 -0.1795
   12MOL   C312 7814   5.421   0.269   4.034  0.4643 -0.0925 -0.0099
   12MOL   C313 7815   5.366   0.316   4.153  0.4203 -0.5367  0.4400
   12MOL   C314 7816   5.255   0.398   4.151 -0.7227  0.5162  0.0398
   12MOL   C315 7817   5.207   0.464   4.273 -0.2603 -0.3369 -0.2911
   12MOL   O316 7818   5.173   0.584   4.267 -0.3426 -0.2153  0.8844
   12MOL   C317 7819   5.216   0.384   4.400 -0.2003  0.1781 -0.2882
   12MOL   C318 7820   5.110   0.305   4.442  0.0103 -0.5177  0.2966
   12MOL   C319 7821   5.113   0.235   4.560 -0.5721  0.1344 -0.5468
   12MOL   C320 7822   5.219   0.245   4.650 -0.6066 -0.7780 -0.0742
   12MOL   O321 7823   5.228   0.159   4.753 -0.0719 -0.7928 -0.1563
   12MOL   C322 7824   5.225   0.221   4.879  0.0078 -0.2029 -0.0318
   12MOL   C323 7825   5.345   0.257   4.955  0.7246 -0.6533  0.2916
   12MOL   C324 7826   5.336   0.317   5.080  0.2796  0.6117 -0.4926
   12MOL   C325 7827   5.212   0.358   5.135 -0.0670 -0.1404  0.3319
   12MOL   C326 7828   5.097   0.320   5.065 -0.2403  0.1377 -0.1993
   12MOL   C327 7829   5.103   0.250   4.943 -0.3594 -0.4209  0.0079
   12MOL   C328 7830   5.327   0.327   4.617 -0.5007  0.3881  0.3628
   12MOL   C329 7831   5.328   0.388   4.487 -0.1588  0.0831 -0.0977
   12MOL   H330 7832   5.114   0.509   4.039  0.1332  0.5173 -0.4878
   12MOL   H331 7833   5.194   0.406   3.821  0.7462  1.8052  0.6984
   12MOL   H332 7834   5.517   0.219   4.032  0.8268  0.5647  0.8690
   12MOL   H333 7835   5.426   0.303   4.242  2.6667  0.4555 -0.8953
   12MOL   H334 7836   5.023   0.300   4.377  1.4711 -0.4597 -1.7214
   12MOL   H335 7837   5.030   0.175   4.594  0.0514  1.0734  2.8143
   12MOL   H336 7838   5.435   0.228   4.904  1.4771  0.9286  0.6538
   12MOL   H337 7839   5.430   0.340   5.129  0.0858 -1.9427  1.1899
   12MOL   H338 7840   4.998   0.351   5.092 -0.9329 -3.4975  1.8572
   12MOL   H339 7841   5.017   0.239   4.878 -0.9802 -0.7254  0.8630
   12MOL   H340 7842   5.413   0.357   4.676 -0.5673 -1.1112  1.2454
   12MOL   H341 7843   5.412   0.449   4.457 -0.3051  1.7065  2.7168
   12MOL   C342 7844   4.893   0.423   5.398 -0.6584  0.4696 -0.6270
   12MOL   C343 7845   5.020   0.384   5.352 -0.6828 -0.3937 -0.1130
   12MOL   C344 7846   5.104   0.478   5.294  0.1130  0.7165  1.0899
   12MOL   O345 7847   5.218   0.428   5.246  0.6654  0.6679  1.0564
   12MOL   C346 7848   5.062   0.605   5.264  0.3278 -0.0134 -0.1621
   12MOL   C347 7849   4.929   0.648   5.290  0.3681 -0.0750 -0.2181
   12MOL   C348 7850   4.850   0.555   5.370  0.5645  0.1704 -0.1556
   12MOL   C349 7851   4.715   0.601   5.415  0.2548  0.3138 -0.0473
   12MOL   O350 7852   4.644   0.673   5.350  0.1918 -0.2962  0.2724
   12MOL   C351 7853   4.678   0.561   5.557  0.3567  0.5960  0.5969
   12MOL   C352 7854   4.775   0.561   5.660  0.2665  0.3272  0.6473
   12MOL   C353 7855   4.738   0.513   5.788 -0.4779 -0.3310 -0.4399
   12MOL   C354 7856   4.605   0.456   5.812  0.1666 -0.3840 -0.7353
   12MOL   O355 7857   4.578   0.377   5.920 -0.0133 -0.8400 -0.0408
   12MOL   C356 7858   4.565   0.443   6.040  0.0919 -0.0291  0.3537
   12MOL   C357 7859   4.437   0.462   6.084 -0.2469 -0.8411 -0.0054
   12MOL   C358 7860   4.422   0.529   6.207  0.4927  0.9669 -0.4264
   12MOL   C359 7861   4.541   0.569   6.277 -0.5453 -0.1208 -0.1300
   12MOL   C360 7862   4.670   0.540   6.234  0.2839 -0.2526 -0.2261
   12MOL   C361 7863   4.679   0.476   6.113 -0.0080  0.5614  0.0371
   12MOL   C362 7864   4.509   0.478   5.710  0.1946 -0.0937  0.2142
   12MOL   C363 7865   4.544   0.540   5.584  0.5358  0.0792  0.4470
   12MOL   H364 7866   4.834   0.355   5.459 -0.0016  0.2270 -0.2613
   12MOL   H365 7867   5.060   0.285   5.365  1.3738  0.4038 -0.2637
   12MOL   H366 7868   5.121   0.673   5.205 -0.9749 -0.3085 -1.8397
   12MOL   H367 7869   4.895   0.749   5.271  0.3546 -0.2960 -1.4165
   12MOL   H368 7870   4.878   0.590   5.640  0.5875 -0.3533  1.3053
   12MOL   H369 7871   4.809   0.517   5.869 -1.0688  0.5512  0.0324
   12MOL   H370 7872   4.349   0.433   6.029  0.3242 -0.6972 -1.0097
   12MOL   H371 7873   4.325   0.542   6.255 -0.8760 -0.4370 -2.7128
   12MOL   H372 7874   4.757   0.555   6.295  1.0227 -1.8214 -0.8935
   12MOL   H373 7875   4.777   0.439   6.086  0.3064  0.0139  1.8569
   12MOL   H374 7876   4.406   0.452   5.728  0.1640  0.5034  0.9032
   12MOL   H375 7877   4.477   0.536   5.499 -1.6617 -0.3115  2.1441
   12MOL   C376 7878   4.445   0.352   6.631 -0.1461  0.2587 -0.0241
   12MOL   C377 7879   4.518   0.433   6.537  0.3299 -0.1540  0.1760
   12MOL   C378 7880   4.466   0.555   6.492  0.1178 -0.2099  0.1974
   12MOL   O379 7881   4.529   0.628   6.397 -0.3843 -0.7978 -0.4498
   12MOL   C380 7882   4.351   0.602   6.556  0.5701 -0.4118 -1.2290
   12MOL   C381 7883   4.289   0.531   6.662  0.2619  0.1368 -0.0574
   12MOL   C382 7884   4.329   0.400   6.691 -0.8908 -0.8156  0.1368
   12MOL   C383 7885   4.267   0.317   6.797  0.4478 -0.1632  0.0835
   12MOL   O384 7886   4.225   0.371   6.901 -0.5734 -0.0243  0.5130
   12MOL   C385 7887   4.271   0.164   6.786  0.8900  0.8529 -0.8227
   12MOL   C386 7888   4.235   0.100   6.664 -0.2561 -0.5267  0.4127
   12MOL   C387 7889   4.232   8.275   6.660 -0.4126  0.5924  0.4166
   12MOL   C388 7890   4.264   8.199   6.778  0.2749  0.0491  1.1449
   12MOL   O389 7891   4.254   8.060   6.780 -0.0915  0.2652  0.4792
   12MOL   C390 7892   4.335   7.975   6.706  0.2837  0.3859 -0.9655
   12MOL   C391 7893   4.473   7.993   6.707 -0.0321 -0.1670 -0.2077
   12MOL   C392 7894   4.561   7.907   6.641  0.0660 -0.6140 -0.1180
   12MOL   C393 7895   4.510   7.800   6.564 -0.5503 -0.6336  0.4436
   12MOL   C394 7896   4.372   7.790   6.549 -0.1050  0.0980 -0.3708
   12MOL   C395 7897   4.288   7.876   6.617  0.1578  0.4836  0.8463
   12MOL   C396 7898   4.306   8.262   6.898 -0.1137  0.0698 -0.7891
   12MOL   C397 7899   4.301   0.089   6.901 -0.5470 -0.2632  0.3952
   12MOL   H398 7900   4.485   0.254   6.653  1.0044  0.7141 -0.0515
   12MOL   H399 7901   4.610   0.401   6.491  0.7394  2.5861 -0.9623
   12MOL   H400 7902   4.314   0.699   6.524  1.5674  0.7389  1.0170
   12MOL   H401 7903   4.202   0.563   6.716 -0.0599 -0.5821 -0.1394
   12MOL   H402 7904   4.215   0.155   6.573 -2.4007 -2.2510 -0.2114
   12MOL   H403 7905   4.205   8.220   6.571 -0.1775  1.5108 -0.2268
   12MOL   H404 7906   4.510   8.077   6.764  0.8382 -0.1676 -0.7657
   12MOL   H405 7907   4.668   7.921   6.632  0.2040 -1.4866  0.0641
   12MOL   H406 7908   4.335   7.710   6.486 -0.9171 -0.0179  0.2445
   12MOL   H407 7909   4.181   7.870   6.599 -0.1303 -0.9895  2.8759
   12MOL   H408 7910   4.335   8.202   6.983 -0.8090  0.8528  0.0074
   12MOL   H409 7911   4.335   0.146   6.987 -1.7255 -0.8493  1.2714
   12MOL   C410 7912   4.602   7.377   6.687  0.2193 -0.3024  0.7493
   12MOL   C411 7913   4.569   7.481   6.592  0.0380  0.1231  0.0845
   12MOL   C412 7914   4.628   7.604   6.600  0.0269  0.0729  0.6930
   12MOL   O413 7915   4.589   7.704   6.510 -0.1488 -0.2575  0.1513
   12MOL   C414 7916   4.720   7.627   6.706  0.1826 -0.3710  0.5023
   12MOL   C415 7917   4.754   7.528   6.800  0.3075  0.0815  0.2461
   12MOL   C416 7918   4.695   7.403   6.786  0.6295 -0.4431 -0.3218
   12MOL   C417 7919   4.726   7.298   6.886 -0.9873 -0.4900 -0.1811
   12MOL   O418 7920   4.654   7.205   6.913 -0.1005  0.0883 -0.2797
   12MOL   C419 7921   4.852   7.298   6.952 -0.7761 -0.0352  0.3666
   12MOL   C420 7922   4.852   7.257   7.085 -1.2654 -0.2304 -0.7494
   12MOL   C421 7923   4.979   7.223   7.149  0.3142 -0.1638  0.4823
   12MOL   C422 7924   5.099   7.252   7.086 -0.1845 -0.5464 -0.3404
   12MOL   O423 7925   5.217   7.231   7.159  0.0863  0.4369 -0.4689
   12MOL   C424 7926   5.278   7.339   7.214 -0.7463  0.1929  0.6317
   12MOL   C425 7927   5.411   7.326   7.260  0.3656 -0.5438  0.6723
   12MOL   C426 7928   5.477   7.433   7.320 -0.1916 -0.1934 -0.3737
   12MOL   C427 7929   5.410   7.561   7.342 -0.5808  0.0353 -0.0778
   12MOL   C428 7930   5.279   7.579   7.292 -1.0673 -0.2920 -0.1952
   12MOL   C429 7931   5.213   7.469   7.238 -0.5025  0.1433 -0.1206
   12MOL   C430 7932   5.096   7.292   6.954  0.1969 -0.5488  0.2751
   12MOL   C431 7933   4.974   7.315   6.886 -0.1295  0.2796  0.1744
   12MOL   H432 7934   4.546   7.284   6.681  0.8367 -0.5721 -1.0559
   12MOL   H433 7935   4.498   7.461   6.513  0.6742  3.2059 -1.3487
   12MOL   H434 7936   4.768   7.724   6.713 -0.7666  0.2564 -1.2558
   12MOL   H435 7937   4.820   7.554   6.881 -0.8616 -1.0074  1.5828
   12MOL   H436 7938   4.759   7.239   7.136  0.1267 -3.1030  0.9328
   12MOL   H437 7939   4.974   7.193   7.253  2.2089 -0.9023  0.3640
   12MOL   H438 7940   5.458   7.228   7.253  1.4828  0.0454 -0.4123
   12MOL   H439 7941   5.576   7.409   7.356 -0.5782 -0.8567  0.2616
   12MOL   H440 7942   5.223   7.669   7.316  0.4841  0.9014 -0.9628
   12MOL   H441 7943   5.108   7.483   7.218 -0.3707 -0.2474 -1.1345
   12MOL   H442 7944   5.183   7.309   6.893  0.2381  0.3168  0.5659
   12MOL   H443 7945   4.977   7.335   6.780  0.0575  2.2877  0.5500
   12MOL   C444 7946   5.514   7.911   7.111  0.0851  0.0896 -0.3558
   12MOL   C445 7947   5.462   7.816   7.198 -0.4366  0.6771 -0.8037
   12MOL   C446 7948   5.535   7.768   7.309 -0.4698  0.1932  0.6659
   12MOL   O447 7949   5.485   7.666   7.400 -1.0105  0.4558 -0.0373
   12MOL   C448 7950   5.664   7.825   7.331  0.0242  0.3285  0.3001
   12MOL   C449 7951   5.718   7.923   7.242  0.6638 -0.1419  0.5729
   12MOL   C450 7952   5.644   7.960   7.128 -0.1048 -0.3859 -0.1913
   12MOL   C451 7953   5.712   8.060   7.042 -0.7474  0.1705  0.0189
   12MOL   O452 7954   5.834   8.054   7.039 -0.5486 -0.1083  0.1320
   12MOL   C453 7955   5.634   8.156   6.977 -0.2330  0.1751  0.0714
   12MOL   C454 7956   5.665   8.193   6.845 -0.1907  0.4853 -0.4487
   12MOL   C455 7957   5.596   8.283   6.771 -0.1069 -0.3515 -0.4492
   12MOL   C456 7958   5.480   0.031   6.828 -0.1346  0.2722 -1.0576
   12MOL   O457 7959   5.408   0.118   6.753  1.0499 -0.3705  0.4799
   12MOL   C458 7960   5.293   0.072   6.687  0.4919  0.1616  0.0318
   12MOL   C459 7961   5.269   8.251   6.637 -0.0759 -0.2235  0.2655
   12MOL   C460 7962   5.154   8.220   6.562  0.6360  0.1331  0.7479
   12MOL   C461 7963   5.056   0.010   6.541 -0.0518  0.3749 -0.3889
   12MOL   C462 7964   5.083   0.141   6.589  0.1067  0.1620 -0.0232
   12MOL   C463 7965   5.202   0.169   6.660 -0.2039  0.7127  0.2639
   12MOL   C464 7966   5.446   8.308   6.962  0.3310  0.4655 -0.3321
   12MOL   C465 7967   5.521   8.214   7.039  0.0959 -0.1286  0.2363
   12MOL   H466 7968   5.451   7.935   7.026 -0.1235  0.0553 -0.2100
   12MOL   H467 7969   5.361   7.784   7.177 -0.8169  1.7710 -0.7088
   12MOL   H468 7970   5.720   7.798   7.419  1.2523  1.3199 -0.1605
   12MOL   H469 7971   5.813   7.972   7.259 -0.2131  2.0199 -0.5226
   12MOL   H470 7972   5.749   8.141   6.800 -0.1473  0.9009 -0.8462
   12MOL   H471 7973   5.639   8.298   6.673  2.3690 -0.2244  0.6221
   12MOL   H472 7974   5.339   8.170   6.653 -1.1474 -0.6584  3.0571
   12MOL   H473 7975   5.160   8.120   6.523  0.6233  0.7522 -0.8764
   12MOL   H474 7976   5.007   0.213   6.564 -1.4875 -1.1135  1.0390
   12MOL   H475 7977   5.212   0.263   6.713  1.2960  0.7182  0.0161
   12MOL   H476 7978   5.344   0.012   6.993 -0.0137 -2.0367  0.0178
   12MOL   H477 7979   5.492   8.180   7.137 -0.2094  2.9688  1.2627
   12MOL   C478 7980   4.825   0.169   6.160 -0.7393 -0.1970  0.3857
   12MOL   C479 7981   4.832   0.103   6.283  0.1450  0.3473 -0.1539
   12MOL   C480 7982   4.948   0.055   6.337 -0.2578 -0.0934  0.0193
   12MOL   O481 7983   4.947   8.300   6.455  0.1913  0.0329  0.2879
   12MOL   C482 7984   5.064   0.072   6.265  0.8549 -0.3455 -0.2280
   12MOL   C483 7985   5.060   0.131   6.136  0.1983  0.0664 -0.5680
   12MOL   C484 7986   4.940   0.171   6.077 -0.3665  0.2348  0.7182
   12MOL   C485 7987   4.936   0.218   5.940  0.5985 -0.2811 -0.1547
   12MOL   O486 7988   4.865   0.164   5.855  0.0751 -0.1272 -0.5551
   12MOL   C487 7989   5.022   0.333   5.911  0.7213  0.2054  0.1986
   12MOL   C488 7990   5.037   0.378   5.779 -0.0695 -0.1543 -0.2616
   12MOL   C489 7991   5.109   0.489   5.752 -1.0774  0.5394  0.4361
   12MOL   C490 7992   5.163   0.572   5.851 -0.2840  0.2655  0.4914
   12MOL   O491 7993   5.221   0.690   5.827 -0.2810  0.2576  0.3072
   12MOL   C492 7994   5.151   0.798   5.790 -0.2231 -0.0879 -0.5120
   12MOL   C493 7995   5.023   0.832   5.842 -0.3728 -0.1201 -0.8967
   12MOL   C494 7996   4.950   0.945   5.804 -0.4490 -0.1892  0.2465
   12MOL   C495 7997   5.013   1.031   5.717 -0.2515 -0.1140  0.0470
   12MOL   C496 7998   5.145   1.005   5.669  0.4011 -0.5390 -0.4494
   12MOL   C497 7999   5.208   0.885   5.701  0.3460 -0.3844 -0.1383
   12MOL   C498 8000   5.152   0.529   5.986 -0.0471 -0.3326 -0.6870
   12MOL   C499 8001   5.081   0.411   6.020 -0.1632 -0.0492 -0.0885
   12MOL   H500 8002   4.726   0.183   6.119  0.2713  1.6837 -1.5034
   12MOL   H501 8003   4.739   0.090   6.338  0.5794  0.9549  0.7297
   12MOL   H502 8004   5.153   0.026   6.304  3.0363  1.9465 -2.3241
   12MOL   H503 8005   5.153   0.122   6.081 -0.1635 -2.3572 -0.8319
   12MOL   H504 8006   4.994   0.323   5.697 -0.2105  1.7504 -1.4992
   12MOL   H505 8007   5.125   0.522   5.650  3.0695 -0.2514  0.7226
   12MOL   H506 8008   4.970   0.779   5.920  1.3956  2.2434  2.0175
   12MOL   H507 8009   4.854   0.974   5.845  0.0565  1.7338  0.1050
   12MOL   H508 8010   5.194   1.082   5.611 -2.4276  0.3977 -1.6803
   12MOL   H509 8011   5.306   0.865   5.659  0.2727  1.3678 -1.2026
   12MOL   H510 8012   5.190   0.586   6.070 -0.0067  0.0968 -0.9921
   12MOL   H511 8013   5.072   0.391   6.125  0.6686 -0.2932 -0.0581
   12MOL   C512 8014   5.167   1.428   5.847  0.1935 -0.4063  0.2190
   12MOL   C513 8015   5.094   1.308   5.840 -0.2358  0.9009  0.3365
   12MOL   C514 8016   5.031   1.272   5.720  0.0034 -0.2074  0.1040
   12MOL   O515 8017   4.958   1.153   5.693  0.8151 -0.2653 -0.1417
   12MOL   C516 8018   5.043   1.359   5.604 -0.3291 -0.1108 -0.0405
   12MOL   C517 8019   5.110   1.484   5.623  0.1867 -0.2277 -0.2979
   12MOL   C518 8020   5.181   1.523   5.743  0.0059  0.6475  0.2228
   12MOL   C519 8021   5.252   1.646   5.757 -0.0961  1.0255  0.1698
   12MOL   O520 8022   5.239   1.731   5.665 -0.0173 -0.3098 -0.2410
   12MOL   C521 8023   5.341   1.674   5.871  0.4189 -0.3367  0.0885
   12MOL   C522 8024   5.360   1.806   5.921  1.2282  0.6097 -0.5138
   12MOL   C523 8025   5.431   1.833   6.040 -0.1339 -0.0274  0.3282
   12MOL   C524 8026   5.498   1.729   6.104  0.3280 -0.3478  0.5160
   12MOL   O525 8027   5.564   1.758   6.217 -0.5242 -0.0726  0.3165
   12MOL   C526 8028   5.696   1.765   6.203  0.3406  0.4405 -0.0323
   12MOL   C527 8029   5.771   1.649   6.227 -0.9622  0.1943 -0.0953
   12MOL   C528 8030   5.914   1.662   6.217  0.5619 -0.2323 -0.2787
   12MOL   C529 8031   5.975   1.792   6.201 -0.3354 -1.0057  0.2700
   12MOL   C530 8032   5.895   1.897   6.161 -0.1002  0.1201 -0.0448
   12MOL   C531 8033   5.755   1.884   6.161 -0.3293 -0.3718 -0.0233
   12MOL   C532 8034   5.497   1.604   6.046  0.4675  0.3426 -0.3851
   12MOL   C533 8035   5.415   1.576   5.933  0.3804  0.3365 -0.2313
   12MOL   H534 8036   5.200   1.443   5.949 -0.8316  0.7286  0.3940
   12MOL   H535 8037   5.071   1.239   5.920  2.0994  0.8735  1.0314
   12MOL   H536 8038   5.010   1.327   5.506 -0.6251  0.4991 -0.1379
   12MOL   H537 8039   5.119   1.545   5.535  0.6460 -0.0726 -0.1431
   12MOL   H538 8040   5.301   1.888   5.883  0.0446 -0.4418 -1.0001
   12MOL   H539 8041   5.425   1.934   6.077  0.7731  0.5579 -1.0632
   12MOL   H540 8042   5.731   1.553   6.256 -1.2317 -0.1247 -1.4945
   12MOL   H541 8043   5.979   1.582   6.247  1.5779  1.2663  1.6041
   12MOL   H542 8044   5.939   1.993   6.139 -1.4974  1.0805  1.2653
   12MOL   H543 8045   5.689   1.969   6.150  0.8007  0.5026 -0.1638
   12MOL   H544 8046   5.547   1.522   6.096 -0.3644  0.8757  1.3717
   12MOL   H545 8047   5.418   1.477   5.891  3.4534 -0.1750  1.0391
   12MOL   C546 8048   6.371   1.914   6.452 -0.7424  0.1865 -0.5598
   12MOL   C547 8049   6.301   1.898   6.328  0.0065 -0.6094  0.3514
   12MOL   C548 8050   6.183   1.824   6.319 -0.0810  0.0079 -0.1757
   12MOL   O549 8051   6.115   1.804   6.202  0.8890 -0.5667  1.0576
   12MOL   C550 8052   6.134   1.773   6.443 -0.3139  0.2514  0.2914
   12MOL   C551 8053   6.198   1.786   6.563 -0.2023 -0.1907 -0.1574
   12MOL   C552 8054   6.320   1.853   6.566  1.3221 -0.1683 -1.1763
   12MOL   C553 8055   6.394   1.862   6.695  0.4480 -0.8312  0.1409
   12MOL   O554 8056   6.350   1.807   6.796  0.3167 -0.7147  0.6434
   12MOL   C555 8057   6.536   1.913   6.706  0.6317  0.1221 -0.5457
   12MOL   C556 8058   6.565   2.010   6.800 -0.0798 -0.2197  0.1486
   12MOL   C557 8059   6.701   2.043   6.826  0.4013 -0.0222  0.1395
   12MOL   C558 8060   6.806   1.988   6.747  0.3024  0.3442 -0.7773
   12MOL   O559 8061   6.934   2.032   6.769  0.3065  0.5124 -0.0153
   12MOL   C560 8062   7.028   2.033   6.667  0.1945 -0.0954 -0.0594
   12MOL   C561 8063   7.142   1.955   6.685  0.2491 -0.2261 -0.4919
   12MOL   C562 8064   7.229   1.936   6.576  0.1261  0.8356 -0.0621
   12MOL   C563 8065   7.213   2.008   6.457  0.0821  0.1659  0.3526
   12MOL   C564 8066   7.110   2.101   6.442 -0.2131 -0.1147  0.0200
   12MOL   C565 8067   7.013   2.116   6.544  0.1676 -0.2381 -0.2215
   12MOL   C566 8068   6.777   1.891   6.648 -0.2665  0.1720 -0.0930
   12MOL   C567 8069   6.644   1.855   6.624  0.0193  0.2866  0.7074
   12MOL   H568 8070   6.464   1.969   6.455 -1.4339  1.3356  0.5633
   12MOL   H569 8071   6.333   1.945   6.236 -1.2797  2.3386  1.3545
   12MOL   H570 8072   6.040   1.720   6.436 -0.4286  0.6914 -2.2302
   12MOL   H571 8073   6.177   1.740   6.658 -2.0694  0.3756 -0.2904
   12MOL   H572 8074   6.483   2.049   6.858 -1.3745  0.6318 -2.2050
   12MOL   H573 8075   6.726   2.105   6.910  0.6389 -0.8991  0.7210
   12MOL   H574 8076   7.158   1.903   6.778 -0.9052  1.0007  0.4131
   12MOL   H575 8077   7.299   1.857   6.599 -3.1150 -2.5734 -1.2850
   12MOL   H576 8078   7.103   2.163   6.353 -2.2944  0.2108  0.3686
   12MOL   H577 8079   6.934   2.189   6.533  0.2915 -0.0915 -0.1421
   12MOL   H578 8080   6.862   1.850   6.596 -0.7367 -0.9822  0.0374
   12MOL   H579 8081   6.621   1.786   6.545  0.1711 -1.3865  2.1144
   12MOL   C580 8082   7.206   1.634   6.259  0.1601  0.5834  0.5797
   12MOL   C581 8083   7.210   1.757   6.326  0.0294 -0.5692 -1.0747
   12MOL   C582 8084   7.301   1.860   6.292 -0.6102  0.0451  0.7769
   12MOL   O583 8085   7.296   1.983   6.359 -0.2796 -0.1265 -0.1675
   12MOL   C584 8086   7.374   1.837   6.175  0.5447 -0.5624  0.5653
   12MOL   C585 8087   7.359   1.722   6.090  0.3124 -0.0728  0.1163
   12MOL   C586 8088   7.274   1.617   6.136 -0.2523 -0.1169 -0.5042
   12MOL   C587 8089   7.235   1.506   6.040  0.4285 -0.0930 -0.2680
   12MOL   O588 8090   7.230   1.524   5.919 -0.4584 -0.5282  0.2374
   12MOL   C589 8091   7.167   1.379   6.087  0.3433  0.9623 -0.0883
   12MOL   C590 8092   7.219   1.315   6.202 -0.0778 -0.1070  0.2829
   12MOL   C591 8093   7.172   1.185   6.244  0.0528 -0.4980  0.2941
   12MOL   C592 8094   7.078   1.118   6.165 -0.1360 -0.2515  0.6995
   12MOL   O593 8095   7.041   0.984   6.200  0.1264 -0.1929  0.0652
   12MOL   C594 8096   6.910   0.952   6.221  0.1089  0.3019 -0.4905
   12MOL   C595 8097   6.844   0.848   6.146  0.0121  0.4446  0.3019
   12MOL   C596 8098   6.707   0.830   6.156 -0.3944  0.0937 -0.2550
   12MOL   C597 8099   6.629   0.914   6.242  0.5803 -0.1787 -0.1941
   12MOL   C598 8100   6.697   1.006   6.332  1.1385 -0.0339  0.5224
   12MOL   C599 8101   6.834   1.031   6.312  0.5645 -0.2627  0.7696
   12MOL   C600 8102   7.015   1.190   6.059  0.1519 -0.2183 -0.2225
   12MOL   C601 8103   7.060   1.315   6.015 -0.0499  0.3866 -0.5762
   12MOL   H602 8104   7.137   1.555   6.288  0.4437 -1.4603 -3.8755
   12MOL   H603 8105   7.143   1.765   6.411  1.2153  0.4159 -0.2141
   12MOL   H604 8106   7.450   1.908   6.146  1.7583 -1.8507  0.5501
   12MOL   H605 8107   7.406   1.711   5.994 -0.6513  0.8909 -0.4650
   12MOL   H606 8108   7.304   1.351   6.259  1.6501 -2.8610 -0.4476
   12MOL   H607 8109   7.220   1.135   6.327 -0.1320 -0.0692  0.6558
   12MOL   H608 8110   6.904   0.798   6.071 -0.1721 -0.2180  0.5962
   12MOL   H609 8111   6.650   0.774   6.085  1.4658 -1.3853 -0.6240
   12MOL   H610 8112   6.653   1.052   6.419 -1.7175 -0.6588 -0.5202
   12MOL   H611 8113   6.890   1.100   6.374 -0.0525 -1.0241  2.2088
   12MOL   H612 8114   6.943   1.146   5.992 -2.5716  1.4466  1.5023
   12MOL   H613 8115   7.013   1.358   5.928 -0.0060  0.1643 -0.7127
   12MOL   C614 8116   6.393   1.124   5.964 -0.5103  1.0637  0.5085
   12MOL   C615 8117   6.470   1.026   6.039 -0.3762  0.4832 -0.2976
   12MOL   C616 8118   6.427   0.988   6.170  0.2993  0.5990 -0.0123
   12MOL   O617 8119   6.491   0.901   6.248 -0.6939  0.0564 -0.5582
   12MOL   C618 8120   6.312   1.047   6.219 -0.4107  0.6013 -0.1359
   12MOL   C619 8121   6.231   1.139   6.144  0.0335 -0.5361 -0.0933
   12MOL   C620 8122   6.270   1.179   6.012 -0.5974  0.2674 -0.2075
   12MOL   C621 8123   6.192   1.276   5.927 -0.5129 -0.4314 -0.0153
   12MOL   O622 8124   6.252   1.350   5.847  0.0770 -0.2290 -0.1625
   12MOL   C623 8125   6.043   1.287   5.942  0.3709  1.0969 -0.1521
   12MOL   C624 8126   5.977   1.411   5.956  0.5244 -0.3854 -0.0282
   12MOL   C625 8127   5.838   1.416   5.960  1.1720 -0.0838  0.1429
   12MOL   C626 8128   5.757   1.303   5.956 -0.2000  0.3007  0.5523
   12MOL   O627 8129   5.619   1.309   5.954  0.0100 -0.0677 -0.2971
   12MOL   C628 8130   5.550   1.216   6.026  0.4301  0.7715  0.6059
   12MOL   C629 8131   5.509   1.098   5.954 -0.0909  0.1863  0.6196
   12MOL   C630 8132   5.429   0.997   6.011  0.0597 -0.3471  0.1334
   12MOL   C631 8133   5.405   1.013   6.146  0.1573  0.3349 -0.0150
   12MOL   C632 8134   5.450   1.123   6.218 -0.2326  0.2519 -0.1855
   12MOL   C633 8135   5.525   1.227   6.163  0.1243 -0.9134 -0.2010
   12MOL   C634 8136   5.826   1.181   5.946  0.5699 -0.6742  0.5714
   12MOL   C635 8137   5.965   1.167   5.952  0.3724 -1.5563 -0.2511
   12MOL   H636 8138   6.435   1.144   5.866  0.1068  1.5166  0.8586
   12MOL   H637 8139   6.568   0.997   6.004 -0.4189  1.1566 -0.9992
   12MOL   H638 8140   6.279   1.030   6.320  0.6377  1.1600  0.3151
   12MOL   H639 8141   6.137   1.168   6.187  0.5700  2.8808 -1.0827
   12MOL   H640 8142   6.037   1.500   5.954 -0.3850  0.2109 -1.4413
   12MOL   H641 8143   5.784   1.510   5.949  0.5339 -0.5143 -0.4655
   12MOL   H642 8144   5.541   1.095   5.851 -2.5839  3.1493 -0.3404
   12MOL   H643 8145   5.404   0.905   5.960  1.1492 -0.6035  0.0501
   12MOL   H644 8146   5.414   1.124   6.320 -0.7500 -0.6742 -0.3561
   12MOL   H645 8147   5.550   1.318   6.216  1.2861 -1.3255 -0.0478
   12MOL   H646 8148   5.763   1.094   5.946 -1.9790  1.0774 -2.2291
   12MOL   H647 8149   6.003   1.067   5.939  1.9136 -1.2420  1.6510
   12MOL   C648 8150   4.971   1.001   6.138 -0.3325 -0.4143  0.3133
   12MOL   C649 8151   5.112   1.009   6.133  0.0501  0.0352 -0.2644
   12MOL   C650 8152   5.192   0.928   6.220  0.5184 -0.2623  0.7063
   12MOL   O651 8153   5.330   0.919   6.215  0.7152 -0.0618 -0.4540
   12MOL   C652 8154   5.126   0.861   6.324  0.3147 -0.1314 -0.3319
   12MOL   C653 8155   4.986   0.845   6.327 -0.2996  0.5535  0.2127
   12MOL   C654 8156   4.905   0.920   6.238 -0.0438  0.6123 -0.6569
   12MOL   C655 8157   4.761   0.892   6.227  0.4709  0.5100 -0.2158
   12MOL   O656 8158   4.731   0.854   6.116  0.2200  0.7504  0.1112
   12MOL   C657 8159   4.672   0.953   6.327  0.4301 -0.5650 -0.2636
   12MOL   C658 8160   4.531   0.940   6.302  0.1722 -0.1464  0.4571
   12MOL   C659 8161   4.441   0.978   6.411  0.2483 -0.0628  0.4291
   12MOL   C660 8162   4.493   1.057   6.512  0.0958 -0.3991 -0.3096
   12MOL   O661 8163   4.401   1.090   6.612 -0.1230  0.1652 -0.3061
   12MOL   C662 8164   4.452   1.147   6.724  0.5994 -0.0437 -0.4145
   12MOL   C663 8165   4.450   1.286   6.748  0.5948 -0.2266 -0.4003
   12MOL   C664 8166   4.504   1.338   6.867 -0.1314 -0.4885  0.2672
   12MOL   C665 8167   4.571   1.245   6.952  0.1143  0.3669 -0.2775
   12MOL   C666 8168   4.569   1.110   6.938  1.0026 -0.6040  0.0647
   12MOL   C667 8169   4.514   1.062   6.820 -0.5106  0.4463  0.3377
   12MOL   C668 8170   4.634   1.076   6.530  0.3791  0.2911  0.4107
   12MOL   C669 8171   4.727   1.014   6.445 -0.1412  0.6263  0.9827
   12MOL   H670 8172   4.909   1.061   6.072 -0.0428  0.7683  1.1008
   12MOL   H671 8173   5.149   1.077   6.058  1.1310 -0.9803 -0.6676
   12MOL   H672 8174   5.186   0.803   6.393  0.5198 -1.0920 -1.3034
   12MOL   H673 8175   4.947   0.787   6.409 -0.1266 -0.1667 -0.2109
   12MOL   H674 8176   4.495   0.883   6.218  0.3893  1.4858 -0.7654
   12MOL   H675 8177   4.335   0.957   6.410  0.1897  0.2124  0.7573
   12MOL   H676 8178   4.400   1.351   6.679  0.4241 -0.0116 -0.0702
   12MOL   H677 8179   4.492   1.444   6.885 -2.6099  0.0057 -3.6426
   12MOL   H678 8180   4.612   1.042   7.010  1.7205 -2.1099 -1.7459
   12MOL   H679 8181   4.512   0.957   6.794 -0.4794  0.1432  1.5299
   12MOL   H680 8182   4.684   1.125   6.612  1.3277 -0.2686  0.1756
   12MOL   H681 8183   4.832   1.024   6.469  0.6884 -2.4185 -1.0441
   12MOL   H682 8184   4.614   1.285   7.042  0.4435 -0.0299 -0.2579
   13MOL     C1 8185   5.096   7.216   7.532 -0.1105 -1.0377 -0.2305
   13MOL     C2 8186   4.991   7.314   7.545  0.1012 -0.2575  0.2493
   13MOL     C3 8187   4.987   7.405   7.652 -0.4932  0.9991 -0.4483
   13MOL     O4 8188   4.891   7.501   7.662 -0.1686  0.2376  0.0331
   13MOL     C5 8189   5.078   7.385   7.757  0.1523  0.1322 -0.4507
   13MOL     C6 8190   5.183   7.295   7.750 -0.4963 -0.8739  0.4416
   13MOL     C7 8191   5.200   7.216   7.631 -0.3506 -0.3149 -0.5518
   13MOL     C8 8192   5.321   7.131   7.616  0.1712 -0.8061 -0.4147
   13MOL     O9 8193   5.311   7.007   7.602 -0.2378  0.2748  0.4451
   13MOL    C10 8194   5.451   7.202   7.632  0.3157  0.7611 -0.0217
   13MOL    C11 8195   5.561   7.140   7.693  0.0007  0.2658 -0.6200
   13MOL    C12 8196   5.689   7.208   7.711 -0.1248  0.5692  0.6950
   13MOL    C13 8197   5.699   7.340   7.687  0.0682 -0.0512 -0.6187
   13MOL    O14 8198   5.816   7.404   7.729  0.0102  0.2499  0.4550
   13MOL    C15 8199   5.860   7.498   7.644  1.1015 -0.9407 -0.3654
   13MOL    C16 8200   5.945   7.465   7.540  0.5389  0.1477  1.2316
   13MOL    C17 8201   6.012   7.565   7.469 -0.7599 -0.7791  0.0031
   13MOL    C18 8202   5.987   7.705   7.495  0.6538  0.0341 -0.4597
   13MOL    C19 8203   5.893   7.732   7.594  0.0189  0.0462 -0.5729
   13MOL    C20 8204   5.830   7.633   7.669  0.3884 -0.5750  0.0575
   13MOL    C21 8205   5.584   7.409   7.646  0.1676  0.4758 -0.2131
   13MOL    C22 8206   5.464   7.339   7.611 -0.0796  1.1585  0.3847
   13MOL    H23 8207   5.099   7.149   7.447  1.7235 -1.9085  0.4983
   13MOL    H24 8208   4.907   7.317   7.477  0.2795  1.5821  0.1078
   13MOL    H25 8209   5.071   7.445   7.846  1.8692  0.5802 -0.6056
   13MOL    H26 8210   5.249   7.281   7.835  1.7170  0.3947 -0.9990
   13MOL    H27 8211   5.561   7.035   7.716  0.1097  0.4526  0.2416
   13MOL    H28 8212   5.771   7.150   7.751 -0.3821  1.0343  1.8901
   13MOL    H29 8213   5.959   7.359   7.524 -0.4898  0.0746  0.7729
   13MOL    H30 8214   6.081   7.545   7.388 -0.0999 -2.2323  0.9162
   13MOL    H31 8215   5.868   7.833   7.623 -4.8961 -1.0677 -0.5040
   13MOL    H32 8216   5.768   7.652   7.756  0.4990 -1.6743  0.3793
   13MOL    H33 8217   5.597   7.516   7.636  2.8572  0.2182  0.2086
   13MOL    H34 8218   5.387   7.400   7.566 -1.3185  0.7651  1.9309
   13MOL    H35 8219   4.819   7.452   7.625  0.1619  0.5237 -1.0069
   13MOL    C36 8220   6.399   7.802   7.477  0.3343 -0.4527  1.0784
   13MOL    C37 8221   6.260   7.772   7.491 -0.2217  0.0283 -0.0836
   13MOL    C38 8222   6.166   7.820   7.397 -0.0153 -0.8466  0.0310
   13MOL    O39 8223   6.027   7.812   7.420 -0.2363  0.0593 -0.2973
   13MOL    C40 8224   6.211   7.892   7.283 -0.4600  0.2670  0.3090
   13MOL    C41 8225   6.347   7.917   7.266 -0.3134  0.4069  0.4272
   13MOL    C42 8226   6.442   7.873   7.361 -0.9545 -0.4189 -0.1793
   13MOL    C43 8227   6.584   7.924   7.347  0.6525 -0.2192 -0.2973
   13MOL    O44 8228   6.605   8.039   7.316  0.2059  0.6438  0.7535
   13MOL    C45 8229   6.694   7.832   7.395  0.0723  0.1077 -0.6078
   13MOL    C46 8230   6.692   7.697   7.363  0.1839 -0.0612  0.2277
   13MOL    C47 8231   6.804   7.619   7.401 -0.9921  0.2758  0.4120
   13MOL    C48 8232   6.908   7.675   7.479  0.2190  0.3835  0.3763
   13MOL    O49 8233   6.997   7.591   7.531 -0.1260 -0.4255 -0.9050
   13MOL    C50 8234   7.117   7.569   7.469 -0.3149  0.0154  0.3000
   13MOL    C51 8235   7.154   7.429   7.446 -0.6642  0.1652 -0.3366
   13MOL    C52 8236   7.275   7.401   7.381  0.2577 -0.2307 -0.8413
   13MOL    C53 8237   7.364   7.509   7.351  0.0345  0.0463  0.1444
   13MOL    C54 8238   7.333   7.640   7.379 -0.7069 -0.4759  0.7669
   13MOL    C55 8239   7.204   7.671   7.430 -0.0939  0.2748 -0.1231
   13MOL    C56 8240   6.906   7.811   7.515 -0.8076 -0.0773 -0.0632
   13MOL    C57 8241   6.808   7.893   7.453  0.6736  0.7999  0.1564
   13MOL    H58 8242   6.460   7.768   7.559  0.3455 -1.2307  0.7497
   13MOL    H59 8243   6.225   7.722   7.580  0.4889 -0.7339 -0.2264
   13MOL    H60 8244   6.143   7.912   7.201  0.4773 -0.1683 -0.5782
   13MOL    H61 8245   6.360   7.976   7.177  0.5788 -1.0606 -0.4477
   13MOL    H62 8246   6.615   7.648   7.305 -0.5091  1.1951  0.0622
   13MOL    H63 8247   6.797   7.512   7.391 -2.4688  0.3539  0.4828
   13MOL    H64 8248   7.087   7.348   7.474  1.5803 -1.6650 -0.0898
   13MOL    H65 8249   7.304   7.299   7.358  2.0888 -0.5853  2.7130
   13MOL    H66 8250   7.399   7.720   7.351 -0.9998  0.0130  1.4612
   13MOL    H67 8251   7.199   7.773   7.466  1.2335  0.0504  0.7654
   13MOL    H68 8252   6.986   7.836   7.583 -1.3294  2.6549 -0.4043
   13MOL    H69 8253   6.813   8.001   7.459  0.2313  0.8060  0.4274
   13MOL    C70 8254   7.790   7.568   7.452 -0.1377 -0.4581 -0.2473
   13MOL    C71 8255   7.679   7.587   7.371 -0.2139  0.2649 -0.2542
   13MOL    C72 8256   7.588   7.479   7.354 -0.2199  0.7484 -0.4892
   13MOL    O73 8257   7.478   7.482   7.278 -0.0205 -0.0652 -0.0225
   13MOL    C74 8258   7.620   7.348   7.407  0.7335  0.1790  0.3953
   13MOL    C75 8259   7.732   7.331   7.492 -0.3242  0.2168  0.0278
   13MOL    C76 8260   7.815   7.446   7.516 -0.0429 -0.4876 -0.2649
   13MOL    C77 8261   7.939   7.420   7.600 -0.5995  0.6997 -1.1882
   13MOL    O78 8262   7.936   7.340   7.697  0.2445  0.1300  0.1415
   13MOL    C79 8263   8.069   7.498   7.576  0.4315 -0.2514  0.3880
   13MOL    C80 8264   8.111   7.514   7.445 -0.1773  0.5884 -0.4892
   13MOL    C81 8265   8.247   7.560   7.417 -0.1094 -0.0516 -0.1269
   13MOL    C82 8266   0.014   7.605   7.529 -0.2311  0.4826  0.2827
   13MOL    O83 8267   0.146   7.635   7.515  0.5704  0.8388  0.1322
   13MOL    C84 8268   0.171   7.765   7.480 -0.4600  0.6119  0.5600
   13MOL    C85 8269   0.199   7.856   7.585  0.4899  0.4846 -0.2837
   13MOL    C86 8270   0.243   7.984   7.548  0.6038 -0.4729 -0.6940
   13MOL    C87 8271   0.258   8.019   7.411  0.4797  0.1121 -0.2160
   13MOL    C88 8272   0.223   7.929   7.308 -0.2558  0.0682 -0.1524
   13MOL    C89 8273   0.181   7.801   7.345 -0.2233 -0.4358  0.1326
   13MOL    C90 8274   8.266   7.599   7.660  0.2757  0.8619  0.1767
   13MOL    C91 8275   8.144   7.538   7.686  0.5674  0.1703  0.6395
   13MOL    H92 8276   7.860   7.650   7.458 -0.7102  0.2280 -2.5417
   13MOL    H93 8277   7.666   7.682   7.321  1.0675  0.7985  0.3813
   13MOL    H94 8278   7.563   7.258   7.386  2.4267 -1.1740  1.4556
   13MOL    H95 8279   7.752   7.237   7.541 -0.3210  0.2752  0.1393
   13MOL    H96 8280   8.055   7.477   7.361  1.2092 -0.2179 -1.0862
   13MOL    H97 8281   8.292   7.557   7.319  4.5523 -1.6913  1.9386
   13MOL    H98 8282   0.202   7.821   7.688  0.2149 -0.9446 -0.7547
   13MOL    H99 8283   0.271   8.052   7.626  0.3496 -0.0006 -1.0142
   13MOL   H100 8284   0.248   7.963   7.209  1.5772  1.3775  0.7348
   13MOL   H101 8285   0.166   7.727   7.267 -0.1950  0.0296 -0.3148
   13MOL   H102 8286   0.005   7.625   7.750  1.8018  0.3893 -0.5472
   13MOL   H103 8287   8.108   7.536   7.788 -1.6188  1.8224 -0.0653
   13MOL   C104 8288   0.209   0.112   7.590  0.4336 -0.1428 -0.3892
   13MOL   C105 8289   0.281   0.003   7.543 -0.4062  0.4298 -0.1262
   13MOL   C106 8290   0.238   8.250   7.429  0.3770 -0.5113 -0.6666
   13MOL   O107 8291   0.305   8.144   7.377 -0.6355 -0.3262 -0.0462
   13MOL   C108 8292   0.115   8.286   7.367 -0.5287 -0.0706  0.9607
   13MOL   C109 8293   0.046   0.082   7.412 -0.6766 -1.0123  0.5362
   13MOL   C110 8294   0.093   0.160   7.519  0.0364 -0.0687  0.4107
   13MOL   C111 8295   0.023   0.285   7.553 -0.6128 -0.2380  1.2684
   13MOL   O112 8296   0.076   0.395   7.556 -0.2207 -0.3319 -0.1637
   13MOL   C113 8297   8.193   0.276   7.591 -0.5018 -1.1022  0.1139
   13MOL   C114 8298   8.138   0.161   7.650 -0.3709 -0.1819  0.2013
   13MOL   C115 8299   8.006   0.151   7.692  0.0225  0.4498 -0.1017
   13MOL   C116 8300   7.923   0.269   7.675  0.1998  0.2651  0.2396
   13MOL   O117 8301   7.792   0.279   7.717 -0.1834  0.2845 -0.6716
   13MOL   C118 8302   7.715   0.170   7.720 -0.0385  0.2470 -0.0727
   13MOL   C119 8303   7.695   0.090   7.599  0.2546  0.1807 -1.3073
   13MOL   C120 8304   7.610   8.288   7.603 -0.9692  0.1541 -0.2492
   13MOL   C121 8305   7.554   8.251   7.729  0.5535  0.6272  0.2359
   13MOL   C122 8306   7.575   0.016   7.843  0.7468 -0.2658  0.3292
   13MOL   C123 8307   7.654   0.131   7.840 -0.1165 -0.0150  0.0917
   13MOL   C124 8308   7.980   0.391   7.634  0.0861 -0.0963  0.4585
   13MOL   C125 8309   8.118   0.396   7.586  0.3065 -0.6039 -0.4748
   13MOL   H126 8310   0.236   0.159   7.684  1.4579  0.6209 -1.0444
   13MOL   H127 8311   0.378   8.302   7.589 -0.5438  0.1556  0.0773
   13MOL   H128 8312   0.075   8.227   7.286  2.9344  0.3977 -1.1833
   13MOL   H129 8313   8.275   0.107   7.348 -0.1127 -1.3945 -0.3616
   13MOL   H130 8314   8.190   0.067   7.661 -2.7284 -1.4369  1.0016
   13MOL   H131 8315   7.972   0.057   7.733  2.7569 -0.0297  1.1635
   13MOL   H132 8316   7.730   0.123   7.503 -0.1951 -0.7115 -1.7837
   13MOL   H133 8317   7.603   8.226   7.515  3.2028  0.0927 -0.6540
   13MOL   H134 8318   7.522   8.290   7.928 -0.3771  0.8913  0.1762
   13MOL   H135 8319   7.669   0.196   7.924 -0.5267  0.5819 -0.2854
   13MOL   H136 8320   7.916   0.477   7.624 -1.5512 -1.4641 -1.3450
   13MOL   H137 8321   8.155   0.491   7.551 -0.3411 -0.3365 -0.4403
   13MOL   C138 8322   7.120   8.101   7.792  0.3631  0.1370  0.2325
   13MOL   C139 8323   7.257   8.089   7.809  0.0767  0.2587 -0.0078
   13MOL   C140 8324   7.345   8.142   7.721  0.9038 -0.5364  0.0777
   13MOL   O141 8325   7.476   8.138   7.750 -0.6813 -0.3997 -0.4284
   13MOL   C142 8326   7.296   8.199   7.604  0.1465 -0.3376  0.0794
   13MOL   C143 8327   7.161   8.206   7.575 -0.4500 -0.4613  0.2503
   13MOL   C144 8328   7.070   8.168   7.674  0.0412  0.5152 -0.1634
   13MOL   C145 8329   6.925   8.178   7.671  0.2352  0.6115  1.0048
   13MOL   O146 8330   6.853   8.082   7.704  0.3434  0.3603  0.0212
   13MOL   C147 8331   6.858   8.306   7.616  0.0258 -0.3502 -0.0090
   13MOL   C148 8332   6.739   8.296   7.534  0.4547 -0.5383 -0.5865
   13MOL   C149 8333   6.675   0.101   7.488 -0.9007  0.4340 -0.3183
   13MOL   C150 8334   6.708   0.224   7.542  1.1576 -0.9737 -0.3003
   13MOL   O151 8335   6.639   0.335   7.496  0.5368 -0.7207 -0.4591
   13MOL   C152 8336   6.675   0.457   7.541  0.3714  0.1293  0.1142
   13MOL   C153 8337   6.788   0.524   7.496  0.0324  0.5154 -0.2421
   13MOL   C154 8338   6.818   0.651   7.548  0.3384  0.1422 -0.3532
   13MOL   C155 8339   6.732   0.719   7.633  0.2095  0.6313  0.1315
   13MOL   C156 8340   6.625   0.645   7.684 -0.2711  0.1423  0.0964
   13MOL   C157 8341   6.592   0.516   7.639  0.1941  0.0143  0.0805
   13MOL   C158 8342   6.832   0.235   7.620  0.3482  0.2747  0.0247
   13MOL   C159 8343   6.906   0.126   7.652 -0.1308  0.9521  0.0797
   13MOL   H160 8344   7.049   8.065   7.865  0.0604  0.1069 -0.0714
   13MOL   H161 8345   7.294   8.033   7.893 -0.8440 -0.1938  0.1051
   13MOL   H162 8346   7.360   8.234   7.525 -2.2834 -2.0113 -2.7458
   13MOL   H163 8347   7.128   8.259   7.487 -2.6225 -1.3546  0.5021
   13MOL   H164 8348   6.703   8.199   7.502 -1.5290  0.4324 -1.3160
   13MOL   H165 8349   6.590   0.090   7.421 -2.1221  0.5348  1.1971
   13MOL   H166 8350   6.849   0.490   7.413 -2.5561 -2.3392 -1.0727
   13MOL   H167 8351   6.909   0.703   7.522  0.8014 -0.6215 -0.2554
   13MOL   H168 8352   6.560   0.688   7.758  1.0810  0.9004  0.8665
   13MOL   H169 8353   6.496   0.475   7.665  0.8082 -1.0807  0.6127
   13MOL   H170 8354   6.869   0.329   7.659 -1.2930  1.2175 -0.6388
   13MOL   H171 8355   6.996   0.131   7.712  1.1235 -2.6945 -1.3679
   13MOL   C172 8356   6.618   1.116   7.448 -0.8135 -0.2777  0.3753
   13MOL   C173 8357   6.701   1.009   7.488  0.3412 -0.4050 -0.0465
   13MOL   C174 8358   6.678   0.945   7.612 -0.5067  0.7610  0.0661
   13MOL   O175 8359   6.765   0.850   7.661 -0.4730  0.3815 -0.6123
   13MOL   C176 8360   6.569   0.993   7.693  0.4812 -0.0974  0.2518
   13MOL   C177 8361   6.496   1.104   7.654 -0.4078 -0.7419 -0.4302
   13MOL   C178 8362   6.528   1.172   7.535 -0.1413  0.8048 -0.0773
   13MOL   C179 8363   6.456   1.299   7.506 -0.2924  0.1647 -0.4542
   13MOL   O180 8364   6.351   1.327   7.565 -0.6143 -0.4563 -0.1230
   13MOL   C181 8365   6.516   1.395   7.409  0.4887 -0.0196 -0.0796
   13MOL   C182 8366   6.434   1.461   7.315  0.4128 -0.6178 -0.7133
   13MOL   C183 8367   6.485   1.567   7.241 -0.3337 -0.0792 -0.2029
   13MOL   C184 8368   6.624   1.595   7.245  1.1030  0.0810  0.0630
   13MOL   O185 8369   6.668   1.697   7.164  0.3758  0.3774  0.2866
   13MOL   C186 8370   6.612   1.818   7.189  0.0872  0.1076 -0.7468
   13MOL   C187 8371   6.654   1.894   7.303  0.5905  0.2493  0.8711
   13MOL   C188 8372   6.580   2.012   7.343 -0.5561  0.1608 -0.0813
   13MOL   C189 8373   6.486   2.066   7.257 -0.0102 -0.0865  0.2510
   13MOL   C190 8374   6.455   1.994   7.142  0.0226 -0.5262 -0.2157
   13MOL   C191 8375   6.509   1.872   7.111 -0.1226 -0.2628 -0.0525
   13MOL   C192 8376   6.708   1.516   7.322 -0.1085  0.1398 -0.3654
   13MOL   C193 8377   6.651   1.426   7.413 -1.0523 -0.4480 -0.6366
   13MOL   H194 8378   6.639   1.172   7.358 -1.6081 -1.2552 -0.4366
   13MOL   H195 8379   6.787   0.967   7.437 -0.6147 -1.2640 -0.9783
   13MOL   H196 8380   6.551   0.939   7.785  0.2279  1.0243  0.8645
   13MOL   H197 8381   6.423   1.139   7.726 -2.9395 -4.0720 -1.2526
   13MOL   H198 8382   6.327   1.455   7.326  0.6253  0.3259  2.4636
   13MOL   H199 8383   6.429   1.616   7.162  2.9575  0.4855 -2.3072
   13MOL   H200 8384   6.738   1.860   7.362 -0.9231  0.0161  2.9730
   13MOL   H201 8385   6.599   2.051   7.442  0.0750  1.5181 -0.7188
   13MOL   H202 8386   6.380   2.042   7.079  1.6355 -0.9228 -2.5109
   13MOL   H203 8387   6.471   1.812   7.030 -1.7687  0.3344  0.2663
   13MOL   H204 8388   6.815   1.530   7.322 -0.0760  0.4063 -3.8478
   13MOL   H205 8389   6.719   1.379   7.483  0.5472  2.6226 -0.0306
   13MOL   C206 8390   6.105   2.173   7.455 -0.5654  0.1237  0.8145
   13MOL   C207 8391   6.245   2.157   7.433 -0.0362  0.6025  0.3389
   13MOL   C208 8392   6.304   2.204   7.314  0.0302 -0.0435 -0.5174
   13MOL   O209 8393   6.432   2.190   7.289 -0.1263 -0.2149 -0.3114
   13MOL   C210 8394   6.223   2.288   7.225 -0.1236  0.9726 -0.1974
   13MOL   C211 8395   6.090   2.314   7.258 -0.1554  0.4419  0.6612
   13MOL   C212 8396   6.025   2.252   7.363  0.0696 -0.2698  0.2393
   13MOL   C213 8397   5.875   2.275   7.377 -0.0370 -0.4172 -0.5509
   13MOL   O214 8398   5.805   2.309   7.281  0.2207 -0.2337 -0.3570
   13MOL   C215 8399   5.810   2.251   7.510  0.1229 -0.3156 -0.2349
   13MOL   C216 8400   5.682   2.198   7.515  0.2722  0.4896  0.4154
   13MOL   C217 8401   5.613   2.197   7.637 -0.4997 -0.5778  0.4146
   13MOL   C218 8402   5.668   2.248   7.754  0.2039 -0.2874 -0.1613
   13MOL   O219 8403   5.603   2.253   7.876 -0.2094  0.1989  0.4097
   13MOL   C220 8404   5.573   2.131   7.938  0.2983  0.1310  0.0327
   13MOL   C221 8405   5.433   2.102   7.959 -0.6021 -0.6388 -0.1849
   13MOL   C222 8406   5.396   1.970   7.999  0.7395  0.2281  0.0477
   13MOL   C223 8407   5.494   1.876   8.031 -0.2538 -0.2622  0.3291
   13MOL   C224 8408   5.630   1.907   8.022  0.3481  0.0827 -0.1403
   13MOL   C225 8409   5.667   2.029   7.960 -0.2854  0.1573  0.1281
   13MOL   C226 8410   5.797   2.307   7.751 -0.1291  0.7558  0.3396
   13MOL   C227 8411   5.864   2.304   7.628 -0.0447 -0.2185  0.2351
   13MOL   H228 8412   6.059   2.126   7.541  3.0412  0.3886  3.0201
   13MOL   H229 8413   6.295   2.090   7.502 -2.1139 -0.4946  0.8275
   13MOL   H230 8414   6.273   2.331   7.141  0.0175 -0.2507 -0.7539
   13MOL   H231 8415   6.031   2.374   7.191 -0.5859 -0.1724  0.4827
   13MOL   H232 8416   5.640   2.157   7.424 -0.4412 -2.0830  1.8510
   13MOL   H233 8417   5.517   2.147   7.635 -1.6449  1.5343  1.1007
   13MOL   H234 8418   5.359   2.177   7.938  0.9865  0.7322 -1.0313
   13MOL   H235 8419   5.292   1.952   8.021  0.9811 -0.9533  0.2377
   13MOL   H236 8420   5.709   1.848   8.065  0.4900  1.0647  0.9480
   13MOL   H237 8421   5.769   2.040   7.929 -0.4181 -0.7113 -0.6437
   13MOL   H238 8422   5.844   2.342   7.842 -0.0913 -0.5374  0.8296
   13MOL   H239 8423   5.964   2.346   7.627  0.6045 -1.7114 -0.4661
   13MOL   C240 8424   5.206   1.544   7.937  0.3508 -0.6854  0.0269
   13MOL   C241 8425   5.269   1.647   8.008 -0.5726  0.6978  0.2776
   13MOL   C242 8426   5.400   1.667   7.995 -0.3306  0.6859 -0.0464
   13MOL   O243 8427   5.462   1.753   8.084 -0.1342  0.2873 -0.3299
   13MOL   C244 8428   5.478   1.590   7.913 -0.8932  0.3915  0.0243
   13MOL   C245 8429   5.422   1.492   7.833  0.7344 -0.2470  0.2483
   13MOL   C246 8430   5.281   1.468   7.845  0.1957 -0.3468  0.4340
   13MOL   C247 8431   5.201   1.372   7.767 -0.9248  0.1993  0.3432
   13MOL   O248 8432   5.107   1.401   7.690 -0.0313 -0.3971 -0.1188
   13MOL   C249 8433   5.230   1.228   7.796  0.3234 -0.3877  0.2005
   13MOL   C250 8434   5.323   1.188   7.898  0.3937  0.5064  0.0134
   13MOL   C251 8435   5.344   1.053   7.930  1.2417  0.4899  0.6087
   13MOL   C252 8436   5.265   0.958   7.860 -0.2545  0.0051  0.2801
   13MOL   O253 8437   5.263   0.819   7.882  0.2860 -0.2596 -0.9462
   13MOL   C254 8438   5.180   0.787   7.984  0.1389 -0.0651 -0.2699
   13MOL   C255 8439   5.037   0.796   7.969  0.0867  0.7129 -0.1297
   13MOL   C256 8440   4.954   0.771   8.076 -0.3676 -0.1497  1.0477
   13MOL   C257 8441   5.002   0.718   8.199  0.3808 -0.3241 -0.8908
   13MOL   C258 8442   5.143   0.700   8.210  0.4272 -0.0153 -0.4847
   13MOL   C259 8443   5.231   0.741   8.107  0.2565 -0.0673  0.2252
   13MOL   C260 8444   5.178   0.996   7.761  0.2968  0.6092  0.3880
   13MOL   C261 8445   5.162   1.128   7.725 -0.2383  0.4846  0.3984
   13MOL   H262 8446   5.099   1.530   7.940  0.6365 -3.3319 -0.9891
   13MOL   H263 8447   5.211   1.709   8.075  0.2728  1.0028  0.7316
   13MOL   H264 8448   5.585   1.607   7.910 -1.2735  2.8383 -0.2605
   13MOL   H265 8449   5.481   1.434   7.764 -1.2036 -0.9553 -0.8409
   13MOL   H266 8450   5.381   1.258   7.957  0.4557  1.2037 -0.8721
   13MOL   H267 8451   5.417   1.018   8.002 -2.0591 -1.8839  2.9621
   13MOL   H268 8452   4.999   0.824   7.872 -3.1718 -0.1956  0.8008
   13MOL   H269 8453   4.847   0.785   8.068 -0.2290 -0.5448 -1.8099
   13MOL   H270 8454   5.187   0.654   8.297 -1.1044  0.0833  0.3531
   13MOL   H271 8455   5.338   0.731   8.120  0.0588 -1.6706  0.7564
   13MOL   H272 8456   5.129   0.917   7.705  2.5795 -0.2796 -0.4260
   13MOL   H273 8457   5.097   1.151   7.641  0.0560 -0.6662 -0.1590
   13MOL   C274 8458   4.920   0.362   0.174 -0.5079  0.2870  0.2068
   13MOL   C275 8459   4.950   0.494   0.135  0.3443 -0.3124 -0.3504
   13MOL   C276 8460   4.894   0.556   0.029  0.3020  0.2459  0.1636
   13MOL   O277 8461   4.926   0.689   0.003  0.2104 -0.3569 -0.4616
   13MOL   C278 8462   4.812   0.480   8.255 -0.4105  0.5851  0.1807
   13MOL   C279 8463   4.789   0.344   8.282 -0.4207  0.6911  0.1626
   13MOL   C280 8464   4.841   0.287   0.084 -0.1619  0.0342  0.0314
   13MOL   C281 8465   4.821   0.141   0.113  0.1768 -0.6331  0.3567
   13MOL   O282 8466   4.902   0.057   0.078 -0.1036  0.2659 -0.4751
   13MOL   C283 8467   4.701   0.106   0.197 -0.2884 -0.5281 -0.6766
   13MOL   C284 8468   4.624   0.208   0.255 -0.5348  0.5614 -0.6844
   13MOL   C285 8469   4.507   0.178   0.325 -0.2971  0.3086  0.0222
   13MOL   C286 8470   4.471   0.044   0.343  0.0877 -0.5440 -0.6157
   13MOL   O287 8471   4.353   0.012   0.397  0.4703 -0.8544 -0.1387
   13MOL   C288 8472   4.302   0.087   0.503 -0.1152  0.3061  0.5062
   13MOL   C289 8473   4.170   0.131   0.499  0.2150  0.6477 -0.5158
   13MOL   C290 8474   4.113   0.200   0.601 -0.0343  0.5828  0.1962
   13MOL   C291 8475   4.193   0.231   0.717  0.3414  0.3881  0.9277
   13MOL   C292 8476   4.322   0.172   0.731  0.3034 -0.3935 -0.1850
   13MOL   C293 8477   4.377   0.113   0.620 -0.1358 -0.3230 -1.0842
   13MOL   C294 8478   4.545   8.257   0.291  0.4143 -0.4508  0.5176
   13MOL   C295 8479   4.664   8.282   0.216  0.1778 -0.2318 -0.4567
   13MOL   H296 8480   4.968   0.324   0.263 -1.2922 -0.0302  0.5012
   13MOL   H297 8481   5.014   0.546   0.205 -0.4900 -0.0567  0.2303
   13MOL   H298 8482   4.781   0.525   8.161  2.0672  0.0654 -0.9268
   13MOL   H299 8483   4.739   0.277   8.215  0.7868  0.9374 -1.0049
   13MOL   H300 8484   4.632   0.313   0.229  2.5530  0.8954  1.3056
   13MOL   H301 8485   4.446   0.260   0.359  0.8062  0.3931  1.8683
   13MOL   H302 8486   4.109   0.094   0.418  1.7315 -2.3985 -0.3532
   13MOL   H303 8487   4.015   0.245   0.592 -1.1148 -1.8550 -0.5806
   13MOL   H304 8488   4.376   0.183   0.823  1.5002  0.3461 -0.9599
   13MOL   H305 8489   4.473   0.065   0.635 -0.9809 -1.3609  1.1268
   13MOL   H306 8490   4.515   8.153   0.299 -0.5865 -0.1885  0.2581
   13MOL   H307 8491   4.713   8.197   0.170  0.8162 -0.2930  0.3356
   13MOL   C308 8492   4.388   0.536   0.951  0.6588 -0.2393 -0.1570
   13MOL   C309 8493   4.326   0.454   0.856 -0.7624 -0.8207 -0.6756
   13MOL   C310 8494   4.218   0.373   0.903  0.8587  0.3638 -0.6735
   13MOL   O311 8495   4.141   0.299   0.821  0.2280  0.0252 -0.4336
   13MOL   C312 8496   4.192   0.351   1.041  0.2150 -0.5923  0.6282
   13MOL   C313 8497   4.254   0.443   1.132  0.9343  0.7397 -0.3657
   13MOL   C314 8498   4.358   0.533   1.092  0.1174 -0.2898 -0.1113
   13MOL   C315 8499   4.424   0.635   1.178 -0.6709 -0.3054  1.1827
   13MOL   O316 8500   4.359   0.699   1.259  0.7193 -0.1649  0.6543
   13MOL   C317 8501   4.572   0.657   1.165 -0.3157 -0.0091 -0.4147
   13MOL   C318 8502   4.651   0.541   1.141  0.6952 -0.2187  0.4061
   13MOL   C319 8503   4.792   0.558   1.125 -0.0214  0.6647 -0.5049
   13MOL   C320 8504   4.848   0.688   1.121 -0.2294  0.4260 -0.4962
   13MOL   O321 8505   4.984   0.698   1.098  0.2092 -0.1616  0.3500
   13MOL   C322 8506   5.015   0.786   0.996 -0.7206  0.3494 -0.3714
   13MOL   C323 8507   5.119   0.878   1.032  0.1318 -0.7089 -1.0756
   13MOL   C324 8508   5.172   0.964   0.934 -0.0100 -0.8791 -0.4626
   13MOL   C325 8509   5.122   0.957   0.802  0.1887  0.0366 -0.6491
   13MOL   C326 8510   5.031   0.854   0.765  0.1139 -0.1009  0.3042
   13MOL   C327 8511   4.972   0.770   0.862 -0.7504 -0.4997 -0.3583
   13MOL   C328 8512   4.770   0.798   1.147 -0.5509 -0.1056 -0.7632
   13MOL   C329 8513   4.631   0.786   1.178 -0.2596 -0.4321  1.2764
   13MOL   H330 8514   4.466   0.597   0.908 -0.2693  1.9842  1.2239
   13MOL   H331 8515   4.365   0.474   0.757  2.4480 -0.0129  0.7156
   13MOL   H332 8516   4.112   0.290   1.079 -0.6249  1.3147  1.9858
   13MOL   H333 8517   4.215   0.450   1.232 -0.5069 -0.3118 -0.8389
   13MOL   H334 8518   4.607   0.443   1.129  0.5401 -0.2447  1.1835
   13MOL   H335 8519   4.853   0.471   1.106 -1.3933  0.0314 -2.2471
   13MOL   H336 8520   5.148   0.893   1.135  0.0859  1.4118 -1.3500
   13MOL   H337 8521   5.237   1.046   0.962 -0.8631  0.1210 -1.3530
   13MOL   H338 8522   4.993   0.842   0.664 -0.5938 -0.6812  0.6267
   13MOL   H339 8523   4.885   0.708   0.844 -0.2223 -0.8928 -1.5984
   13MOL   H340 8524   4.820   0.894   1.151 -0.4879 -0.2234  2.3880
   13MOL   H341 8525   4.567   0.868   1.206 -1.7927 -1.1946  0.0392
   13MOL   C342 8526   5.345   1.330   0.810  0.1097  0.9123 -0.1156
   13MOL   C343 8527   5.234   1.250   0.780 -0.0868 -0.3883  0.1689
   13MOL   C344 8528   5.259   1.121   0.716  0.4079 -1.2879  0.6423
   13MOL   O345 8529   5.151   1.042   0.700 -0.0094 -0.0993  0.1374
   13MOL   C346 8530   5.389   1.083   0.676 -0.1190  0.4876 -0.0187
   13MOL   C347 8531   5.497   1.160   0.712 -0.8456  0.2024  0.6020
   13MOL   C348 8532   5.472   1.282   0.769  0.2602 -0.0553 -0.5495
   13MOL   C349 8533   5.589   1.375   0.796  0.0079  0.0481  0.8025
   13MOL   O350 8534   5.699   1.340   0.754  0.0172 -0.2081  0.1092
   13MOL   C351 8535   5.554   1.507   0.860  0.4404 -0.1568  0.5115
   13MOL   C352 8536   5.603   1.548   0.989 -0.9570 -0.3885  0.6000
   13MOL   C353 8537   5.573   1.675   1.042  0.7411 -0.6455  0.0517
   13MOL   C354 8538   5.480   1.760   0.983 -0.5618  0.0862 -0.2234
   13MOL   O355 8539   5.441   1.868   1.052 -0.8361  0.0568  0.0246
   13MOL   C356 8540   5.318   1.913   1.022  0.4753  0.8321  0.2579
   13MOL   C357 8541   5.298   2.025   0.945  0.3739  0.4875  1.1626
   13MOL   C358 8542   5.165   2.067   0.917  0.5857  0.2735 -0.2116
   13MOL   C359 8543   5.060   1.981   0.951 -0.1516 -0.4716 -0.0393
   13MOL   C360 8544   5.082   1.872   1.035  0.1750 -0.1066  0.5758
   13MOL   C361 8545   5.209   1.833   1.068  0.6503 -0.0820 -0.2903
   13MOL   C362 8546   5.444   1.728   0.850 -0.0260 -0.3612  0.0136
   13MOL   C363 8547   5.476   1.603   0.789 -0.3895 -0.5139 -0.7592
   13MOL   H364 8548   5.336   1.416   0.875 -2.1223  0.2885  0.4569
   13MOL   H365 8549   5.133   1.268   0.814 -0.4332 -1.3054 -0.3851
   13MOL   H366 8550   5.399   0.991   0.620 -0.5727 -0.2783  1.1437
   13MOL   H367 8551   5.599   1.136   0.685 -0.3774 -0.2305  2.6914
   13MOL   H368 8552   5.654   1.472   1.047 -1.4156 -1.2004 -0.0479
   13MOL   H369 8553   5.613   1.700   1.140 -1.0324 -1.4738  1.0176
   13MOL   H370 8554   5.390   2.075   0.917  1.5145 -1.8790  0.4913
   13MOL   H371 8555   5.151   2.156   0.858 -0.8490  0.7970  0.9000
   13MOL   H372 8556   4.998   1.819   1.078 -1.2369 -1.2280 -3.3987
   13MOL   H373 8557   5.229   1.743   1.123  0.7134  0.3644  0.4227
   13MOL   H374 8558   5.389   1.801   0.792  0.0768  1.0561  1.6436
   13MOL   H375 8559   5.449   1.588   0.685 -2.3100 -1.6643 -0.1316
   13MOL   C376 8560   4.921   1.926   0.560  0.5268  0.1409 -0.1297
   13MOL   C377 8561   4.972   1.949   0.689 -0.3412 -0.6738 -0.4182
   13MOL   C378 8562   4.885   1.976   0.797 -0.3590  0.6437 -0.1761
   13MOL   O379 8563   4.929   2.004   0.928 -0.6204  0.2984  0.1261
   13MOL   C380 8564   4.746   1.974   0.771 -0.5253 -0.2533  0.3668
   13MOL   C381 8565   4.694   1.948   0.645  0.5895 -0.6391 -0.3097
   13MOL   C382 8566   4.782   1.934   0.538 -0.5722  0.1083  0.1974
   13MOL   C383 8567   4.724   1.935   0.398  0.3476  0.1817  0.4111
   13MOL   O384 8568   4.609   1.911   0.384 -0.3148 -0.0106  0.0543
   13MOL   C385 8569   4.811   1.981   0.286  0.5990  0.9483 -0.1279
   13MOL   C386 8570   4.770   2.097   0.224  0.3231 -0.1221 -0.4759
   13MOL   C387 8571   4.842   2.144   0.113  0.1344 -0.8428  0.2547
   13MOL   C388 8572   4.955   2.072   0.065  0.8771  0.3224 -0.3238
   13MOL   O389 8573   5.042   2.128   8.288 -0.0787  0.2033  0.3047
   13MOL   C390 8574   5.106   2.240   0.003  0.6318 -0.5686 -0.4400
   13MOL   C391 8575   5.111   2.345   8.222  0.3284  0.1971 -0.4126
   13MOL   C392 8576   5.166   2.467   8.262 -0.2282 -0.8492 -0.2837
   13MOL   C393 8577   5.221   2.484   0.078 -0.4995  0.9823  0.0134
   13MOL   C394 8578   5.229   2.374   0.164 -0.4625  0.2626  0.0533
   13MOL   C395 8579   5.169   2.257   0.125  0.6428  0.3133 -0.2909
   13MOL   C396 8580   4.996   1.953   0.128 -0.2906 -0.5777 -0.6585
   13MOL   C397 8581   4.914   1.899   0.233  0.3865 -0.1722 -0.4367
   13MOL   H398 8582   4.984   1.910   0.474 -0.0504  1.2205 -0.7653
   13MOL   H399 8583   5.079   1.937   0.697 -0.5350 -0.8058  2.2510
   13MOL   H400 8584   4.680   1.983   0.856  0.4617 -1.3769  1.2665
   13MOL   H401 8585   4.587   1.937   0.634  0.6931 -1.4224 -0.5522
   13MOL   H402 8586   4.680   2.144   0.260  1.0314  0.0199  1.1904
   13MOL   H403 8587   4.800   2.225   0.055  0.9336 -0.1247  0.6585
   13MOL   H404 8588   5.085   2.334   8.117 -1.3001  1.2992 -0.1283
   13MOL   H405 8589   5.155   2.554   8.198 -0.2509  0.0532  0.9356
   13MOL   H406 8590   5.291   2.379   0.252 -2.0964  1.9483  1.1614
   13MOL   H407 8591   5.172   2.168   0.186 -0.4169 -0.9602 -2.0547
   13MOL   H408 8592   5.078   1.891   0.094 -0.3031 -0.9664 -0.0056
   13MOL   H409 8593   4.935   1.802   0.273 -1.4314 -0.6849 -0.6654
   13MOL   C410 8594   4.998   2.820   0.229  0.2911  0.4172 -0.2671
   13MOL   C411 8595   5.083   2.752   0.139  0.0964  0.6040 -0.0326
   13MOL   C412 8596   5.175   2.665   0.204  0.3885 -0.7973 -0.3019
   13MOL   O413 8597   5.271   2.606   0.121  0.1239 -0.7306 -0.7613
   13MOL   C414 8598   5.169   2.646   0.344 -0.2072 -0.3349 -0.5631
   13MOL   C415 8599   5.072   2.703   0.424  0.1210  0.1035  0.6432
   13MOL   C416 8600   4.983   2.798   0.371  0.1758  0.4086 -0.2666
   13MOL   C417 8601   4.879   2.849   0.462 -0.7339  0.7838  0.2888
   13MOL   O418 8602   4.837   2.779   0.554  0.3490  0.3477 -0.2995
   13MOL   C419 8603   4.823   2.986   0.434 -0.1348  0.0880 -0.7197
   13MOL   C420 8604   4.683   3.011   0.453 -0.5089 -0.1146  0.0918
   13MOL   C421 8605   4.627   3.135   0.415 -0.2215  0.5304  0.0528
   13MOL   C422 8606   4.703   3.240   0.361  0.2939 -0.0431 -0.3557
   13MOL   O423 8607   4.647   3.359   0.341 -0.0573  0.2634  0.1032
   13MOL   C424 8608   4.722   3.474   0.380 -0.1087 -0.0781  0.4109
   13MOL   C425 8609   4.752   3.572   0.281  0.6323  0.4179 -0.0767
   13MOL   C426 8610   4.829   3.682   0.334 -0.0262 -0.2849  0.0912
   13MOL   C427 8611   4.886   3.688   0.461 -0.5972 -0.4164  0.4253
   13MOL   C428 8612   4.855   3.592   0.561 -0.5654  0.2765  0.0004
   13MOL   C429 8613   4.768   3.488   0.519 -0.0765  0.3348  0.0552
   13MOL   C430 8614   4.842   3.213   0.343  0.7090 -0.2924 -0.1050
   13MOL   C431 8615   4.900   3.091   0.380 -1.0135  0.9101  0.6685
   13MOL   H432 8616   4.933   2.895   0.185  0.6418 -0.0025 -1.5259
   13MOL   H433 8617   5.094   2.755   0.032  1.7638 -1.4181  0.0564
   13MOL   H434 8618   5.227   2.565   0.385 -1.7778 -2.0757 -1.6578
   13MOL   H435 8619   5.060   2.662   0.523  0.9067  0.5416  0.9220
   13MOL   H436 8620   4.629   2.932   0.504  1.4365 -0.2819  1.9908
   13MOL   H437 8621   4.521   3.141   0.437 -0.4529 -1.8241 -0.2646
   13MOL   H438 8622   4.715   3.560   0.180 -2.8142 -0.0843  1.1681
   13MOL   H439 8623   4.863   3.758   0.266 -2.3011 -0.8323 -1.7109
   13MOL   H440 8624   4.888   3.599   0.663  1.7850  3.3687 -0.8853
   13MOL   H441 8625   4.760   3.392   0.567  1.7151  0.0661 -0.1630
   13MOL   H442 8626   4.906   3.292   0.308  0.6789 -0.8136 -1.3526
   13MOL   H443 8627   5.005   3.074   0.362 -1.1363  1.0220 -0.1846
   13MOL   C444 8628   4.725   4.058   0.581  0.9428  0.0633  0.2648
   13MOL   C445 8629   4.779   3.931   0.575  0.6222  0.5722 -0.6518
   13MOL   C446 8630   4.907   3.917   0.519  0.5002  0.0988  0.4743
   13MOL   O447 8631   4.966   3.794   0.498 -0.6022  0.1257  0.1307
   13MOL   C448 8632   4.993   4.025   0.492  0.1716 -0.8224 -0.8457
   13MOL   C449 8633   4.939   4.150   0.508  0.4036 -0.0097 -0.0994
   13MOL   C450 8634   4.802   4.168   0.548  0.6303  0.4308  0.3512
   13MOL   C451 8635   4.761   4.308   0.561 -0.6507 -0.1424 -0.6837
   13MOL   O452 8636   4.842   4.400   0.580  0.5425 -0.6911 -0.2202
   13MOL   C453 8637   4.614   4.337   0.552 -0.0665 -0.6548  0.5730
   13MOL   C454 8638   4.554   4.431   0.640  0.2056  0.1492  0.2757
   13MOL   C455 8639   4.417   4.452   0.639  0.4108 -0.1200  0.2155
   13MOL   C456 8640   4.339   4.397   0.536  0.3808  0.0540  0.1842
   13MOL   O457 8641   4.205   4.407   0.534  0.5306 -0.0996  0.0830
   13MOL   C458 8642   4.134   4.347   0.640 -0.3280 -0.5613 -0.6708
   13MOL   C459 8643   4.135   4.210   0.650 -0.5460  0.0551 -0.1520
   13MOL   C460 8644   4.071   4.143   0.755  0.4272  0.0109  0.6056
   13MOL   C461 8645   3.996   4.214   0.848 -1.1775 -1.1956 -0.0364
   13MOL   C462 8646   3.994   4.353   0.838 -0.7913  0.1205 -0.1498
   13MOL   C463 8647   4.055   4.418   0.734 -0.2530  0.0568  0.6152
   13MOL   C464 8648   4.401   4.303   0.446  0.3714  0.2172  0.1392
   13MOL   C465 8649   4.540   4.277   0.454  0.5961 -0.0170 -0.0725
   13MOL   H466 8650   4.628   4.078   0.623  0.1476  1.7342 -2.3323
   13MOL   H467 8651   4.727   3.842   0.607 -0.3631  1.7823  1.1517
   13MOL   H468 8652   5.090   4.015   0.446  1.3554  1.5626  1.0051
   13MOL   H469 8653   4.999   4.237   0.485  1.0619 -0.3563  0.3122
   13MOL   H470 8654   4.612   4.477   0.717 -1.3594  0.4874  1.2699
   13MOL   H471 8655   4.360   4.510   0.710  1.2744 -0.1312  0.9385
   13MOL   H472 8656   4.190   4.152   0.577 -2.1292 -1.3679 -0.2463
   13MOL   H473 8657   4.081   4.036   0.766  0.4111 -0.0355  0.2091
   13MOL   H474 8658   3.941   4.411   0.912 -0.9876  0.3338 -0.4547
   13MOL   H475 8659   4.041   4.524   0.724 -0.4885  0.0603  0.9573
   13MOL   H476 8660   4.335   4.246   0.383 -2.3371  1.6612  1.5598
   13MOL   H477 8661   4.577   4.198   0.391  1.2571 -0.6765  1.1276
   13MOL   C478 8662   4.172   4.129   1.233 -1.0436  0.0540  0.5767
   13MOL   C479 8663   4.105   4.165   1.117  0.8900  0.0796  0.0828
   13MOL   C480 8664   3.995   4.098   1.057  0.2003  0.5712 -0.3154
   13MOL   O481 8665   3.926   4.146   0.944  0.3668  0.7731 -0.7181
   13MOL   C482 8666   3.948   3.989   1.130  0.6326 -0.0829  0.2970
   13MOL   C483 8667   4.016   3.943   1.246 -0.5450 -0.5438 -0.1811
   13MOL   C484 8668   4.127   4.015   1.299  0.2862  0.6086 -0.2568
   13MOL   C485 8669   4.190   3.967   1.427  0.5967  0.1194  0.6054
   13MOL   O486 8670   4.128   3.888   1.494  0.2220  0.0987 -0.1645
   13MOL   C487 8671   4.325   4.020   1.474  0.4977 -0.3405  0.5128
   13MOL   C488 8672   4.432   4.036   1.376 -0.3631 -0.2739 -0.2187
   13MOL   C489 8673   4.555   4.087   1.411  0.3034  0.1768 -0.2589
   13MOL   C490 8674   4.581   4.128   1.542 -0.2248  0.9429 -0.4010
   13MOL   O491 8675   4.706   4.178   1.573 -0.0169 -0.1891  0.4558
   13MOL   C492 8676   4.804   4.100   1.632  0.1834  0.7986  0.0901
   13MOL   C493 8677   4.780   4.031   1.754 -0.3677  1.0973  0.3620
   13MOL   C494 8678   4.873   3.948   1.811  0.0359 -0.6605 -0.4577
   13MOL   C495 8679   5.000   3.946   1.753 -0.4260  0.7725  0.0388
   13MOL   C496 8680   5.031   4.026   1.645  0.1634 -0.3037 -0.3894
   13MOL   C497 8681   4.934   4.101   1.577  0.3129 -0.5448  0.4876
   13MOL   C498 8682   4.479   4.118   1.639  0.0752  0.1938  0.7734
   13MOL   C499 8683   4.352   4.068   1.602  0.7825  0.6162 -0.3478
   13MOL   H500 8684   4.255   4.191   1.265  0.6727 -0.7410 -2.1641
   13MOL   H501 8685   4.133   4.249   1.056  1.0570  0.4926  0.7273
   13MOL   H502 8686   3.867   3.930   1.089  1.4154 -1.1831  0.3228
   13MOL   H503 8687   3.970   3.857   1.294 -0.1075 -0.6715  0.0105
   13MOL   H504 8688   4.427   3.985   1.281 -1.0371 -0.2865 -0.1768
   13MOL   H505 8689   4.629   4.106   1.335  2.4060  0.6168  1.8376
   13MOL   H506 8690   4.681   4.030   1.796 -0.3848  0.6712  0.3185
   13MOL   H507 8691   4.852   3.887   1.897  0.5888 -0.8031 -0.4189
   13MOL   H508 8692   5.128   4.031   1.599  0.9830 -0.7083  1.2510
   13MOL   H509 8693   4.950   4.160   1.488  1.3025 -1.8582 -0.2248
   13MOL   H510 8694   4.501   4.136   1.743  1.0274  0.5249  0.5197
   13MOL   H511 8695   4.275   4.061   1.677 -0.0452 -3.5730 -1.4835
   13MOL   C512 8696   5.061   3.542   1.679 -0.8622  0.8183  0.3640
   13MOL   C513 8697   5.053   3.680   1.690  0.1681  0.1024 -0.2343
   13MOL   C514 8698   5.117   3.745   1.795  0.5283  0.2778  0.4116
   13MOL   O515 8699   5.100   3.883   1.818 -0.0132 -0.1186 -1.2759
   13MOL   C516 8700   5.185   3.666   1.887 -0.6606  0.3002 -0.2930
   13MOL   C517 8701   5.199   3.528   1.877 -0.3157  0.0455  0.0232
   13MOL   C518 8702   5.137   3.464   1.771 -0.0078 -0.4990 -0.6507
   13MOL   C519 8703   5.152   3.321   1.749  0.1743 -0.2961 -0.6738
   13MOL   O520 8704   5.056   3.251   1.719  0.2086  0.2052 -0.1356
   13MOL   C521 8705   5.286   3.259   1.755 -0.6387  0.1152  0.4845
   13MOL   C522 8706   5.410   3.330   1.745 -0.3580 -0.1724  0.0633
   13MOL   C523 8707   5.536   3.266   1.733 -0.0416 -0.8654  0.1930
   13MOL   C524 8708   5.537   3.124   1.754  0.5563 -0.1590  0.1031
   13MOL   O525 8709   5.659   3.054   1.746 -0.2052 -0.0279 -0.6739
   13MOL   C526 8710   5.677   2.978   1.631 -0.8300  0.2629 -0.5664
   13MOL   C527 8711   5.697   2.835   1.643 -0.7761  1.1659 -0.3133
   13MOL   C528 8712   5.730   2.759   1.524 -0.1798  0.2395  0.4248
   13MOL   C529 8713   5.728   2.816   1.395 -0.1118  0.5985 -0.1403
   13MOL   C530 8714   5.698   2.953   1.388  0.3336 -0.0085  0.0738
   13MOL   C531 8715   5.680   3.032   1.505 -0.2703  0.1460 -0.1950
   13MOL   C532 8716   5.420   3.050   1.758  0.2110 -0.8880 -0.0076
   13MOL   C533 8717   5.296   3.117   1.759 -0.1763 -0.8300  0.2445
   13MOL   H534 8718   5.001   3.495   1.602 -0.6485 -0.6253  1.0643
   13MOL   H535 8719   4.998   3.728   1.610  1.4405  1.0078 -0.5992
   13MOL   H536 8720   5.233   3.709   1.974 -0.8976  0.7554 -0.3899
   13MOL   H537 8721   5.253   3.471   1.951 -0.0026 -0.1342 -0.3438
   13MOL   H538 8722   5.413   3.438   1.739  2.0506 -0.1762  0.8798
   13MOL   H539 8723   5.628   3.321   1.719 -0.2514 -0.9751 -1.6456
   13MOL   H540 8724   5.685   2.782   1.736  0.4798  1.5939  0.0987
   13MOL   H541 8725   5.760   2.655   1.533 -0.0454  0.2990  0.6555
   13MOL   H542 8726   5.698   2.995   1.289 -1.8734 -0.9999 -0.3781
   13MOL   H543 8727   5.676   3.140   1.494 -0.7609  0.1947  0.4204
   13MOL   H544 8728   5.422   2.942   1.759  0.4528 -0.9125 -1.8247
   13MOL   H545 8729   5.202   3.064   1.766  0.0589 -1.0020  2.3900
   13MOL   C546 8730   6.124   2.681   1.281 -0.0427  0.5820  0.0571
   13MOL   C547 8731   6.005   2.744   1.310  0.1033 -0.3249  0.1041
   13MOL   C548 8732   5.880   2.686   1.268  0.5779  0.1843 -0.4144
   13MOL   O549 8733   5.756   2.743   1.286 -0.8726 -0.0772  0.4027
   13MOL   C550 8734   5.888   2.559   1.199 -0.6674 -0.2101  0.4654
   13MOL   C551 8735   6.013   2.496   1.172 -0.4010  0.1404  0.1174
   13MOL   C552 8736   6.132   2.551   1.222 -0.3726  0.1888 -0.9814
   13MOL   C553 8737   6.264   2.483   1.191  0.8344 -0.3550 -0.1484
   13MOL   O554 8738   6.303   2.472   1.076  0.3588 -0.1282 -0.2200
   13MOL   C555 8739   6.343   2.420   1.307 -0.2792 -0.2884 -0.5583
   13MOL   C556 8740   6.310   2.431   1.442  0.0706 -0.1652  0.0508
   13MOL   C557 8741   6.399   2.385   1.544  0.9876 -0.0473 -0.1791
   13MOL   C558 8742   6.518   2.322   1.510 -0.1635 -0.5357 -0.1783
   13MOL   O559 8743   6.596   2.259   1.602 -0.2187 -0.2604 -0.2756
   13MOL   C560 8744   6.579   2.128   1.646 -0.0926 -0.0181  1.0980
   13MOL   C561 8745   6.527   2.031   1.557  0.3193 -0.0251  0.3340
   13MOL   C562 8746   6.500   1.901   1.611 -0.7745 -0.4746  0.7624
   13MOL   C563 8747   6.514   1.875   1.748  0.2533  1.0437 -0.0648
   13MOL   C564 8748   6.562   1.974   1.835  0.4266 -0.1264 -0.3282
   13MOL   C565 8749   6.605   2.100   1.781  0.4260 -0.3143 -0.3221
   13MOL   C566 8750   6.550   2.309   1.370 -0.3614  0.7620  0.0334
   13MOL   C567 8751   6.464   2.353   1.273 -0.2767 -0.3643  0.7384
   13MOL   H568 8752   6.216   2.726   1.315 -0.7794  0.7746  1.8510
   13MOL   H569 8753   6.004   2.843   1.352  1.3728 -0.5253  0.6212
   13MOL   H570 8754   5.799   2.518   1.154  0.7401 -0.8332 -1.8524
   13MOL   H571 8755   6.013   2.417   1.098 -1.3611  0.7360 -0.5363
   13MOL   H572 8756   6.222   2.482   1.478  0.9152  1.8044 -0.6544
   13MOL   H573 8757   6.364   2.394   1.646  0.2785  0.0619 -0.4301
   13MOL   H574 8758   6.502   2.037   1.452 -0.4745  0.7046  0.5616
   13MOL   H575 8759   6.454   1.820   1.557  1.1412 -1.0437 -0.0443
   13MOL   H576 8760   6.592   1.945   1.934  0.5402  0.9179 -0.0489
   13MOL   H577 8761   6.650   2.178   1.841 -1.0769  1.8795 -1.9928
   13MOL   H578 8762   6.629   2.248   1.330 -1.4582 -0.4421 -0.3402
   13MOL   H579 8763   6.485   2.330   1.170 -1.0364 -1.0781  0.7396
   13MOL   C580 8764   6.102   1.845   1.801 -0.3039 -0.0680 -1.0284
   13MOL   C581 8765   6.242   1.856   1.815  0.2139  0.6110  0.4582
   13MOL   C582 8766   6.326   1.746   1.793 -0.6999 -0.5461 -0.4276
   13MOL   O583 8767   6.465   1.756   1.798  0.2526  0.0262  0.0790
   13MOL   C584 8768   6.266   1.623   1.770  0.4115  0.6194 -0.6265
   13MOL   C585 8769   6.126   1.604   1.771 -0.1691  0.0353  0.4173
   13MOL   C586 8770   6.045   1.719   1.780 -0.1194  0.5110  0.2422
   13MOL   C587 8771   5.901   1.695   1.777 -0.6722  0.1218  0.2045
   13MOL   O588 8772   5.859   1.621   1.858 -0.1865 -0.2243  0.1862
   13MOL   C589 8773   5.816   1.754   1.675 -0.2599 -0.4368  0.1997
   13MOL   C590 8774   5.676   1.750   1.687  0.7232  0.3382  0.7685
   13MOL   C591 8775   5.592   1.807   1.590 -0.1117  0.0842  0.0905
   13MOL   C592 8776   5.652   1.882   1.488  0.8832 -0.1373  0.3018
   13MOL   O593 8777   5.567   1.944   1.398  0.2993  0.9346 -0.5319
   13MOL   C594 8778   5.463   2.020   1.443  0.2718  0.7517 -0.5282
   13MOL   C595 8779   5.492   2.124   1.533  0.4142  0.2795 -0.2287
   13MOL   C596 8780   5.379   2.201   1.578 -0.2554  0.8679  0.0423
   13MOL   C597 8781   5.254   2.188   1.518  0.1199  0.3095  0.8340
   13MOL   C598 8782   5.231   2.091   1.429  0.3460  0.7908  0.0276
   13MOL   C599 8783   5.331   2.000   1.402  0.4422  0.0875 -0.5400
   13MOL   C600 8784   5.796   1.887   1.474 -0.1411  0.1089  0.1920
   13MOL   C601 8785   5.877   1.817   1.564  0.1265 -0.1102 -0.1174
   13MOL   H602 8786   6.043   1.935   1.813  0.0470 -0.0271  0.4754
   13MOL   H603 8787   6.285   1.953   1.834  0.1468  0.4513  1.4385
   13MOL   H604 8788   6.331   1.537   1.770  0.8667  0.9447  0.7090
   13MOL   H605 8789   6.088   1.505   1.755 -1.2151  0.5938 -0.6472
   13MOL   H606 8790   5.633   1.706   1.775  1.4005  0.0834  0.9710
   13MOL   H607 8791   5.486   1.792   1.606 -0.1928  2.4722  2.0160
   13MOL   H608 8792   5.593   2.134   1.569  0.3636  3.6926 -0.9014
   13MOL   H609 8793   5.386   2.272   1.659 -2.5107  1.2971 -0.1132
   13MOL   H610 8794   5.133   2.063   1.396 -0.2030 -0.6315  2.7221
   13MOL   H611 8795   5.318   1.907   1.348 -2.1663  0.0590  0.0758
   13MOL   H612 8796   5.837   1.940   1.389  0.2601 -1.7399 -0.7946
   13MOL   H613 8797   5.983   1.818   1.546 -0.4773  0.6894 -3.8803
   13MOL   C614 8798   4.821   2.171   1.685  0.1220 -0.2725  0.3009
   13MOL   C615 8799   4.920   2.232   1.609 -0.1583 -0.0915 -0.6863
   13MOL   C616 8800   5.054   2.205   1.635 -0.3221 -0.4355  0.3425
   13MOL   O617 8801   5.151   2.266   1.563  0.3373 -0.2802  0.0564
   13MOL   C618 8802   5.087   2.120   1.745  0.7193 -0.5444  0.1587
   13MOL   C619 8803   4.985   2.051   1.811  0.2605  0.9487 -0.3022
   13MOL   C620 8804   4.850   2.074   1.783  0.6433  0.4027 -0.2785
   13MOL   C621 8805   4.746   2.005   1.868  0.2638  0.4196  0.1238
   13MOL   O622 8806   4.739   1.878   1.856 -0.2419  0.4697 -0.0585
   13MOL   C623 8807   4.685   2.080   1.974 -0.4684 -0.2248 -0.4008
   13MOL   C624 8808   4.628   2.005   2.076  0.2056 -1.2007  0.5596
   13MOL   C625 8809   4.571   2.067   2.186 -0.0134  0.3138 -0.5616
   13MOL   C626 8810   4.562   2.205   2.192  0.3721  0.2537 -0.4271
   13MOL   O627 8811   4.501   2.267   2.299  0.1470 -0.1587 -0.2614
   13MOL   C628 8812   4.567   2.355   2.381  0.1551 -0.1856  0.8164
   13MOL   C629 8813   4.492   2.444   2.461 -0.3787 -0.2023  0.3709
   13MOL   C630 8814   4.549   2.520   2.565 -0.4139 -0.5599  0.4326
   13MOL   C631 8815   4.685   2.505   2.590  0.2909  0.6985 -0.1588
   13MOL   C632 8816   4.762   2.417   2.506  0.8631 -0.0964 -0.2399
   13MOL   C633 8817   4.704   2.336   2.405  0.4582 -0.2749 -0.4547
   13MOL   C634 8818   4.632   2.285   2.097 -0.5661 -0.1992 -0.1363
   13MOL   C635 8819   4.687   2.225   1.986  0.3011  0.4529  0.0014
   13MOL   H636 8820   4.721   2.209   1.669 -0.5977 -2.4993 -0.8073
   13MOL   H637 8821   4.890   2.294   1.526  0.1760 -0.7857 -1.3334
   13MOL   H638 8822   5.189   2.109   1.779  0.2044 -0.4693  1.7728
   13MOL   H639 8823   5.009   1.989   1.896  1.3307  2.6218  0.6681
   13MOL   H640 8824   4.638   1.898   2.076  1.6903 -1.0799  1.0492
   13MOL   H641 8825   4.547   2.007   2.273 -1.7429 -0.5303 -1.5879
   13MOL   H642 8826   4.385   2.448   2.450 -0.1010  1.7271 -2.0271
   13MOL   H643 8827   4.487   2.584   2.627 -1.2763 -1.4103  0.4731
   13MOL   H644 8828   4.867   2.409   2.531  1.3882  1.3084 -1.9033
   13MOL   H645 8829   4.769   2.273   2.345  0.4217  0.5432 -1.3734
   13MOL   H646 8830   4.627   2.392   2.106  2.0023 -0.0176 -0.5198
   13MOL   H647 8831   4.747   2.287   1.921  1.3474 -1.0600 -0.4925
   13MOL   C648 8832   4.960   2.484   2.973  0.9487  0.3204  0.3071
   13MOL   C649 8833   4.902   2.550   2.864  0.6252  0.7299  0.3731
   13MOL   C650 8834   4.792   2.494   2.794  0.0841  0.6385  0.3050
   13MOL   O651 8835   4.742   2.569   2.693 -0.2148 -0.5162  0.8119
   13MOL   C652 8836   4.746   2.366   2.829 -0.5506 -0.3870  0.3947
   13MOL   C653 8837   4.810   2.292   2.929 -0.2381  0.1151 -0.5356
   13MOL   C654 8838   4.919   2.350   3.003  0.9789  0.0663 -0.5782
   13MOL   C655 8839   4.981   2.267   3.111  0.0811 -0.2861  0.8057
   13MOL   O656 8840   5.042   2.164   3.090  0.3178  0.9662 -0.2127
   13MOL   C657 8841   4.946   2.314   3.245 -0.3094 -0.4269 -0.2461
   13MOL   C658 8842   5.005   2.239   3.349 -0.1615  0.9286 -0.2559
   13MOL   C659 8843   4.965   2.262   3.479  0.6619 -0.2801 -0.0565
   13MOL   C660 8844   4.886   2.376   3.511 -0.4671  0.7775 -0.2276
   13MOL   O661 8845   4.838   2.398   3.641  0.4172 -0.0475 -0.6554
   13MOL   C662 8846   4.703   2.411   3.669 -0.0886 -0.0108 -0.0370
   13MOL   C663 8847   4.607   2.317   3.617  0.3735  0.5133  0.0307
   13MOL   C664 8848   4.474   2.327   3.667 -0.2701  0.4179  0.3162
   13MOL   C665 8849   4.430   2.431   3.752  0.7684 -0.1140  0.0663
   13MOL   C666 8850   4.517   2.533   3.787  0.5348  0.7103  0.4470
   13MOL   C667 8851   4.650   2.523   3.745 -0.1045  0.5187  0.9768
   13MOL   C668 8852   4.847   2.466   3.407 -0.1597 -0.2965 -0.1427
   13MOL   C669 8853   4.874   2.429   3.271  0.1546  0.4531 -0.4622
   13MOL   H670 8854   5.042   2.529   3.027 -1.9674  1.8124  3.7499
   13MOL   H671 8855   4.944   2.641   2.822 -1.7929  2.0043  0.5781
   13MOL   H672 8856   4.653   2.339   2.781 -0.3721  1.1086 -0.8505
   13MOL   H673 8857   4.769   2.197   2.960 -0.0323 -0.0286 -0.7018
   13MOL   H674 8858   5.048   2.145   3.320 -0.5455  1.0431 -1.2510
   13MOL   H675 8859   4.995   2.185   3.548  2.0484 -1.8889 -2.3958
   13MOL   H676 8860   4.641   2.229   3.565 -0.8664  1.4195 -2.3874
   13MOL   H677 8861   4.407   2.249   3.633 -0.1143  1.0453 -1.5274
   13MOL   H678 8862   4.488   2.614   3.852 -0.6015 -0.7171  1.7481
   13MOL   H679 8863   4.721   2.597   3.780  0.6347  0.6893 -0.8538
   13MOL   H680 8864   4.802   2.558   3.439 -0.7377 -0.5456 -0.2345
   13MOL   H681 8865   4.847   2.501   3.194  0.9979 -0.6893 -1.8482
   13MOL   H682 8866   4.326   2.444   3.778  1.3265 -0.0994  2.4506
   14MOL     C1 8867   1.411   8.159   4.016  0.0491 -0.1350  0.2166
   14MOL     C2 8868   1.550   8.134   4.020  0.0781 -0.5614 -0.2115
   14MOL     C3 8869   1.616   8.093   3.900  0.0353  0.0061 -0.4351
   14MOL     O4 8870   1.749   8.076   3.891  0.1474  0.0567  0.1815
   14MOL     C5 8871   1.537   8.066   3.782 -0.1743  0.3951 -0.2134
   14MOL     C6 8872   1.401   8.108   3.776  0.6839  0.2012  0.8545
   14MOL     C7 8873   1.344   8.152   3.894  0.3029  0.1727  0.3162
   14MOL     C8 8874   1.204   8.206   3.888 -0.4706 -0.0844 -0.5769
   14MOL     O9 8875   1.168   8.276   3.793 -0.2127  0.3045 -0.0632
   14MOL    C10 8876   1.108   8.169   3.999 -0.6100 -0.1840  0.1679
   14MOL    C11 8877   1.109   8.047   4.068  0.1200 -0.0775 -0.5482
   14MOL    C12 8878   1.008   8.022   4.161  0.8354 -0.0183  0.1629
   14MOL    C13 8879   0.889   8.101   4.173 -0.3841 -0.7240 -0.6666
   14MOL    O14 8880   0.790   8.075   4.261  0.4909 -0.7892 -0.7989
   14MOL    C15 8881   0.663   8.047   4.221  0.0855 -0.3991 -0.1309
   14MOL    C16 8882   0.610   8.032   4.090  0.2715  0.4109 -0.1364
   14MOL    C17 8883   0.473   8.006   4.073 -0.3627  0.0692  0.1762
   14MOL    C18 8884   0.392   7.970   4.177  0.3310 -0.3419 -0.3497
   14MOL    C19 8885   0.442   7.976   4.306  0.9230 -0.5231  0.2256
   14MOL    C20 8886   0.573   8.024   4.331  0.4258  0.5661 -0.2039
   14MOL    C21 8887   0.891   8.219   4.099 -0.1360  0.0861 -0.0844
   14MOL    C22 8888   0.997   8.252   4.006 -0.0374  0.4127  0.0408
   14MOL    H23 8889   1.367   8.208   4.102 -1.7708  1.7797 -1.7140
   14MOL    H24 8890   1.606   8.159   4.109 -0.0587 -1.6816  0.2065
   14MOL    H25 8891   1.576   8.026   3.690 -0.8562  0.9236 -0.7337
   14MOL    H26 8892   1.343   8.099   3.686  1.7928  1.1677  0.0266
   14MOL    H27 8893   1.191   7.977   4.063  0.9720  0.7923  0.7685
   14MOL    H28 8894   1.009   7.930   4.216  0.4017  0.1539  0.4700
   14MOL    H29 8895   0.672   8.041   4.003  0.3003  0.2171 -0.1364
   14MOL    H30 8896   0.433   7.990   3.974  0.5435  2.0185 -0.5249
   14MOL    H31 8897   0.388   7.935   4.390  0.4623 -0.9882 -0.2957
   14MOL    H32 8898   0.609   8.020   4.433 -2.1373  1.7289  0.7759
   14MOL    H33 8899   0.804   8.283   4.105 -2.2345 -2.7820  1.2126
   14MOL    H34 8900   0.993   0.033   3.953  2.7944  1.4966  1.6595
   14MOL    H35 8901   1.772   8.083   3.800 -1.0287  1.3107 -0.0303
   14MOL    C36 8902   0.014   8.103   4.339  1.0344 -0.5085 -0.3247
   14MOL    C37 8903   0.119   8.084   4.250 -0.2309 -0.0587 -0.3616
   14MOL    C38 8904   0.161   7.954   4.241 -0.7743 -0.0303 -0.3670
   14MOL    O39 8905   0.261   7.925   4.156  0.1618  0.0113 -0.0332
   14MOL    C40 8906   0.105   7.841   4.313 -0.2443 -0.7104 -0.1856
   14MOL    C41 8907   8.310   7.863   4.398  0.2319 -0.2780 -0.4383
   14MOL    C42 8908   8.267   7.997   4.413  0.1902 -0.4656  0.3813
   14MOL    C43 8909   8.142   8.010   4.503 -0.5974  0.0867 -0.7502
   14MOL    O44 8910   8.139   7.952   4.614 -0.7101 -0.3269  0.2510
   14MOL    C45 8911   8.035   8.099   4.454 -0.6429 -0.0281  0.2495
   14MOL    C46 8912   8.010   8.123   4.320  0.3080  0.0542 -0.5645
   14MOL    C47 8913   7.905   8.208   4.277 -0.1864 -0.0891 -0.0722
   14MOL    C48 8914   7.821   8.263   4.378 -0.2421  0.1837  0.4025
   14MOL    O49 8915   7.725   0.041   4.335 -0.2112 -0.5346 -0.0275
   14MOL    C50 8916   7.735   0.168   4.385 -0.0399 -0.2174  0.0995
   14MOL    C51 8917   7.657   0.207   4.501 -0.8637  1.1847 -0.5260
   14MOL    C52 8918   7.668   0.333   4.555 -0.3411  0.4118  0.0619
   14MOL    C53 8919   7.754   0.429   4.491  0.7096 -0.7653 -0.0603
   14MOL    C54 8920   7.822   0.396   4.373 -0.8486  0.4769 -0.1916
   14MOL    C55 8921   7.808   0.268   4.316 -0.0878  0.6206 -0.5703
   14MOL    C56 8922   7.841   8.239   4.520 -0.2869 -0.3374  0.8831
   14MOL    C57 8923   7.952   8.161   4.555 -0.4148  0.2090  0.2144
   14MOL    H58 8924   8.280   8.198   4.360  1.0628 -0.1080 -2.0422
   14MOL    H59 8925   0.151   8.164   4.185  2.8948  0.5953  1.8387
   14MOL    H60 8926   0.169   7.754   4.313  1.7828  0.7638 -0.5601
   14MOL    H61 8927   8.269   7.776   4.448 -0.0603  0.0123 -0.1702
   14MOL    H62 8928   8.079   8.085   4.246  1.5654  1.6214 -0.2195
   14MOL    H63 8929   7.889   8.223   4.171 -0.3151  1.9940  0.2235
   14MOL    H64 8930   7.608   0.128   4.556  1.9760 -1.1885 -1.2552
   14MOL    H65 8931   7.618   0.357   4.647  1.0452 -1.9000  1.4959
   14MOL    H66 8932   7.890   0.467   4.329  2.5690 -2.6782 -0.3319
   14MOL    H67 8933   7.866   0.235   4.231  1.1738 -2.8430  1.5629
   14MOL    H68 8934   7.777   8.281   4.597 -1.9859 -1.2634  0.0075
   14MOL    H69 8935   7.952   8.141   4.661 -0.9576 -2.1125 -0.2019
   14MOL    C70 8936   7.879   0.526   4.896 -0.4389  0.0076 -0.2846
   14MOL    C71 8937   7.870   0.493   4.757  0.5557  1.1316  0.5908
   14MOL    C72 8938   7.784   0.576   4.673  0.1468 -0.4138  0.1418
   14MOL    O73 8939   7.761   0.555   4.540 -0.0203 -0.0440 -0.4470
   14MOL    C74 8940   7.705   0.676   4.733  0.2127 -0.3228 -0.5373
   14MOL    C75 8941   7.729   0.725   4.864 -0.4209  0.0122  0.6023
   14MOL    C76 8942   7.824   0.645   4.942  0.3645  0.0987  0.7872
   14MOL    C77 8943   7.853   0.681   5.084 -0.6567 -0.2296  0.1468
   14MOL    O78 8944   7.758   0.683   5.158  0.0091 -0.0420 -0.5172
   14MOL    C79 8945   7.992   0.709   5.122 -0.1515 -0.3353 -0.2406
   14MOL    C80 8946   8.040   0.683   5.253  0.6020 -0.5109 -0.6312
   14MOL    C81 8947   8.167   0.721   5.292 -0.1301 -0.5091  0.6314
   14MOL    C82 8948   8.251   0.794   5.203 -0.6505 -0.2574 -0.1958
   14MOL    O83 8949   0.055   0.854   5.248 -0.0332  0.0325  0.2661
   14MOL    C84 8950   0.054   0.989   5.262  0.0160 -0.4860  0.8852
   14MOL    C85 8951   8.273   1.047   5.352  0.0098  0.4346  0.9745
   14MOL    C86 8952   8.251   1.184   5.355 -1.4379 -0.1855  0.4052
   14MOL    C87 8953   0.019   1.275   5.271 -0.1256 -0.4923 -0.2463
   14MOL    C88 8954   0.109   1.214   5.176 -0.4322  0.5102  0.2140
   14MOL    C89 8955   0.136   1.075   5.177 -0.3416  0.1199  0.7123
   14MOL    C90 8956   8.215   0.811   5.069  0.4070 -0.0511 -0.2465
   14MOL    C91 8957   8.086   0.761   5.028 -0.0353 -0.3069  0.1679
   14MOL    H92 8958   7.930   0.467   4.971 -2.3911 -1.0275  0.2745
   14MOL    H93 8959   7.909   0.398   4.723 -1.4143  0.3190  0.5505
   14MOL    H94 8960   7.635   0.726   4.667 -0.0545 -1.8546 -1.4381
   14MOL    H95 8961   7.670   0.807   4.902  0.5252  0.9203  0.1439
   14MOL    H96 8962   7.975   0.640   5.327 -0.3122 -0.4517 -1.3870
   14MOL    H97 8963   8.199   0.716   5.394  2.1726 -4.4383 -0.1758
   14MOL    H98 8964   8.207   0.979   5.403 -0.3724 -0.1832 -0.3135
   14MOL    H99 8965   8.168   1.228   5.408  0.9749  2.0247  2.5017
   14MOL   H100 8966   0.154   1.274   5.098 -1.7134  0.2516 -0.7575
   14MOL   H101 8967   0.200   1.029   5.103 -0.1253  0.7562  0.4956
   14MOL   H102 8968   8.281   0.867   5.005  0.2925 -0.0543 -0.3674
   14MOL   H103 8969   8.053   0.780   4.927 -1.7207 -1.1512  0.5381
   14MOL   C104 8970   0.196   1.674   5.147  0.2851 -1.0871 -0.1419
   14MOL   C105 8971   0.084   1.595   5.154 -0.3811  0.3389  0.5013
   14MOL   C106 8972   0.083   1.502   5.259 -0.9551  0.0878  0.0436
   14MOL   O107 8973   8.294   1.406   5.256 -0.4388 -0.8955  0.8712
   14MOL   C108 8974   0.178   1.488   5.359  0.2193 -0.6612 -0.5777
   14MOL   C109 8975   0.290   1.576   5.354  0.4317 -0.3277  0.9011
   14MOL   C110 8976   0.301   1.666   5.237 -0.3096  0.5246 -0.0760
   14MOL   C111 8977   0.414   1.761   5.227  1.2150  1.4237  0.7846
   14MOL   O112 8978   0.403   1.857   5.148  0.4173 -0.2506  0.0626
   14MOL   C113 8979   0.525   1.754   5.328 -0.0131  0.4809 -0.2833
   14MOL   C114 8980   0.564   1.882   5.389 -0.0939  0.3583 -0.2958
   14MOL   C115 8981   0.683   1.893   5.471  0.5717  0.3970  0.0253
   14MOL   C116 8982   0.752   1.774   5.500 -0.2210 -0.2566  0.9472
   14MOL   O117 8983   0.853   1.772   5.584 -0.3497  0.0862 -0.4849
   14MOL   C118 8984   0.829   1.821   5.715  0.0183 -0.1688  0.3924
   14MOL   C119 8985   0.761   1.728   5.803 -0.8832 -0.0232 -0.6770
   14MOL   C120 8986   0.752   1.759   5.939  0.5900 -0.9372 -0.4393
   14MOL   C121 8987   0.808   1.879   5.991 -0.2317 -0.1612  0.4582
   14MOL   C122 8988   0.870   1.970   5.900  0.3335  0.0206 -0.1248
   14MOL   C123 8989   0.885   1.944   5.760  0.8318  0.7421  0.2286
   14MOL   C124 8990   0.719   1.649   5.438 -0.6428 -0.4331 -0.2214
   14MOL   C125 8991   0.604   1.642   5.351 -0.1555 -0.0672 -0.4103
   14MOL   H126 8992   0.205   1.740   5.061  0.4917  0.8512  1.3379
   14MOL   H127 8993   0.011   1.589   5.075 -0.2056 -2.4944  0.5152
   14MOL   H128 8994   0.176   1.414   5.436 -0.6719 -0.6919 -0.6327
   14MOL   H129 8995   0.354   1.576   5.441  1.9212 -2.1074 -0.1513
   14MOL   H130 8996   0.505   1.968   5.364  0.2593  0.7447  0.1832
   14MOL   H131 8997   0.710   1.987   5.516  0.0959  0.4989  0.0956
   14MOL   H132 8998   0.733   1.628   5.776  0.5139 -0.3428 -1.0139
   14MOL   H133 8999   0.692   1.697   6.004  1.7628 -2.7235 -1.0014
   14MOL   H134 9000   0.909   2.059   5.946  0.0632  0.3358 -0.4973
   14MOL   H135 9001   0.947   2.017   5.709 -1.4243  1.9376 -0.8930
   14MOL   H136 9002   0.779   1.563   5.467  0.7751  0.6505  0.1348
   14MOL   H137 9003   0.580   1.553   5.294 -0.8990  1.1976 -2.0949
   14MOL   C138 9004   0.849   1.732   6.444 -0.0955  0.1089 -0.0582
   14MOL   C139 9005   0.815   1.830   6.352  0.2568 -0.0494 -0.2869
   14MOL   C140 9006   0.850   1.816   6.218  0.3771 -0.0270  0.6390
   14MOL   O141 9007   0.807   1.907   6.126 -0.8596  0.2176 -0.0904
   14MOL   C142 9008   0.931   1.707   6.179  0.5773  0.4036 -0.4132
   14MOL   C143 9009   0.967   1.610   6.275  0.2277  0.2862 -0.7782
   14MOL   C144 9010   0.925   1.619   6.409  0.7586  0.3596 -0.9947
   14MOL   C145 9011   0.939   1.506   6.512  0.8848  0.5720 -0.0631
   14MOL   O146 9012   0.938   1.531   6.633  0.3416  0.0722  0.0321
   14MOL   C147 9013   0.962   1.370   6.463 -0.0983  0.1593  0.8962
   14MOL   C148 9014   1.048   1.282   6.529 -0.1664 -0.5663  0.0862
   14MOL   C149 9015   1.081   1.157   6.476 -0.0746 -0.2286 -0.6534
   14MOL   C150 9016   1.010   1.112   6.361  0.4428 -0.6259  0.1262
   14MOL   O151 9017   1.031   0.994   6.299 -0.2178  0.2395  0.2988
   14MOL   C152 9018   1.140   0.917   6.334 -0.3751 -0.5178 -0.3502
   14MOL   C153 9019   1.132   0.810   6.426 -0.1822  0.2483  0.0086
   14MOL   C154 9020   1.230   0.713   6.429  0.2355 -0.6835  0.6962
   14MOL   C155 9021   1.345   0.719   6.351 -0.4465  0.1271 -0.3269
   14MOL   C156 9022   1.354   0.821   6.256  0.6670  0.1503  0.6059
   14MOL   C157 9023   1.251   0.918   6.245 -1.0705 -0.0512  1.0979
   14MOL   C158 9024   0.922   1.199   6.290 -0.0560 -0.1600 -0.8800
   14MOL   C159 9025   0.894   1.325   6.340 -0.4328 -0.2362  0.0133
   14MOL   H160 9026   0.813   1.744   6.545 -1.7235  1.2816 -0.7577
   14MOL   H161 9027   0.752   1.912   6.384 -0.4435 -1.4018  1.8691
   14MOL   H162 9028   0.967   1.713   6.077 -1.9250  0.1624 -1.3291
   14MOL   H163 9029   1.029   1.529   6.241  2.3356  2.1215 -1.4014
   14MOL   H164 9030   1.096   1.311   6.621  0.9301 -0.0860 -0.6248
   14MOL   H165 9031   1.150   1.101   6.538  1.2473 -0.3495 -2.2283
   14MOL   H166 9032   1.042   0.806   6.486  0.2408  0.3914  0.6669
   14MOL   H167 9033   1.216   0.637   6.505 -3.4896 -0.1365  0.6531
   14MOL   H168 9034   1.446   0.825   6.199 -0.0915  1.4240 -0.5719
   14MOL   H169 9035   1.257   0.990   6.165  3.3303 -0.6175  0.8192
   14MOL   H170 9036   0.882   1.177   6.192 -1.5966 -1.0021 -0.0698
   14MOL   H171 9037   0.828   1.382   6.276 -0.4233 -1.6806 -1.3006
   14MOL   C172 9038   1.740   0.734   6.499  0.7749 -0.8338  0.3419
   14MOL   C173 9039   1.604   0.718   6.477 -0.3809  0.4529  0.1402
   14MOL   C174 9040   1.560   0.624   6.378 -0.1843  0.4908  0.0680
   14MOL   O175 9041   1.426   0.610   6.352 -0.5402  0.5622  0.2945
   14MOL   C176 9042   1.657   0.539   6.314  0.9836  0.1240  0.1721
   14MOL   C177 9043   1.795   0.559   6.339  0.3142  0.1933  0.1941
   14MOL   C178 9044   1.838   0.658   6.431 -0.1856 -0.2116 -0.1036
   14MOL   C179 9045   1.983   0.666   6.456 -0.8109  0.4860 -0.1669
   14MOL   O180 9046   2.061   0.626   6.370 -0.5825  0.1437 -0.4097
   14MOL   C181 9047   2.045   0.703   6.591  0.6252 -0.4347 -0.4962
   14MOL   C182 9048   1.982   0.692   6.720  0.2014  0.4786  0.4096
   14MOL   C183 9049   2.048   0.728   6.836  0.4263  0.2588 -0.3593
   14MOL   C184 9050   2.177   0.779   6.840 -0.4926 -0.0218 -0.6006
   14MOL   O185 9051   2.243   0.817   6.952 -0.2072  0.1330  0.2694
   14MOL   C186 9052   2.173   0.876   7.054  0.1969  0.0355  0.1504
   14MOL   C187 9053   2.160   0.805   7.179  0.0023 -0.5330 -0.4661
   14MOL   C188 9054   2.077   0.860   7.280 -0.8648  0.7600 -0.1049
   14MOL   C189 9055   2.015   0.988   7.272  0.1050 -0.1806  0.2342
   14MOL   C190 9056   2.021   1.053   7.146  0.9732  0.0659  0.4484
   14MOL   C191 9057   2.104   0.999   7.039 -1.0301  0.3648 -0.4204
   14MOL   C192 9058   2.242   0.789   6.713 -1.0575 -0.9555  0.0561
   14MOL   C193 9059   2.180   0.744   6.596  0.7152  0.0350 -0.0826
   14MOL   H194 9060   1.769   0.810   6.570 -0.1262 -0.5071  0.3727
   14MOL   H195 9061   1.534   0.771   6.539 -1.6244 -0.7331 -0.2109
   14MOL   H196 9062   1.621   0.468   6.241  0.1509  0.8171 -0.0975
   14MOL   H197 9063   1.865   0.497   6.285 -1.7922 -1.3423 -0.8416
   14MOL   H198 9064   1.876   0.669   6.725  0.2097  0.6059  1.1807
   14MOL   H199 9065   1.995   0.718   6.929 -0.8134  2.3445 -0.8079
   14MOL   H200 9066   2.205   0.709   7.201 -0.3451 -1.7194 -4.4536
   14MOL   H201 9067   2.056   0.793   7.362 -0.8659 -2.0817 -2.3403
   14MOL   H202 9068   1.967   1.143   7.120  2.6138  1.4356  1.6633
   14MOL   H203 9069   2.086   1.038   6.940  1.1766  0.4830 -0.7976
   14MOL   H204 9070   2.343   0.817   6.686 -1.3177 -1.5712 -1.6636
   14MOL   H205 9071   2.245   0.734   6.509 -0.5038 -1.7099 -0.8276
   14MOL   C206 9072   1.838   1.379   7.329  0.1818  0.1793 -0.3249
   14MOL   C207 9073   1.827   1.238   7.338 -0.2584 -0.2549  0.2201
   14MOL   C208 9074   1.930   1.158   7.389  0.7181 -0.2540  0.0654
   14MOL   O209 9075   1.927   1.027   7.369 -0.0295 -0.6080 -0.1043
   14MOL   C210 9076   2.023   1.228   7.468  0.3990  0.9216 -0.4844
   14MOL   C211 9077   2.036   1.364   7.460 -0.9319 -0.6788  0.1053
   14MOL   C212 9078   1.945   1.448   7.390 -0.6697  0.8603 -0.1635
   14MOL   C213 9079   1.947   1.595   7.377 -0.3470 -0.6851  0.2089
   14MOL   O214 9080   1.905   1.652   7.273 -0.0726 -0.0068 -0.0363
   14MOL   C215 9081   2.004   1.671   7.486 -0.2528  1.1329 -0.0175
   14MOL   C216 9082   1.981   1.646   7.623  0.1444  0.1316 -0.6381
   14MOL   C217 9083   2.058   1.718   7.720  0.0563  0.2086 -0.2979
   14MOL   C218 9084   2.144   1.816   7.684 -0.1527 -0.7517  0.1802
   14MOL   O219 9085   2.201   1.890   7.783 -0.2876 -0.1326  0.3928
   14MOL   C220 9086   2.199   2.026   7.774 -0.1799 -0.2071  0.0788
   14MOL   C221 9087   2.093   2.099   7.832 -0.0112 -0.1517 -0.0510
   14MOL   C222 9088   2.101   2.243   7.818 -0.2954  0.1670 -0.3965
   14MOL   C223 9089   2.206   2.308   7.750  0.1050  0.3953 -0.2117
   14MOL   C224 9090   2.309   2.234   7.697 -0.6701 -0.0033 -0.3277
   14MOL   C225 9091   2.304   2.095   7.711  0.0432 -0.3811 -0.7389
   14MOL   C226 9092   2.168   1.842   7.547 -0.2042 -0.0558  0.1519
   14MOL   C227 9093   2.097   1.767   7.448 -0.1343 -0.3864 -0.3310
   14MOL   H228 9094   1.756   1.425   7.276 -1.4466 -0.3774  1.6515
   14MOL   H229 9095   1.759   1.184   7.273  0.8350  0.6639 -1.7115
   14MOL   H230 9096   2.095   1.168   7.520 -1.5601 -2.5557 -1.6295
   14MOL   H231 9097   2.108   1.416   7.521  1.2323 -2.2345 -1.0523
   14MOL   H232 9098   1.914   1.572   7.665  1.3663 -0.9713 -0.5830
   14MOL   H233 9099   2.040   1.695   7.824  0.6324 -0.7813 -0.4131
   14MOL   H234 9100   2.009   2.063   7.889  0.5288  0.2212  1.0060
   14MOL   H235 9101   2.018   2.302   7.854 -3.0528 -2.5585 -2.0642
   14MOL   H236 9102   2.378   2.289   7.635  0.1712  1.3363  1.7298
   14MOL   H237 9103   2.388   2.041   7.670 -0.1784 -0.1928 -1.4337
   14MOL   H238 9104   2.239   1.914   7.508  1.6018 -1.8451  0.1049
   14MOL   H239 9105   2.121   1.781   7.344  1.2734  0.2351  0.0712
   14MOL   C240 9106   1.917   2.545   7.534  0.7064 -0.4070 -1.0824
   14MOL   C241 9107   2.039   2.481   7.571  0.5998 -0.0858 -0.5047
   14MOL   C242 9108   2.094   2.506   7.701  0.1583 -0.1946 -0.0114
   14MOL   O243 9109   2.211   2.445   7.741 -0.8149 -0.6267 -0.3748
   14MOL   C244 9110   2.034   2.603   7.784 -0.1309 -0.3768  0.0538
   14MOL   C245 9111   1.911   2.659   7.745  0.6801  0.3854 -0.5176
   14MOL   C246 9112   1.846   2.624   7.621  0.4144 -0.2481 -0.0209
   14MOL   C247 9113   1.723   2.694   7.589  0.1954 -0.7800 -0.1442
   14MOL   O248 9114   1.695   2.813   7.624 -0.1639  0.5776  0.5015
   14MOL   C249 9115   1.620   2.617   7.508 -0.4586  0.2671 -0.1624
   14MOL   C250 9116   1.580   2.491   7.554  0.2631 -0.0235  0.4604
   14MOL   C251 9117   1.480   2.419   7.486 -0.4135  0.1442 -0.1755
   14MOL   C252 9118   1.430   2.464   7.363 -0.1527  0.3455 -0.5385
   14MOL   O253 9119   1.346   2.384   7.290  0.3837  0.0347 -0.2164
   14MOL   C254 9120   1.388   2.273   7.221 -0.5582  1.0482 -0.0305
   14MOL   C255 9121   1.293   2.170   7.194 -0.4188  0.8768 -0.0176
   14MOL   C256 9122   1.323   2.053   7.118  0.2574  0.7233 -0.8226
   14MOL   C257 9123   1.456   2.039   7.077  0.8421  0.2839  0.3315
   14MOL   C258 9124   1.554   2.133   7.106  0.4178  0.1882 -0.0666
   14MOL   C259 9125   1.521   2.259   7.174  0.0551  0.4567 -0.2296
   14MOL   C260 9126   1.465   2.590   7.315 -0.8349 -0.1050  0.6157
   14MOL   C261 9127   1.558   2.673   7.389  0.2701 -0.1368 -0.1716
   14MOL   H262 9128   1.870   2.509   7.444 -0.0988  0.4227 -0.9981
   14MOL   H263 9129   2.082   2.410   7.503  1.7878 -0.5070  0.6854
   14MOL   H264 9130   2.066   2.631   7.883  0.1942  2.4146 -0.8220
   14MOL   H265 9131   1.866   2.729   7.813  0.7530  1.4585 -1.5612
   14MOL   H266 9132   1.630   2.439   7.635  2.2630  2.4943  0.8876
   14MOL   H267 9133   1.461   2.318   7.520  0.9386 -0.7030 -1.8267
   14MOL   H268 9134   1.192   2.195   7.224  0.3167  1.3112  2.2159
   14MOL   H269 9135   1.245   1.979   7.106  1.6385 -0.6803 -1.2680
   14MOL   H270 9136   1.651   2.108   7.065 -0.1653 -1.9248 -0.2310
   14MOL   H271 9137   1.604   2.326   7.191  0.8635 -0.3596 -0.8957
   14MOL   H272 9138   1.417   2.627   7.226  1.9624 -0.7784 -1.2272
   14MOL   H273 9139   1.578   2.769   7.344 -0.0674  0.9827  2.0430
   14MOL   C274 9140   1.524   1.641   7.232 -1.0717  0.2389 -0.5340
   14MOL   C275 9141   1.559   1.760   7.173 -0.1008  0.2861  0.0763
   14MOL   C276 9142   1.467   1.813   7.078 -0.7371  0.7626 -0.5348
   14MOL   O277 9143   1.497   1.924   7.015 -0.2511  0.3835 -0.0606
   14MOL   C278 9144   1.341   1.745   7.046 -0.7597 -0.2627 -0.2839
   14MOL   C279 9145   1.314   1.626   7.110 -0.2408  0.2608 -0.3388
   14MOL   C280 9146   1.409   1.569   7.198 -0.2412 -0.6232 -0.4871
   14MOL   C281 9147   1.396   1.426   7.251  0.4355  0.0145  0.2247
   14MOL   O282 9148   1.497   1.357   7.257 -0.9533  0.2323  0.0245
   14MOL   C283 9149   1.255   1.379   7.274 -0.4799  0.3019 -0.1023
   14MOL   C284 9150   1.213   1.247   7.238 -0.1326 -0.8152 -0.4134
   14MOL   C285 9151   1.077   1.209   7.263 -0.0238 -0.3438  0.5941
   14MOL   C286 9152   0.993   1.305   7.329  0.4078  0.6386 -0.2501
   14MOL   O287 9153   0.870   1.268   7.375  0.2925  0.0616 -0.0300
   14MOL   C288 9154   0.842   1.150   7.437  0.2987  0.2646 -0.2101
   14MOL   C289 9155   0.715   1.096   7.414  0.0743  0.4472  0.7737
   14MOL   C290 9156   0.687   0.968   7.451  0.4778  0.0742 -0.5988
   14MOL   C291 9157   0.777   0.892   7.527  0.6865 -0.1566  0.5492
   14MOL   C292 9158   0.907   0.943   7.557  0.3725  0.1716  0.0428
   14MOL   C293 9159   0.937   1.072   7.504 -0.4775 -0.3727 -0.6420
   14MOL   C294 9160   1.033   1.437   7.352  0.1711  0.0474  0.1120
   14MOL   C295 9161   1.164   1.474   7.325 -0.5992 -0.5246  0.5579
   14MOL   H296 9162   1.594   1.601   7.304  1.5258  1.8290 -2.0769
   14MOL   H297 9163   1.658   1.800   7.191 -0.3153  0.8057  0.0866
   14MOL   H298 9164   1.264   1.788   6.984 -1.8132 -1.7478 -0.0431
   14MOL   H299 9165   1.227   1.567   7.085 -0.0382 -2.3156  4.4016
   14MOL   H300 9166   1.276   1.173   7.190 -1.2931 -2.6275  0.8067
   14MOL   H301 9167   1.041   1.116   7.222 -2.1571  1.4479 -1.7316
   14MOL   H302 9168   0.648   1.156   7.353  0.0404  1.0645  1.4055
   14MOL   H303 9169   0.599   0.908   7.435  1.4953 -1.9911  1.2740
   14MOL   H304 9170   0.975   0.893   7.623  0.2119  1.6429  1.3546
   14MOL   H305 9171   1.034   1.118   7.522 -0.6563 -0.3909  0.3635
   14MOL   H306 9172   0.962   1.508   7.391  1.1526 -0.3173  2.5960
   14MOL   H307 9173   1.190   1.575   7.355 -1.4058 -0.1653  0.0482
   14MOL   C308 9174   0.820   0.735   7.926  0.6402 -0.0963 -0.2577
   14MOL   C309 9175   0.784   0.788   7.803  0.1760  0.6852 -0.7689
   14MOL   C310 9176   0.783   0.711   7.686 -1.5090 -0.3096 -0.3008
   14MOL   O311 9177   0.751   0.759   7.560 -0.0712  0.2661  1.0674
   14MOL   C312 9178   0.816   0.575   7.698 -0.3554 -0.1985  0.5710
   14MOL   C313 9179   0.863   0.522   7.817  0.7241 -0.0182 -0.4237
   14MOL   C314 9180   0.861   0.601   7.940 -0.0353  0.6170 -0.4836
   14MOL   C315 9181   0.889   0.539   8.073  0.3532 -0.2500  0.8893
   14MOL   O316 9182   0.975   0.577   8.147  0.0933  0.2579 -0.4135
   14MOL   C317 9183   0.810   0.419   8.102  0.6072 -0.4027  0.5102
   14MOL   C318 9184   0.872   0.302   8.154 -0.2418  0.1996 -0.1141
   14MOL   C319 9185   0.798   0.190   8.184 -0.3017  0.8544  1.2097
   14MOL   C320 9186   0.666   0.188   8.153 -0.2030 -0.4128  0.1421
   14MOL   O321 9187   0.596   0.072   8.173 -0.0513 -0.6845  0.6193
   14MOL   C322 9188   0.604   8.295   8.070 -0.6199 -0.9571 -0.2523
   14MOL   C323 9189   0.544   0.010   7.943 -0.1745  1.0326 -0.9410
   14MOL   C324 9190   0.541   8.217   7.848 -0.2377 -0.0011 -0.1027
   14MOL   C325 9191   0.608   8.094   7.877  0.8468 -0.6116  0.7056
   14MOL   C326 9192   0.655   8.068   8.004  0.8691  0.1319  0.4285
   14MOL   C327 9193   0.638   8.167   8.100 -0.4004 -0.5702  0.5637
   14MOL   C328 9194   0.600   0.299   8.104 -0.0054 -0.0639  0.1693
   14MOL   C329 9195   0.672   0.417   8.080  0.0026  0.3639 -0.3106
   14MOL   H330 9196   0.826   0.807   8.006  0.1658  1.3352 -1.4846
   14MOL   H331 9197   0.758   0.892   7.794  1.3749  1.1816  1.2331
   14MOL   H332 9198   0.805   0.518   7.607 -3.1775  1.8236 -0.4159
   14MOL   H333 9199   0.896   0.420   7.827  0.7853  0.2817  3.0638
   14MOL   H334 9200   0.971   0.300   8.197 -0.8910  0.9210  1.4556
   14MOL   H335 9201   0.844   0.096   8.212 -0.4977 -0.3098 -2.0409
   14MOL   H336 9202   0.499   0.107   7.931 -0.3401  1.1671  0.6559
   14MOL   H337 9203   0.492   8.232   7.753  1.0828  4.2479 -0.1821
   14MOL   H338 9204   0.695   7.968   8.009  0.0835 -0.3373 -2.0133
   14MOL   H339 9205   0.647   8.129   8.201  0.7468 -2.0378 -0.0643
   14MOL   H340 9206   0.492   0.298   8.101 -0.1425  0.7904  3.2194
   14MOL   H341 9207   0.624   0.505   8.038  0.8475  2.0015  2.0519
   14MOL   C342 9208   0.830   8.121   7.511  0.1643  0.1781 -0.2630
   14MOL   C343 9209   0.782   8.099   7.640  0.3180 -0.0740  0.2112
   14MOL   C344 9210   0.668   8.011   7.655  0.2501 -0.8965  0.2670
   14MOL   O345 9211   0.615   7.993   7.782  0.0020  0.3859  0.0115
   14MOL   C346 9212   0.611   7.943   7.549 -0.3605 -0.1184 -0.1369
   14MOL   C347 9213   0.676   7.965   7.422  0.2766  0.2823 -0.2862
   14MOL   C348 9214   0.778   8.053   7.401 -0.3669 -0.8936 -1.0321
   14MOL   C349 9215   0.833   8.068   7.262 -0.1818  0.0532  0.0863
   14MOL   O350 9216   0.847   8.181   7.216  0.1184  0.0628  0.1043
   14MOL   C351 9217   0.889   7.954   7.191  1.0781 -0.5809  0.8124
   14MOL   C352 9218   0.961   7.849   7.258  0.3052  0.0304 -0.0226
   14MOL   C353 9219   1.020   7.758   7.172 -0.1476 -0.1853 -0.5146
   14MOL   C354 9220   0.992   7.749   7.034  0.1472  0.1221 -0.3401
   14MOL   O355 9221   1.050   7.649   6.955  1.0713 -0.5804  0.5092
   14MOL   C356 9222   1.065   7.518   6.999 -0.1127 -0.5668  0.4256
   14MOL   C357 9223   0.948   7.439   6.993 -0.0886 -0.9962 -0.1103
   14MOL   C358 9224   0.947   7.313   7.051 -0.3968  0.2098 -0.1108
   14MOL   C359 9225   1.062   7.267   7.122 -0.3905 -1.3147  0.5074
   14MOL   C360 9226   1.179   7.349   7.126  0.8727  0.1426  0.0974
   14MOL   C361 9227   1.179   7.478   7.073  0.4710 -0.5430  0.6632
   14MOL   C362 9228   0.906   7.838   6.974  0.5698 -0.6862 -0.3545
   14MOL   C363 9229   0.858   7.947   7.052  0.0109  0.3384 -0.4523
   14MOL   H364 9230   0.911   8.191   7.493  0.2176 -0.2451 -1.7242
   14MOL   H365 9231   0.828   8.149   7.724 -0.5282  0.2614  0.4752
   14MOL   H366 9232   0.530   7.871   7.554  0.5861 -1.1503  0.5458
   14MOL   H367 9233   0.630   7.901   7.348 -0.9582  1.1925 -0.3351
   14MOL   H368 9234   0.978   7.843   7.364 -1.9258  2.6328  0.5331
   14MOL   H369 9235   1.075   7.679   7.221  0.5022  0.1110 -0.7659
   14MOL   H370 9236   0.871   7.483   6.930  1.5494  2.4924  0.2289
   14MOL   H371 9237   0.857   7.254   7.041 -0.5239  0.2629  0.6385
   14MOL   H372 9238   1.263   7.305   7.178  2.3076  2.3951 -0.2510
   14MOL   H373 9239   1.263   7.545   7.083 -1.3199  1.9782 -0.6266
   14MOL   H374 9240   0.885   7.837   6.868 -0.9269 -0.9100 -0.0695
   14MOL   H375 9241   0.800   8.026   7.006 -0.5521 -0.2303 -0.7232
   14MOL   C376 9242   1.165   6.895   6.922 -0.3139 -0.1345 -0.3321
   14MOL   C377 9243   1.158   7.015   6.994 -0.6077 -0.3001  0.2675
   14MOL   C378 9244   1.068   7.031   7.099 -0.4524 -0.3134 -0.3490
   14MOL   O379 9245   1.062   7.146   7.181  0.3325  0.4808 -0.7305
   14MOL   C380 9246   0.978   6.927   7.121  0.7262  0.5168 -0.3431
   14MOL   C381 9247   0.980   6.805   7.047  0.2698  0.0246  0.3557
   14MOL   C382 9248   1.067   6.793   6.943  0.6309 -0.4729  0.2285
   14MOL   C383 9249   1.064   6.677   6.847  1.1559  0.6675 -0.4424
   14MOL   O384 9250   0.987   6.580   6.863 -0.4726 -0.7484  1.0118
   14MOL   C385 9251   1.136   6.687   6.722 -1.2127  0.7428 -0.0367
   14MOL   C386 9252   1.075   6.761   6.614 -0.3681  0.6163 -0.4803
   14MOL   C387 9253   1.150   6.808   6.498  0.2449 -0.5794 -0.1571
   14MOL   C388 9254   1.283   6.763   6.494 -0.1500  0.2886  0.1021
   14MOL   O389 9255   1.363   6.804   6.391  0.5348  0.1455 -0.0962
   14MOL   C390 9256   1.394   6.939   6.382  0.1446  0.2405 -0.3565
   14MOL   C391 9257   1.419   7.012   6.499 -0.5984 -0.3223  0.3284
   14MOL   C392 9258   1.472   7.142   6.496 -0.1165  0.4971  0.8082
   14MOL   C393 9259   1.514   7.195   6.375 -0.2852 -0.2321  0.2393
   14MOL   C394 9260   1.511   7.120   6.255  0.2509  0.0479 -0.5074
   14MOL   C395 9261   1.449   6.988   6.259  0.5160  0.6691 -0.0233
   14MOL   C396 9262   1.341   6.687   6.598  0.4211 -0.0797 -0.1933
   14MOL   C397 9263   1.271   6.642   6.711 -0.4204  0.3627 -0.4471
   14MOL   H398 9264   1.249   6.881   6.856 -0.1677  0.6477 -0.3173
   14MOL   H399 9265   1.218   7.101   6.968 -0.4467 -0.7318 -0.8130
   14MOL   H400 9266   0.906   6.934   7.202  0.4099 -2.0378 -0.3589
   14MOL   H401 9267   0.902   6.731   7.058  0.2166  0.1113  0.5741
   14MOL   H402 9268   0.971   6.788   6.612 -0.0141  2.0906  0.3637
   14MOL   H403 9269   1.101   6.872   6.426  0.9214 -0.0433 -0.1475
   14MOL   H404 9270   1.405   6.976   6.600  2.1725  0.6608  1.1007
   14MOL   H405 9271   1.471   7.193   6.591 -0.5187  2.4748 -0.2194
   14MOL   H406 9272   1.540   7.178   6.169  0.1572 -1.1180 -1.3306
   14MOL   H407 9273   1.469   6.922   6.176  2.2599 -0.9157  1.6023
   14MOL   H408 9274   1.448   6.675   6.594  0.1853 -1.7421 -2.1018
   14MOL   H409 9275   1.327   6.593   6.789 -1.5387 -1.4363 -0.7290
   14MOL   C410 9276   1.430   7.642   6.507 -0.1997  0.8502  0.0140
   14MOL   C411 9277   1.511   7.533   6.476  0.1345  0.0543  0.0238
   14MOL   C412 9278   1.473   7.437   6.385  0.4879 -0.4411 -0.5086
   14MOL   O413 9279   1.557   7.326   6.360  0.3809 -0.5047 -0.3339
   14MOL   C414 9280   1.347   7.447   6.315  0.0209 -0.0612 -0.0291
   14MOL   C415 9281   1.262   7.558   6.338  0.1863 -0.1484  0.1899
   14MOL   C416 9282   1.305   7.654   6.436 -0.0402 -0.6256  0.0717
   14MOL   C417 9283   1.223   7.779   6.454  0.3485  0.0642  0.4118
   14MOL   O418 9284   1.209   7.820   6.569 -0.4371 -0.2364 -0.1739
   14MOL   C419 9285   1.159   7.849   6.333 -0.3353 -0.5089  0.2294
   14MOL   C420 9286   1.057   7.947   6.355 -1.1282  0.3338 -0.2481
   14MOL   C421 9287   1.001   8.011   6.246 -0.0040 -0.4874 -0.8959
   14MOL   C422 9288   1.048   7.985   6.116 -0.2367  0.5051 -0.4881
   14MOL   O423 9289   1.007   8.056   6.010 -0.1774 -0.3567  0.1563
   14MOL   C424 9290   0.965   8.183   6.028 -0.3878  0.5803  0.2962
   14MOL   C425 9291   0.831   8.224   5.984 -0.0825  0.8748  0.3257
   14MOL   C426 9292   0.788   0.042   6.008  0.3793 -0.1020  0.5316
   14MOL   C427 9293   0.875   0.126   6.081  0.0913  0.1316 -0.4652
   14MOL   C428 9294   1.003   0.087   6.119  0.1390  0.1974  0.0480
   14MOL   C429 9295   1.050   8.276   6.087 -0.4081  0.2344  0.2774
   14MOL   C430 9296   1.150   7.891   6.096  0.9619 -0.3318  0.2731
   14MOL   C431 9297   1.210   7.824   6.201  0.1746  0.4549 -0.0574
   14MOL   H432 9298   1.453   7.713   6.585 -0.7125 -0.4570  1.4043
   14MOL   H433 9299   1.599   7.524   6.538  0.5832  1.3928 -0.3992
   14MOL   H434 9300   1.303   7.371   6.252 -1.6573  1.6164 -0.9328
   14MOL   H435 9301   1.164   7.557   6.293 -0.3661 -0.2695  1.3872
   14MOL   H436 9302   1.005   7.969   6.447 -0.2292  2.1091 -0.1450
   14MOL   H437 9303   0.922   8.084   6.244  1.3717  1.1484  1.4794
   14MOL   H438 9304   0.765   8.143   5.955 -0.8798  0.8894  2.0306
   14MOL   H439 9305   0.688   0.077   5.987  0.7459  0.5618 -0.1525
   14MOL   H440 9306   1.061   0.160   6.174 -1.1697  1.6730 -0.5011
   14MOL   H441 9307   1.149   8.252   6.123 -1.6011 -1.2512  2.7285
   14MOL   H442 9308   1.192   7.872   5.998 -0.1106 -0.7925 -0.1150
   14MOL   H443 9309   1.293   7.759   6.176  0.0717  1.1521 -2.3428
   14MOL   C444 9310   0.841   0.609   6.007  0.0831  0.7368 -0.2217
   14MOL   C445 9311   0.876   0.487   6.071 -0.2749  0.0010  0.0362
   14MOL   C446 9312   0.806   0.361   6.048 -0.0109 -0.5488  0.1068
   14MOL   O447 9313   0.832   0.254   6.130  0.4457 -0.1495  0.2959
   14MOL   C448 9314   0.696   0.363   5.958  0.2489  0.4026 -0.1248
   14MOL   C449 9315   0.653   0.486   5.898 -0.1719 -0.2638 -0.5321
   14MOL   C450 9316   0.725   0.603   5.917  0.6439 -0.1068 -0.2800
   14MOL   C451 9317   0.682   0.732   5.844 -0.1199  0.2328 -0.0754
   14MOL   O452 9318   0.702   0.844   5.898  0.2298  0.5126  0.2879
   14MOL   C453 9319   0.628   0.712   5.704  0.4972 -0.5220 -0.3686
   14MOL   C454 9320   0.518   0.800   5.666 -0.0701 -0.5310  1.0186
   14MOL   C455 9321   0.465   0.785   5.535  0.5282  0.0997  1.2482
   14MOL   C456 9322   0.506   0.686   5.446 -0.4927 -0.2675 -0.0103
   14MOL   O457 9323   0.461   0.679   5.319  0.3971 -0.0273 -0.1092
   14MOL   C458 9324   0.355   0.598   5.302  0.3403  0.0306 -0.1109
   14MOL   C459 9325   0.300   0.514   5.400  0.3680 -0.7148 -0.4933
   14MOL   C460 9326   0.185   0.433   5.383  0.4873  0.2888  0.1649
   14MOL   C461 9327   0.118   0.437   5.255  0.1531 -0.1426  0.1789
   14MOL   C462 9328   0.165   0.527   5.155  0.0236 -0.1221 -0.0460
   14MOL   C463 9329   0.279   0.608   5.180  0.3018 -0.1871 -0.1879
   14MOL   C464 9330   0.615   0.602   5.484 -0.5943 -0.3624  0.2910
   14MOL   C465 9331   0.674   0.615   5.612  0.4899 -0.3491  0.2300
   14MOL   H466 9332   0.902   0.698   6.014 -1.7431  2.0199 -0.0951
   14MOL   H467 9333   0.962   0.467   6.134  0.8222 -0.4599 -1.5623
   14MOL   H468 9334   0.647   0.272   5.926  0.0212  0.0534  1.2069
   14MOL   H469 9335   0.568   0.470   5.833 -1.4063 -0.9670  1.2168
   14MOL   H470 9336   0.472   0.872   5.732  0.0985  1.1747 -0.6801
   14MOL   H471 9337   0.385   0.851   5.504  0.7577 -0.9764 -1.7398
   14MOL   H472 9338   0.346   0.502   5.497 -0.4608  0.4093  0.0543
   14MOL   H473 9339   0.159   0.363   5.461  0.6749 -1.3020 -1.1719
   14MOL   H474 9340   0.122   0.525   5.056 -0.8609 -1.9728  0.3491
   14MOL   H475 9341   0.309   0.660   5.090 -0.6745 -1.6103 -1.3568
   14MOL   H476 9342   0.662   0.541   5.410 -0.7714 -1.0384  0.7262
   14MOL   H477 9343   0.761   0.553   5.627 -0.8524 -2.4996 -0.6043
   14MOL   C478 9344   8.304   0.158   4.930  0.2083 -0.4447  0.1519
   14MOL   C479 9345   0.018   0.184   5.067 -0.2708 -0.2249 -0.6946
   14MOL   C480 9346   8.284   0.309   5.119 -0.7719  0.2952  0.0166
   14MOL   O481 9347   0.010   0.349   5.245 -0.2089 -0.7118 -0.2514
   14MOL   C482 9348   8.201   0.395   5.041  0.5388 -0.6347  0.3820
   14MOL   C483 9349   8.188   0.365   4.901 -0.3166 -0.3925 -0.6380
   14MOL   C484 9350   8.232   0.248   4.846 -0.7917 -0.2499  0.7034
   14MOL   C485 9351   8.212   0.212   4.707  0.0636  0.1063 -0.2759
   14MOL   O486 9352   8.161   0.106   4.681  0.5408  0.0263 -0.7370
   14MOL   C487 9353   8.253   0.306   4.592 -0.5295 -0.1719 -0.4379
   14MOL   C488 9354   8.172   0.306   4.478  0.1317 -0.5582 -0.6529
   14MOL   C489 9355   8.209   0.383   4.367 -0.2403  0.1216 -0.1149
   14MOL   C490 9356   0.016   0.462   4.372 -0.3553 -0.0296  0.0424
   14MOL   O491 9357   0.050   0.525   4.262  0.0058 -0.2974 -0.2995
   14MOL   C492 9358   0.003   0.653   4.243 -0.1953 -0.2007 -0.7398
   14MOL   C493 9359   8.230   0.679   4.141  0.0373 -0.2373  0.4793
   14MOL   C494 9360   8.176   0.808   4.117 -0.2477  0.3782 -0.1541
   14MOL   C495 9361   8.220   0.912   4.201 -0.3944  0.0877  0.1212
   14MOL   C496 9362   8.310   0.883   4.309 -0.2877  0.2580  0.8622
   14MOL   C497 9363   0.042   0.755   4.337 -0.4148 -0.3790 -0.0648
   14MOL   C498 9364   0.099   0.461   4.487  0.0343 -0.3823  0.8132
   14MOL   C499 9365   0.060   0.382   4.594 -0.1772  0.8768  0.0364
   14MOL   H500 9366   0.020   0.061   4.894  2.1067 -1.0059  3.0642
   14MOL   H501 9367   0.060   0.116   5.140  1.0920 -1.0029 -2.1694
   14MOL   H502 9368   8.152   0.480   5.087  1.9784  1.1151 -1.2280
   14MOL   H503 9369   8.134   0.434   4.837 -2.5700 -1.9989 -0.5493
   14MOL   H504 9370   8.078   0.253   4.483  0.0201 -0.3719 -0.7345
   14MOL   H505 9371   8.150   0.391   4.277  1.0253 -0.7016 -1.0275
   14MOL   H506 9372   8.206   0.600   4.071  0.1007  0.4242 -0.2985
   14MOL   H507 9373   8.108   0.830   4.036  0.4571  0.8714 -0.6236
   14MOL   H508 9374   0.030   0.968   4.366  2.1255 -0.2125  0.2415
   14MOL   H509 9375   0.116   0.744   4.415  0.0182 -0.3787 -0.4766
   14MOL   H510 9376   0.198   0.506   4.489  0.3124 -0.9886  0.7853
   14MOL   H511 9377   0.118   0.369   4.684 -1.2089  1.1088  0.7421
   14MOL   C512 9378   8.201   1.288   3.911  0.2188 -0.0813 -0.5512
   14MOL   C513 9379   8.155   1.207   4.018 -0.4923  0.2649  0.0062
   14MOL   C514 9380   8.230   1.100   4.065  0.0496  0.5227  0.0346
   14MOL   O515 9381   8.186   1.039   4.180  0.3113 -0.5168  0.0277
   14MOL   C516 9382   0.046   1.085   4.012 -0.1786 -0.2326 -0.5028
   14MOL   C517 9383   0.102   1.170   3.916  0.5302 -0.2787 -0.5787
   14MOL   C518 9384   0.022   1.273   3.862 -0.1531 -0.0439  0.0726
   14MOL   C519 9385   0.075   1.353   3.751  0.3614  0.3583  0.2139
   14MOL   O520 9386   0.185   1.411   3.758  0.1077  0.3933  0.4647
   14MOL   C521 9387   8.311   1.354   3.620 -0.4562 -0.0206  0.0750
   14MOL   C522 9388   0.048   1.431   3.512  0.1672  0.0820  0.4088
   14MOL   C523 9389   8.289   1.426   3.389  0.3116  0.0975 -0.0486
   14MOL   C524 9390   8.181   1.337   3.365 -0.4192 -0.2183 -0.2817
   14MOL   O525 9391   8.123   1.313   3.243  0.0146  0.1711 -0.6515
   14MOL   C526 9392   8.012   1.394   3.204 -0.3651 -0.5429  0.0966
   14MOL   C527 9393   8.028   1.530   3.211  0.2779 -0.3225 -0.0160
   14MOL   C528 9394   7.939   1.623   3.155 -0.1386 -0.2371 -0.1824
   14MOL   C529 9395   7.817   1.579   3.102 -1.0880  0.3575  0.5984
   14MOL   C530 9396   7.795   1.434   3.107 -0.2404  0.2852  0.6550
   14MOL   C531 9397   7.891   1.344   3.167 -0.2578 -0.4367 -0.8899
   14MOL   C532 9398   8.146   1.253   3.472 -0.8447  0.3430 -1.5348
   14MOL   C533 9399   8.204   1.266   3.602 -0.9136 -0.2996 -0.5419
   14MOL   H534 9400   8.136   1.352   3.854 -2.5561 -0.6934  1.8467
   14MOL   H535 9401   8.059   1.225   4.063 -1.6084  0.0507 -2.2188
   14MOL   H536 9402   0.118   1.021   4.061 -0.9233  0.5929  1.7638
   14MOL   H537 9403   0.202   1.154   3.876  0.5059 -0.5404 -0.5352
   14MOL   H538 9404   0.129   1.502   3.517 -1.2622  1.8571 -0.9694
   14MOL   H539 9405   0.003   1.475   3.297 -0.4020 -0.1572 -0.3920
   14MOL   H540 9406   8.124   1.563   3.249  0.1761 -0.6992  0.5697
   14MOL   H541 9407   7.952   1.730   3.146 -0.0173  0.0260  2.6022
   14MOL   H542 9408   7.700   1.398   3.069  0.9037 -0.0911 -1.8857
   14MOL   H543 9409   7.860   1.242   3.149  1.0374 -0.5814 -2.4466
   14MOL   H544 9410   8.069   1.178   3.463 -2.1793  1.1743  1.9887
   14MOL   H545 9411   8.180   1.196   3.680 -0.8842  0.4268  0.1277
   14MOL   C546 9412   7.430   1.561   2.850  0.1420  0.2054  0.0994
   14MOL   C547 9413   7.559   1.569   2.902  0.7202 -0.0737  0.3842
   14MOL   C548 9414   7.592   1.626   3.027 -0.3396  0.0218  0.8780
   14MOL   O549 9415   7.725   1.661   3.038  0.0491  0.2793  0.0672
   14MOL   C550 9416   7.488   1.664   3.112  0.1613 -0.5465  1.0660
   14MOL   C551 9417   7.356   1.652   3.068  0.5389  0.8165 -0.5046
   14MOL   C552 9418   7.324   1.595   2.938  0.7028 -0.5831 -0.2165
   14MOL   C553 9419   7.191   1.589   2.881  0.0256 -0.3350 -1.4285
   14MOL   O554 9420   7.119   1.689   2.882 -0.3524 -0.2999 -0.3167
   14MOL   C555 9421   7.150   1.459   2.816 -0.8706  1.1975  0.1893
   14MOL   C556 9422   7.188   1.336   2.873 -0.4308  0.2711  0.4295
   14MOL   C557 9423   7.137   1.213   2.821 -0.2293 -0.3810  0.3947
   14MOL   C558 9424   7.056   1.215   2.709  0.5615  0.2952  0.9475
   14MOL   O559 9425   7.019   1.099   2.638 -0.2996 -0.5538 -0.5369
   14MOL   C560 9426   6.891   1.055   2.649 -0.6178 -0.1560  0.3770
   14MOL   C561 9427   6.866   0.970   2.758  0.1632 -0.0050  0.2650
   14MOL   C562 9428   6.731   0.935   2.786 -1.2548 -0.2996 -0.3131
   14MOL   C563 9429   6.623   0.982   2.707  0.1878 -0.2754  1.1711
   14MOL   C564 9430   6.659   1.067   2.604 -0.0150  0.3328  0.3110
   14MOL   C565 9431   6.787   1.105   2.567  0.1483 -0.0737 -1.1536
   14MOL   C566 9432   7.018   1.337   2.650  0.2478 -0.5852  0.1358
   14MOL   C567 9433   7.072   1.457   2.696 -0.5401  0.3068  0.8086
   14MOL   H568 9434   7.411   1.545   2.745 -0.1907  0.8782  0.0532
   14MOL   H569 9435   7.639   1.550   2.833  0.5068 -0.4647  0.2466
   14MOL   H570 9436   7.516   1.699   3.210  0.5832 -0.0625  0.7745
   14MOL   H571 9437   7.282   1.678   3.142  2.4015  2.0228  0.9960
   14MOL   H572 9438   7.250   1.329   2.961  1.1577 -2.2887 -0.8330
   14MOL   H573 9439   7.165   1.118   2.865 -0.2799 -1.9155 -2.7225
   14MOL   H574 9440   6.940   0.939   2.830  0.4141 -0.1980 -0.0763
   14MOL   H575 9441   6.713   0.870   2.870 -0.0505  0.7391  0.7701
   14MOL   H576 9442   6.581   1.082   2.531  1.4139 -0.0685 -1.3191
   14MOL   H577 9443   6.808   1.166   2.480 -1.0532  0.6829 -0.9114
   14MOL   H578 9444   6.970   1.326   2.554 -0.5166  0.1119  0.4266
   14MOL   H579 9445   7.039   1.547   2.645 -0.7014  0.8816  1.9208
   14MOL   C580 9446   6.314   0.996   3.012 -0.0519  0.1154  0.2697
   14MOL   C581 9447   6.367   1.011   2.881 -0.3284  0.0752 -0.0555
   14MOL   C582 9448   6.436   0.904   2.828  0.5461  0.2023 -0.7249
   14MOL   O583 9449   6.498   0.917   2.708  0.2564 -0.2882 -0.0933
   14MOL   C584 9450   6.449   0.782   2.904  0.3846 -0.5484 -0.1831
   14MOL   C585 9451   6.401   0.775   3.033 -0.0039 -0.4245  0.6484
   14MOL   C586 9452   6.336   0.883   3.089 -0.0620  0.6626 -0.0098
   14MOL   C587 9453   6.286   0.888   3.236 -0.4847 -0.6370  0.0326
   14MOL   O588 9454   6.285   0.993   3.301 -0.3343 -0.2755  0.1207
   14MOL   C589 9455   6.240   0.760   3.311  0.2874 -0.1769  0.4461
   14MOL   C590 9456   6.260   0.753   3.453  0.1053 -0.4461  0.6145
   14MOL   C591 9457   6.205   0.655   3.531  0.2458  0.7087 -0.2158
   14MOL   C592 9458   6.127   0.555   3.470  0.6239 -0.8702  0.1913
   14MOL   O593 9459   6.062   0.460   3.544 -0.5143  0.1615 -0.1151
   14MOL   C594 9460   6.136   0.355   3.587  0.5463  0.3749  0.1951
   14MOL   C595 9461   6.168   0.236   3.510  0.1053 -0.2239 -0.9180
   14MOL   C596 9462   6.211   0.121   3.576 -0.0786  0.5708  0.2352
   14MOL   C597 9463   6.238   0.123   3.713 -0.6732 -0.6822 -0.5178
   14MOL   C598 9464   6.212   0.241   3.784 -0.4402 -0.8255 -0.2864
   14MOL   C599 9465   6.159   0.357   3.726 -0.2060  0.5445 -0.6247
   14MOL   C600 9466   6.118   0.551   3.325  0.0718 -0.8668  0.1575
   14MOL   C601 9467   6.183   0.647   3.244 -0.0911  0.1900  0.2884
   14MOL   H602 9468   6.271   1.082   3.062  0.8995  0.0430  1.2217
   14MOL   H603 9469   6.356   1.107   2.832  1.2553  0.1097 -0.3780
   14MOL   H604 9470   6.501   0.696   2.863 -0.3240 -0.7461 -0.6767
   14MOL   H605 9471   6.415   0.690   3.099  2.5559  0.4527  1.2511
   14MOL   H606 9472   6.301   0.838   3.507 -0.0955 -0.5100  0.8695
   14MOL   H607 9473   6.205   0.669   3.638  3.9210  0.7096 -0.1219
   14MOL   H608 9474   6.150   0.227   3.404  0.4386  0.3128 -1.0193
   14MOL   H609 9475   6.224   0.025   3.529 -0.1117  1.2040 -1.0943
   14MOL   H610 9476   6.221   0.242   3.892  0.1330 -1.0522 -0.3273
   14MOL   H611 9477   6.117   0.435   3.788  0.5146 -0.7458  1.5349
   14MOL   H612 9478   6.065   0.469   3.278 -0.0667 -0.4769 -0.3754
   14MOL   H613 9479   6.170   0.632   3.138  2.7548  0.4238 -0.1406
   14MOL   C614 9480   6.616   0.036   3.896  0.1905  0.1356 -0.4094
   14MOL   C615 9481   6.478   0.054   3.885  0.1098 -0.7791  0.6646
   14MOL   C616 9482   6.403   8.292   3.787 -0.0837 -0.9558 -0.2070
   14MOL   O617 9483   6.266   0.002   3.772  0.3542  0.1379  0.1490
   14MOL   C618 9484   6.469   8.193   3.717 -0.6486 -0.3982 -0.1238
   14MOL   C619 9485   6.609   8.163   3.744 -0.6919 -0.9530  0.3803
   14MOL   C620 9486   6.678   8.251   3.824 -0.5728  0.4942 -0.9517
   14MOL   C621 9487   6.828   8.234   3.848 -0.7129  0.4599 -0.2360
   14MOL   O622 9488   6.886   8.127   3.822 -0.2019 -0.2954  0.3528
   14MOL   C623 9489   6.906   0.035   3.900 -0.1111 -0.4021  0.0267
   14MOL   C624 9490   6.898   0.162   3.835 -0.2147 -0.0313  0.0989
   14MOL   C625 9491   6.980   0.266   3.889  0.9827 -0.3267 -0.0957
   14MOL   C626 9492   7.061   0.236   3.998  0.1340 -0.4419  0.0012
   14MOL   O627 9493   7.123   0.339   4.068  0.3201 -0.4577  0.4149
   14MOL   C628 9494   7.037   0.426   4.130  0.2384  0.0110 -0.6043
   14MOL   C629 9495   7.008   0.548   4.067 -0.5289  0.5635  0.1593
   14MOL   C630 9496   6.911   0.637   4.112  0.3939 -0.5990  0.6726
   14MOL   C631 9497   6.852   0.608   4.234  0.1054  0.3250 -1.0453
   14MOL   C632 9498   6.878   0.487   4.305  0.3539  0.2864 -0.8723
   14MOL   C633 9499   6.966   0.392   4.246  0.1583  0.2099 -0.1032
   14MOL   C634 9500   7.073   0.107   4.056 -0.2208  0.0129 -0.4696
   14MOL   C635 9501   6.998   0.006   4.006  0.3860  0.0766 -0.0859
   14MOL   H636 9502   6.670   0.100   3.964  1.0939 -0.0762 -0.9341
   14MOL   H637 9503   6.431   0.129   3.946  3.7427  2.2196  0.0063
   14MOL   H638 9504   6.412   8.135   3.645 -0.5899  1.0742 -1.3961
   14MOL   H639 9505   6.660   8.078   3.702 -0.0931 -0.2801 -0.2667
   14MOL   H640 9506   6.831   0.192   3.756 -0.5333  0.0954  0.4103
   14MOL   H641 9507   6.977   0.367   3.851  0.2699  0.6237  2.4269
   14MOL   H642 9508   7.066   0.555   3.976 -0.1080 -0.0116  0.3897
   14MOL   H643 9509   6.884   0.726   4.057 -0.3789 -1.1510  0.1575
   14MOL   H644 9510   6.834   0.463   4.400 -0.2298  1.2181 -0.9057
   14MOL   H645 9511   6.989   0.292   4.280  0.4161 -0.2171 -1.4977
   14MOL   H646 9512   7.147   0.082   4.130 -1.3017  1.4944  1.1724
   14MOL   H647 9513   7.012   8.217   4.038 -1.0130  0.2218  1.0474
   14MOL   C648 9514   6.470   0.798   4.084  0.1228  0.5109  0.2960
   14MOL   C649 9515   6.603   0.790   4.137  0.4238  1.2108 -0.8227
   14MOL   C650 9516   6.643   0.688   4.226 -0.0355  0.2947 -0.2270
   14MOL   O651 9517   6.766   0.694   4.288  0.5716 -0.1901  0.2294
   14MOL   C652 9518   6.549   0.589   4.254  0.1111  0.1221 -0.5939
   14MOL   C653 9519   6.420   0.593   4.198  0.4099  0.1367 -0.2484
   14MOL   C654 9520   6.383   0.691   4.101  0.7067  0.1902 -0.4298
   14MOL   C655 9521   6.251   0.703   4.028  0.3128 -0.4696  0.0716
   14MOL   O656 9522   6.232   0.754   3.913 -0.1543 -0.1316 -0.4038
   14MOL   C657 9523   6.129   0.651   4.105 -0.6473 -0.4806 -0.3117
   14MOL   C658 9524   6.115   0.513   4.114 -0.3198  0.8278  0.1633
   14MOL   C659 9525   6.000   0.460   4.182 -0.3882 -0.4952  0.5811
   14MOL   C660 9526   5.896   0.544   4.231 -0.1136 -0.1569 -0.5621
   14MOL   O661 9527   5.771   0.498   4.267 -0.2273  0.3141 -0.3643
   14MOL   C662 9528   5.664   0.568   4.220 -0.2302  0.1682  0.0303
   14MOL   C663 9529   5.573   0.631   4.306  0.5049 -0.1570  0.4422
   14MOL   C664 9530   5.464   0.707   4.261 -0.3174 -0.5604  0.7932
   14MOL   C665 9531   5.436   0.698   4.122  0.2386  0.1416  0.1406
   14MOL   C666 9532   5.521   0.630   4.032  0.2880  0.2935 -0.6185
   14MOL   C667 9533   5.638   0.568   4.082  0.7814  0.0374  0.1170
   14MOL   C668 9534   5.923   0.685   4.233 -0.2751 -0.7279  0.2740
   14MOL   C669 9535   6.035   0.740   4.166 -0.4290 -0.4826 -0.5948
   14MOL   H670 9536   6.439   0.886   4.030 -1.2866  0.0534  0.3454
   14MOL   H671 9537   6.667   0.877   4.126  1.1692  0.4694 -2.4637
   14MOL   H672 9538   6.583   0.514   4.324 -0.6837 -1.0985 -1.4960
   14MOL   H673 9539   6.351   0.519   4.237 -0.0773  0.7040 -0.0133
   14MOL   H674 9540   6.179   0.446   4.058 -0.8305  1.5354 -1.2957
   14MOL   H675 9541   5.979   0.355   4.170  1.0158 -0.8576  1.2682
   14MOL   H676 9542   5.596   0.638   4.411  1.1775 -0.8789  0.3527
   14MOL   H677 9543   5.397   0.746   4.336 -0.5656 -0.0973  0.3334
   14MOL   H678 9544   5.496   0.625   3.928 -1.7989  2.1873 -0.2499
   14MOL   H679 9545   5.704   0.520   4.011  1.4666 -0.0588  0.8076
   14MOL   H680 9546   5.854   0.757   4.274  0.2900 -0.1365  0.1976
   14MOL   H681 9547   6.054   0.846   4.163  0.3760 -0.6177 -0.2555
   14MOL   H682 9548   5.343   0.738   4.083 -0.0311 -0.8272 -0.2174
   15MOL     C1 9549   4.484   0.784   0.688  0.5915  0.3653  0.0676
   15MOL     C2 9550   4.518   0.855   0.804 -0.1128  0.4473 -0.2612
   15MOL     C3 9551   4.421   0.923   0.881 -0.4311  0.7295  0.6408
   15MOL     O4 9552   4.454   0.993   0.995 -0.2022  0.1381  0.3007
   15MOL     C5 9553   4.287   0.928   0.835 -0.1185  0.1333  0.0354
   15MOL     C6 9554   4.253   0.853   0.715  0.1536  0.5353 -0.4207
   15MOL     C7 9555   4.351   0.781   0.645 -0.0542 -0.0038 -0.0501
   15MOL     C8 9556   4.316   0.706   0.524  0.0809  0.7755 -0.0693
   15MOL     O9 9557   4.378   0.603   0.492 -0.0497 -0.0065  0.2287
   15MOL    C10 9558   4.196   0.756   0.450 -0.2031  0.1813  0.2557
   15MOL    C11 9559   4.207   0.891   0.407  0.2868  0.3757 -0.6918
   15MOL    C12 9560   4.114   0.947   0.318 -0.4603 -0.1210 -0.6784
   15MOL    C13 9561   4.004   0.874   0.276 -0.1962  0.2873  0.4220
   15MOL    O14 9562   3.910   0.928   0.194  0.2664  0.0053  0.3838
   15MOL    C15 9563   3.894   0.889   0.063  0.4126  0.1566  0.6292
   15MOL    C16 9564   3.990   0.910   8.276 -0.4144  0.7045  0.3343
   15MOL    C17 9565   3.959   0.866   8.144  0.8140 -0.6142 -0.2393
   15MOL    C18 9566   3.842   0.791   8.121  0.8061  0.0489  0.0274
   15MOL    C19 9567   3.750   0.766   8.225  0.0681 -0.6949 -0.4673
   15MOL    C20 9568   3.774   0.826   0.039 -0.9954 -0.6013  0.5187
   15MOL    C21 9569   3.992   0.735   0.324  0.6036 -0.7063  0.4032
   15MOL    C22 9570   4.088   0.677   0.408 -0.0828  0.0874  0.3224
   15MOL    H23 9571   4.565   0.738   0.635  0.2376  0.8125 -0.8664
   15MOL    H24 9572   4.622   0.872   0.826 -0.0475  0.2958 -0.4552
   15MOL    H25 9573   4.213   0.986   0.890 -0.7090 -0.7536  0.1912
   15MOL    H26 9574   4.153   0.857   0.674 -0.5618  0.1452  1.2494
   15MOL    H27 9575   4.292   0.951   0.437  1.3132 -2.8216  3.3243
   15MOL    H28 9576   4.132   1.051   0.296  1.2933 -0.4336 -0.7579
   15MOL    H29 9577   4.089   0.947   8.295  0.1813 -1.5932  1.7937
   15MOL    H30 9578   4.024   0.884   8.060  0.1227  1.4611 -0.3594
   15MOL    H31 9579   3.656   0.719   8.201  0.2942 -1.5144  0.2156
   15MOL    H32 9580   3.705   0.816   0.122 -1.1858 -1.4133  0.2724
   15MOL    H33 9581   3.904   0.684   0.289  0.4600 -1.2859  1.5945
   15MOL    H34 9582   4.078   0.571   0.426 -0.2027 -0.1289 -0.9914
   15MOL    H35 9583   4.391   1.055   1.028 -0.2601  0.3631 -0.2267
   15MOL    C36 9584   3.906   0.387   8.025 -0.2845 -0.0583  0.3649
   15MOL    C37 9585   3.880   0.519   8.057 -0.1814  0.9752 -0.1471
   15MOL    C38 9586   3.828   0.615   7.967 -1.0066  0.2677  0.2793
   15MOL    O39 9587   3.820   0.749   7.993 -0.0901 -0.3563 -0.3530
   15MOL    C40 9588   3.782   0.569   7.847  0.0248  0.9298 -0.0236
   15MOL    C41 9589   3.798   0.429   7.809 -0.5292  0.7600 -0.4148
   15MOL    C42 9590   3.856   0.335   7.899 -0.3172 -0.3683  0.5535
   15MOL    C43 9591   3.866   0.189   7.861  0.2701 -0.3639  0.0685
   15MOL    O44 9592   3.933   0.149   7.765  0.0311 -0.4941 -0.2909
   15MOL    C45 9593   3.794   0.095   7.944  0.3564  0.0796  0.2726
   15MOL    C46 9594   3.810   8.272   7.913 -0.4154  0.2797  0.6871
   15MOL    C47 9595   3.732   8.166   7.979  0.1969 -0.1790  0.4624
   15MOL    C48 9596   3.645   8.197   8.083  0.8784 -0.3322  0.0915
   15MOL    O49 9597   3.575   8.093   8.141 -0.5873  0.0120 -0.1135
   15MOL    C50 9598   3.633   8.027   8.247 -0.6626 -0.0452 -0.2944
   15MOL    C51 9599   3.736   8.081   0.020  0.3583 -0.4324  0.7427
   15MOL    C52 9600   3.786   8.017   0.132  0.0323 -0.6696 -0.7153
   15MOL    C53 9601   3.740   7.888   0.170  0.0761 -0.3821  0.8107
   15MOL    C54 9602   3.641   7.828   0.090  0.5354 -0.4561  0.4509
   15MOL    C55 9603   3.587   7.898   8.292  0.2399 -0.5858 -0.2980
   15MOL    C56 9604   3.632   0.021   8.117 -0.5464  0.8501 -0.8880
   15MOL    C57 9605   3.702   0.123   8.051 -0.1408 -0.1185  0.0557
   15MOL    H58 9606   3.957   0.317   8.089 -1.0137 -1.9335 -1.0484
   15MOL    H59 9607   3.906   0.543   8.158  3.2930 -0.2835 -0.6839
   15MOL    H60 9608   3.733   0.630   7.772 -0.0251 -1.8375 -2.2947
   15MOL    H61 9609   3.760   0.398   7.712  0.7338  0.8416 -0.9486
   15MOL    H62 9610   3.871   8.236   7.832 -0.0572 -2.8095  2.2334
   15MOL    H63 9611   3.741   8.062   7.951 -0.4734  0.1213 -0.9686
   15MOL    H64 9612   3.776   8.177   8.305  1.6782 -0.8094  1.2970
   15MOL    H65 9613   3.856   8.070   0.195 -2.4380 -0.1202  1.6709
   15MOL    H66 9614   3.595   7.736   0.123  1.2895  0.5199  4.4981
   15MOL    H67 9615   3.500   7.857   8.243 -1.1075  1.6362  0.1516
   15MOL    H68 9616   3.569   0.049   8.200  0.4722 -0.6194  0.4038
   15MOL    H69 9617   3.691   0.224   8.089 -2.6156  0.1083 -1.1741
   15MOL    C70 9618   3.923   7.907   0.601 -0.6077  0.3862 -0.1061
   15MOL    C71 9619   3.911   7.857   0.467 -0.1703 -1.2724  0.1302
   15MOL    C72 9620   3.789   7.872   0.397  0.0540 -0.4786 -0.7772
   15MOL    O73 9621   3.786   7.813   0.276 -0.1408  0.2335 -0.2274
   15MOL    C74 9622   3.672   7.922   0.467 -0.1179  0.0872 -0.0597
   15MOL    C75 9623   3.690   7.968   0.597  0.0489  0.3042  0.2516
   15MOL    C76 9624   3.816   7.965   0.660  0.6118 -0.3341 -0.1561
   15MOL    C77 9625   3.832   8.029   0.797  0.8175 -0.6580  0.4257
   15MOL    O78 9626   3.936   8.093   0.820  0.2449 -0.0111  0.7639
   15MOL    C79 9627   3.723   8.010   0.902 -0.0156 -0.1939 -0.0726
   15MOL    C80 9628   3.634   7.903   0.897 -0.6685  0.4576  0.4367
   15MOL    C81 9629   3.525   7.899   0.987  0.3183  0.5240 -0.0092
   15MOL    C82 9630   3.507   7.999   1.085 -0.2972  0.4457  0.0496
   15MOL    O83 9631   3.392   7.996   1.166 -0.4218  0.5994  0.4222
   15MOL    C84 9632   3.370   7.886   1.243 -0.4246  0.0380  0.6735
   15MOL    C85 9633   3.272   7.798   1.207 -0.7330 -0.9387  0.5597
   15MOL    C86 9634   3.245   7.677   1.273  0.0847  0.0903  0.6523
   15MOL    C87 9635   3.313   7.652   1.390  0.2955  0.1793 -0.7278
   15MOL    C88 9636   3.408   7.745   1.435  0.4530  0.5458 -0.8269
   15MOL    C89 9637   3.445   7.859   1.358  0.1095 -0.0675 -0.0155
   15MOL    C90 9638   3.594   8.107   1.086 -0.1480 -0.1831 -0.1899
   15MOL    C91 9639   3.706   8.115   1.000 -0.1745  0.1918  0.2729
   15MOL    H92 9640   4.013   7.891   0.659 -0.4075  2.4868  0.2258
   15MOL    H93 9641   4.002   7.817   0.425  0.5879  0.3150  0.2104
   15MOL    H94 9642   3.583   7.933   0.407  0.0744  0.8691 -0.2123
   15MOL    H95 9643   3.612   8.020   0.650  1.7803  1.0589  2.1586
   15MOL    H96 9644   3.642   7.825   0.823  1.5518 -0.2232  1.3355
   15MOL    H97 9645   3.455   7.817   0.983  0.3237  0.5398 -0.4034
   15MOL    H98 9646   3.225   7.818   1.112 -1.9820  1.3140  1.6004
   15MOL    H99 9647   3.168   7.608   1.243  0.9987 -0.4012 -0.6187
   15MOL   H100 9648   3.456   7.711   1.525  0.1209  0.6204 -0.6185
   15MOL   H101 9649   3.524   7.926   1.391 -0.5807  1.4132 -1.2978
   15MOL   H102 9650   3.566   8.188   1.152  0.7691  1.1015 -1.3374
   15MOL   H103 9651   3.769   8.203   0.996 -1.6743  1.2897  0.5827
   15MOL   C104 9652   2.915   7.503   1.530 -0.4496 -0.4172  0.4306
   15MOL   C105 9653   3.039   7.572   1.502 -0.2333 -1.2644  0.1674
   15MOL   C106 9654   3.160   7.495   1.500 -0.6336  0.3868  0.5263
   15MOL   O107 9655   3.287   7.540   1.469 -0.4762  0.1869  0.4238
   15MOL   C108 9656   3.155   7.360   1.542  0.2633  0.2476 -0.8021
   15MOL   C109 9657   3.031   7.291   1.565 -0.3366  0.1557 -0.0216
   15MOL   C110 9658   2.911   7.363   1.566 -1.0181  0.4579 -1.0172
   15MOL   C111 9659   2.783   7.297   1.607  0.2659 -0.2588 -0.1796
   15MOL   O112 9660   2.681   7.319   1.539  0.4368  0.2836  0.2203
   15MOL   C113 9661   2.785   7.224   1.735  0.9674  1.0458 -0.4582
   15MOL   C114 9662   2.702   7.111   1.754  0.3195  0.2376 -0.5779
   15MOL   C115 9663   2.709   7.038   1.876  0.3641 -0.3672 -0.3964
   15MOL   C116 9664   2.797   7.078   1.976 -1.0283 -0.1955 -0.5201
   15MOL   O117 9665   2.807   7.003   2.093  0.0622 -0.1049  0.4068
   15MOL   C118 9666   2.876   6.889   2.095 -0.2799  0.1299  0.7692
   15MOL   C119 9667   3.013   6.880   2.063 -0.2063  0.5990  0.8375
   15MOL   C120 9668   3.071   6.748   2.062 -0.4209 -0.1883 -0.4667
   15MOL   C121 9669   3.007   6.632   2.113  0.3377 -0.1544  0.3192
   15MOL   C122 9670   2.872   6.648   2.155 -0.0559  0.5443 -0.2586
   15MOL   C123 9671   2.811   6.771   2.153 -0.2895  0.3295  0.0628
   15MOL   C124 9672   2.871   7.196   1.964 -0.5444  0.0444 -0.2207
   15MOL   C125 9673   2.866   7.265   1.846  0.4122  0.3092  0.3976
   15MOL   H126 9674   2.828   7.565   1.548  1.4685  2.6423 -0.4801
   15MOL   H127 9675   3.029   7.677   1.478 -2.1712 -1.0784  1.6882
   15MOL   H128 9676   3.247   7.303   1.541 -0.4328 -0.8987 -0.0487
   15MOL   H129 9677   3.034   7.191   1.606  0.7212  1.0260  2.1005
   15MOL   H130 9678   2.631   7.080   1.679 -0.1782  2.5060 -1.0984
   15MOL   H131 9679   2.655   6.946   1.891 -0.9183  0.3306 -0.6543
   15MOL   H132 9680   3.075   6.962   2.030 -1.2364  0.8314 -0.5903
   15MOL   H133 9681   3.176   6.731   2.046 -0.3680 -1.7491  1.3171
   15MOL   H134 9682   2.828   6.564   2.207  0.4846  1.0987  1.1389
   15MOL   H135 9683   2.713   6.776   2.197 -0.7976  0.5146 -1.0580
   15MOL   H136 9684   2.931   7.219   2.051 -0.8629  0.1313 -0.0237
   15MOL   H137 9685   2.917   7.360   1.833  1.0175 -0.1738 -0.7592
   15MOL   C138 9686   3.244   6.392   1.813  0.4204  0.0800  0.6067
   15MOL   C139 9687   3.226   6.456   1.936  0.2998 -0.2064 -0.0505
   15MOL   C140 9688   3.093   6.457   1.990  0.5230 -0.5180 -0.2091
   15MOL   O141 9689   3.070   6.511   2.113  0.1693 -0.3622 -0.2348
   15MOL   C142 9690   2.982   6.408   1.916  0.2976 -0.2654  0.2367
   15MOL   C143 9691   3.010   6.350   1.794  0.5513 -0.5605 -0.4674
   15MOL   C144 9692   3.136   6.331   1.744 -0.0694 -0.2244 -0.0529
   15MOL   C145 9693   3.164   6.249   1.609  0.2508 -0.3939 -0.6490
   15MOL   O146 9694   3.080   6.258   1.515  0.4292  0.0311 -0.6173
   15MOL   C147 9695   3.277   6.142   1.610  0.0345 -0.4805 -0.1839
   15MOL   C148 9696   3.309   6.078   1.487  0.0614 -0.1843  0.2102
   15MOL   C149 9697   3.402   5.977   1.477 -0.3663 -0.3022  0.2997
   15MOL   C150 9698   3.468   5.931   1.592 -0.3650 -0.1665 -0.0554
   15MOL   O151 9699   3.548   5.824   1.596 -0.0995 -0.8483 -0.5033
   15MOL   C152 9700   3.488   5.711   1.639 -0.3481  0.1321 -0.2930
   15MOL   C153 9701   3.414   5.638   1.547  0.0867  0.0284  0.2287
   15MOL   C154 9702   3.335   5.530   1.592  0.1109  0.3277  0.0394
   15MOL   C155 9703   3.321   5.494   1.728 -0.5151 -0.2034 -0.3789
   15MOL   C156 9704   3.404   5.561   1.820 -0.5379  0.3849  0.2647
   15MOL   C157 9705   3.477   5.677   1.772  0.0761 -0.1636 -0.1651
   15MOL   C158 9706   3.448   6.003   1.715  0.2933 -0.2223  0.3983
   15MOL   C159 9707   3.357   6.112   1.722  0.0370 -0.3495  0.5722
   15MOL   H160 9708   3.348   6.379   1.784  0.0603 -1.7068  0.0694
   15MOL   H161 9709   3.310   6.493   1.993  0.9460  0.4280 -1.3891
   15MOL   H162 9710   2.881   6.419   1.950 -0.1407 -1.2257 -0.7175
   15MOL   H163 9711   2.930   6.316   1.730  0.2311 -0.4366 -0.1283
   15MOL   H164 9712   3.255   6.112   1.400  2.5900  1.6342 -0.7264
   15MOL   H165 9713   3.417   5.925   1.384  0.5067 -0.2625  0.4118
   15MOL   H166 9714   3.416   5.656   1.440  1.2686 -2.1423 -0.1338
   15MOL   H167 9715   3.278   5.479   1.516 -1.2350  1.0562  0.5493
   15MOL   H168 9716   3.414   5.559   1.927  0.4758  1.8438  0.2192
   15MOL   H169 9717   3.531   5.737   1.843  0.8648  0.2892 -1.1367
   15MOL   H170 9718   3.514   5.987   1.800  2.1449  0.6051 -0.8551
   15MOL   H171 9719   3.341   6.163   1.816  0.1723 -0.8618  0.8800
   15MOL   C172 9720   2.894   5.467   1.853 -0.2168  0.3057  0.4345
   15MOL   C173 9721   3.005   5.438   1.770 -0.0002  0.3783  0.3375
   15MOL   C174 9722   3.132   5.405   1.834 -0.0928  0.0464 -0.6523
   15MOL   O175 9723   3.244   5.385   1.763 -0.7078 -0.4559  0.0250
   15MOL   C176 9724   3.144   5.381   1.974 -0.1859 -0.1825  0.5855
   15MOL   C177 9725   3.022   5.403   2.047 -0.5393  0.5820 -0.5527
   15MOL   C178 9726   2.896   5.438   1.991 -0.1634  0.2741 -0.3129
   15MOL   C179 9727   2.780   5.455   2.081 -0.4545 -0.0114  0.5560
   15MOL   O180 9728   2.771   5.386   2.180 -0.4637  0.6286 -0.4258
   15MOL   C181 9729   2.679   5.560   2.051 -0.4227 -0.4946 -0.2415
   15MOL   C182 9730   2.544   5.535   2.092 -0.7610  0.0410  1.1093
   15MOL   C183 9731   2.436   5.620   2.053  0.5882  0.2648  0.6160
   15MOL   C184 9732   2.467   5.743   1.988  0.0343  0.1878 -0.6218
   15MOL   O185 9733   2.367   5.824   1.951  0.4626  0.2276  0.5008
   15MOL   C186 9734   2.309   5.910   2.042 -0.7339 -0.1965  0.2881
   15MOL   C187 9735   2.382   6.004   2.112 -0.0206 -0.4306 -0.7134
   15MOL   C188 9736   2.322   6.099   2.193  0.8126 -0.6879  0.1449
   15MOL   C189 9737   2.181   6.086   2.221  0.5861  0.6607 -0.6780
   15MOL   C190 9738   2.098   5.989   2.158  0.3474 -1.3076  0.2489
   15MOL   C191 9739   2.166   5.900   2.068  0.2518  0.1518  0.6815
   15MOL   C192 9740   2.606   5.771   1.958  0.5988 -0.1973  0.1541
   15MOL   C193 9741   2.711   5.682   1.993 -0.6980  0.0398  0.0396
   15MOL   H194 9742   2.806   5.506   1.804  1.0421  2.7674  0.0172
   15MOL   H195 9743   3.012   5.457   1.664  1.2683 -0.1613  0.3122
   15MOL   H196 9744   3.238   5.357   2.023 -0.2925 -1.3423  0.2407
   15MOL   H197 9745   3.026   5.390   2.155  0.2970  0.4891 -0.5899
   15MOL   H198 9746   2.515   5.447   2.147  1.3899 -1.0469  0.5441
   15MOL   H199 9747   2.334   5.595   2.078  1.0025 -1.9376  0.2568
   15MOL   H200 9748   2.488   6.001   2.089  0.0504 -1.0854 -0.3420
   15MOL   H201 9749   2.384   6.170   2.247 -0.6177 -0.1741  1.1521
   15MOL   H202 9750   1.991   5.983   2.176  0.2354 -3.2504 -0.9792
   15MOL   H203 9751   2.103   5.822   2.028 -0.0997  0.5522  0.4417
   15MOL   H204 9752   2.627   5.866   1.912  0.6930  0.2145  1.0286
   15MOL   H205 9753   2.813   5.703   1.962 -1.1240  2.3860  0.1303
   15MOL   C206 9754   2.243   6.490   2.199 -0.0087 -0.6501  0.0365
   15MOL   C207 9755   2.166   6.372   2.204 -0.7800  0.1754 -0.2128
   15MOL   C208 9756   2.171   6.291   2.321  0.4652  0.3361  0.7223
   15MOL   O209 9757   2.113   6.169   2.311  0.6286  0.2874 -0.2209
   15MOL   C210 9758   2.243   6.326   2.433 -0.5561 -0.1099  0.7644
   15MOL   C211 9759   2.315   6.448   2.424 -0.0916 -0.5518  0.4221
   15MOL   C212 9760   2.321   6.529   2.307  0.3984  0.5926 -0.4165
   15MOL   C213 9761   2.380   6.666   2.313 -0.1897  0.0577  0.1201
   15MOL   O214 9762   2.343   6.744   2.225 -0.3094  0.4555  0.7617
   15MOL   C215 9763   2.477   6.713   2.416  0.0714  0.2361  0.2619
   15MOL   C216 9764   2.446   6.838   2.475  0.5175  0.5629 -0.0635
   15MOL   C217 9765   2.524   6.878   2.584  0.3019 -0.5517  0.7807
   15MOL   C218 9766   2.633   6.805   2.633 -0.1288 -0.5177 -0.3085
   15MOL   O219 9767   2.718   6.857   2.731  0.4805 -0.0625  0.0265
   15MOL   C220 9768   2.709   6.810   2.857  0.3773  0.0098  0.3524
   15MOL   C221 9769   2.826   6.795   2.935 -0.2459  0.2785 -0.0662
   15MOL   C222 9770   2.819   6.735   3.067  0.0241 -0.0210  0.3583
   15MOL   C223 9771   2.696   6.683   3.118  0.3235  0.2147  0.3618
   15MOL   C224 9772   2.583   6.690   3.035  0.1112  0.2820 -0.4619
   15MOL   C225 9773   2.593   6.751   2.907  0.1945  0.5818 -0.8394
   15MOL   C226 9774   2.667   6.684   2.568  0.9388  0.4848  0.5029
   15MOL   C227 9775   2.583   6.633   2.465 -0.4810  0.5044 -0.6639
   15MOL   H228 9776   2.240   6.555   2.114 -0.0597 -0.7924 -0.0704
   15MOL   H229 9777   2.108   6.341   2.119 -0.8355  2.4113 -1.0312
   15MOL   H230 9778   2.226   6.269   2.523  0.1574 -1.2656  0.1825
   15MOL   H231 9779   2.359   6.472   2.520  2.4847 -0.5972 -0.6913
   15MOL   H232 9780   2.366   6.899   2.437  1.2708  1.2101 -0.6329
   15MOL   H233 9781   2.492   6.969   2.634 -0.3418 -0.4047  0.1029
   15MOL   H234 9782   2.926   6.817   2.901 -0.7623  3.1408  0.1682
   15MOL   H235 9783   2.912   6.723   3.121 -0.0064  1.6059  0.7947
   15MOL   H236 9784   2.489   6.639   3.049 -0.7656  0.6340 -4.4441
   15MOL   H237 9785   2.511   6.750   2.837  0.6080  1.1348 -1.3362
   15MOL   H238 9786   2.754   6.633   2.606  0.5330 -1.4496 -1.0783
   15MOL   H239 9787   2.612   6.542   2.413 -0.5251  0.9712 -1.5044
   15MOL   C240 9788   2.662   6.697   3.593  0.3067 -0.0734 -0.4961
   15MOL   C241 9789   2.694   6.628   3.474 -0.2137  0.5124  0.8318
   15MOL   C242 9790   2.648   6.674   3.345 -0.0913  0.3232 -0.1181
   15MOL   O243 9791   2.694   6.615   3.233  0.3478 -0.3984  0.4978
   15MOL   C244 9792   2.559   6.780   3.342  0.2498 -0.4226  0.1271
   15MOL   C245 9793   2.505   6.827   3.463  0.1061 -0.4439  0.0928
   15MOL   C246 9794   2.559   6.791   3.590 -0.4099  0.6476 -0.5345
   15MOL   C247 9795   2.508   6.835   3.718 -0.0546 -0.3314  0.5303
   15MOL   O248 9796   2.494   6.756   3.808  0.0198  0.2247 -0.2123
   15MOL   C249 9797   2.450   6.974   3.723  0.1519 -0.5609 -0.3252
   15MOL   C250 9798   2.513   7.077   3.649  0.1603 -0.2321  0.2232
   15MOL   C251 9799   2.454   7.204   3.642  0.1447  0.4329  1.0853
   15MOL   C252 9800   2.344   7.233   3.716 -0.7447 -0.7362  0.0987
   15MOL   O253 9801   2.279   7.350   3.700 -0.1436 -0.6603 -0.1922
   15MOL   C254 9802   2.325   7.465   3.760  0.3365  0.1285 -0.1044
   15MOL   C255 9803   2.296   7.479   3.900 -0.9632 -0.2855 -0.0705
   15MOL   C256 9804   2.349   7.587   3.968  0.0505  0.6701  0.3837
   15MOL   C257 9805   2.408   7.691   3.895  0.4099 -0.0743  0.4595
   15MOL   C258 9806   2.423   7.679   3.753  0.6766 -0.0361 -0.9514
   15MOL   C259 9807   2.375   7.571   3.681  0.6834  0.0846  1.0830
   15MOL   C260 9808   2.282   7.134   3.801 -0.6315 -0.1644 -0.3703
   15MOL   C261 9809   2.334   7.000   3.801 -0.0483  0.0721 -0.1982
   15MOL   H262 9810   2.705   6.650   3.680  1.9368  1.9885 -0.1606
   15MOL   H263 9811   2.761   6.543   3.476 -0.5028  0.2369 -0.4566
   15MOL   H264 9812   2.533   6.813   3.242  0.4436  0.0577  0.2359
   15MOL   H265 9813   2.434   6.908   3.465  0.2428 -0.3512  2.3449
   15MOL   H266 9814   2.593   7.052   3.580 -0.6876 -2.5092  0.0089
   15MOL   H267 9815   2.497   7.279   3.576  0.4944  0.7152  1.6321
   15MOL   H268 9816   2.244   7.406   3.960 -3.4297  1.9987  0.6836
   15MOL   H269 9817   2.350   7.594   4.076  0.8725  1.3004  0.3376
   15MOL   H270 9818   2.478   7.755   3.698  0.3871 -0.8520 -2.3948
   15MOL   H271 9819   2.383   7.570   3.573  1.3337  1.7294  1.0982
   15MOL   H272 9820   2.192   7.163   3.853  0.7048  0.7708  1.4520
   15MOL   H273 9821   2.282   6.926   3.860 -0.5744  0.7827  0.2353
   15MOL   C274 9822   2.802   7.946   4.004  0.3137 -0.0440  1.0429
   15MOL   C275 9823   2.663   7.934   3.977 -0.5648 -0.2964  0.2169
   15MOL   C276 9824   2.608   7.807   3.949  0.0330  0.6903  0.1645
   15MOL   O277 9825   2.471   7.796   3.955  0.2695  0.1100  0.8286
   15MOL   C278 9826   2.694   7.695   3.933 -0.1538  0.2993 -0.6960
   15MOL   C279 9827   2.834   7.706   3.942  0.0107  0.3182 -0.0577
   15MOL   C280 9828   2.890   7.834   3.977  0.3853  0.2171 -0.4156
   15MOL   C281 9829   3.041   7.855   4.008 -0.1984  0.4277  0.6207
   15MOL   O282 9830   3.085   7.967   4.036  0.3792  0.6047  0.0960
   15MOL   C283 9831   3.134   7.744   3.974 -0.0856  0.5310 -0.0061
   15MOL   C284 9832   3.158   7.631   4.054 -1.0184 -0.2879 -0.2657
   15MOL   C285 9833   3.263   7.539   4.030  0.4544  0.2193 -0.3254
   15MOL   C286 9834   3.336   7.545   3.912  0.0902  0.0983 -0.2623
   15MOL   O287 9835   3.440   7.462   3.896  0.2545  0.1556  0.2162
   15MOL   C288 9836   3.434   7.394   3.777 -0.3279  0.6020  0.3802
   15MOL   C289 9837   3.526   7.403   3.670  0.0476 -0.0963  0.7325
   15MOL   C290 9838   3.518   7.327   3.547  0.0086  0.3408  0.7660
   15MOL   C291 9839   3.417   7.227   3.540 -0.0603  0.0530 -0.2819
   15MOL   C292 9840   3.332   7.209   3.654  0.1615 -0.4763  0.1118
   15MOL   C293 9841   3.336   7.295   3.768  0.0936 -0.1358 -1.0255
   15MOL   C294 9842   3.315   7.656   3.831 -0.2949 -0.1284  0.5544
   15MOL   C295 9843   3.216   7.756   3.857  0.0054  0.2813  0.3927
   15MOL   H296 9844   2.849   8.043   4.014 -3.3498  1.5697  3.5115
   15MOL   H297 9845   2.599   8.020   3.979 -0.9746 -0.5895 -0.3248
   15MOL   H298 9846   2.651   7.597   3.920 -0.5386  0.4783 -0.7939
   15MOL   H299 9847   2.901   7.623   3.924  1.2199  1.0392  1.0236
   15MOL   H300 9848   3.093   7.619   4.140 -1.1578 -1.5207 -0.5336
   15MOL   H301 9849   3.286   7.458   4.098  2.3935  1.7975  0.9621
   15MOL   H302 9850   3.610   7.470   3.680  0.1354 -0.2837  1.2679
   15MOL   H303 9851   3.593   7.339   3.471  0.9896  1.4763  1.9029
   15MOL   H304 9852   3.264   7.125   3.645 -0.4763  0.1123 -0.5297
   15MOL   H305 9853   3.270   7.280   3.852  1.2398  2.1105  0.3301
   15MOL   H306 9854   3.380   7.665   3.746  1.6606  1.5386  2.1747
   15MOL   H307 9855   3.208   7.850   3.805 -1.8587 -0.1924 -0.2302
   15MOL   C308 9856   3.386   7.267   3.081  0.3840  0.3448  0.4879
   15MOL   C309 9857   3.347   7.234   3.215 -0.4502  0.1167 -0.4529
   15MOL   C310 9858   3.431   7.185   3.309  0.2998  0.6911 -0.1512
   15MOL   O311 9859   3.389   7.147   3.435 -0.5230 -0.1780  0.1947
   15MOL   C312 9860   3.569   7.182   3.267  0.0026  0.0253  0.3793
   15MOL   C313 9861   3.612   7.221   3.137 -0.0661  0.6734 -1.1428
   15MOL   C314 9862   3.524   7.269   3.045  0.2605 -0.3826  0.1592
   15MOL   C315 9863   3.561   7.287   2.902  0.4026  0.1924  0.3655
   15MOL   O316 9864   3.494   7.238   2.809 -0.2828  0.1741 -0.2825
   15MOL   C317 9865   3.677   7.378   2.881 -0.0947 -0.3532  0.7771
   15MOL   C318 9866   3.731   7.462   2.986 -0.1389  0.4422 -0.1936
   15MOL   C319 9867   3.826   7.559   2.954 -0.1128 -0.1247  0.4779
   15MOL   C320 9868   3.880   7.577   2.831 -0.2676 -0.6242  0.3079
   15MOL   O321 9869   3.978   7.667   2.804 -0.6048 -0.1267  0.0529
   15MOL   C322 9870   4.004   7.694   2.669  0.3143  0.0474  0.4089
   15MOL   C323 9871   4.109   7.635   2.594  0.4932 -0.6189 -0.1875
   15MOL   C324 9872   4.145   7.671   2.460  0.3096 -0.5117 -0.0851
   15MOL   C325 9873   4.069   7.771   2.396  0.0906 -0.1980  0.9825
   15MOL   C326 9874   3.967   7.838   2.471 -0.3400 -0.5752 -0.2555
   15MOL   C327 9875   3.927   7.791   2.604  0.0992 -0.1700 -0.1950
   15MOL   C328 9876   3.841   7.481   2.727 -0.5061  0.2325  0.1830
   15MOL   C329 9877   3.738   7.389   2.752  0.3594  0.0273  0.5419
   15MOL   H330 9878   3.311   7.294   3.009  1.7866  2.8936 -0.0938
   15MOL   H331 9879   3.247   7.252   3.252  0.1304 -1.0091  1.7426
   15MOL   H332 9880   3.645   7.147   3.335  3.7276  2.1883 -2.4633
   15MOL   H333 9881   3.717   7.210   3.113 -0.2564  0.2898 -1.8037
   15MOL   H334 9882   3.695   7.455   3.087 -1.5457 -0.5262 -0.7391
   15MOL   H335 9883   3.860   7.624   3.033  3.7590  0.9016 -1.8702
   15MOL   H336 9884   4.157   7.552   2.645  1.7475  0.0490 -0.2600
   15MOL   H337 9885   4.228   7.621   2.412 -0.8965  0.0675 -2.9172
   15MOL   H338 9886   3.912   7.911   2.414 -0.0959 -0.9546 -0.9744
   15MOL   H339 9887   3.854   7.844   2.663  2.1179  2.4952 -0.0074
   15MOL   H340 9888   3.874   7.493   2.625  1.2633  0.9088  0.8153
   15MOL   H341 9889   3.701   7.344   2.661  0.2044  1.0801  0.0682
   15MOL   C342 9890   4.139   7.575   1.989 -0.0749  0.0926 -0.4644
   15MOL   C343 9891   4.162   7.663   2.102  0.5740  1.0847  0.0037
   15MOL   C344 9892   4.064   7.734   2.173  0.6873 -0.0845  0.5237
   15MOL   O345 9893   4.100   7.819   2.273 -0.5080 -0.0841 -0.5756
   15MOL   C346 9894   3.931   7.720   2.124  0.0517 -0.4083  0.5162
   15MOL   C347 9895   3.904   7.642   2.011  0.0055  0.6148  0.5080
   15MOL   C348 9896   4.003   7.564   1.943 -0.3503 -0.0547 -0.3175
   15MOL   C349 9897   3.955   7.479   1.829 -0.6481 -0.0435 -0.9529
   15MOL   O350 9898   3.958   7.354   1.842  0.5682 -0.7865  0.0866
   15MOL   C351 9899   3.894   7.551   1.711 -0.4221 -0.3779  0.5753
   15MOL   C352 9900   3.887   7.693   1.700 -0.0078  0.3020 -0.0801
   15MOL   C353 9901   3.821   7.754   1.588  0.3055  0.6846 -0.8561
   15MOL   C354 9902   3.776   7.680   1.477  0.2536  0.4287  0.8787
   15MOL   O355 9903   3.720   7.746   1.372  0.5476 -0.1423  0.4521
   15MOL   C356 9904   3.781   7.735   1.251  0.0856  0.4205 -0.1863
   15MOL   C357 9905   3.871   7.827   1.201  0.0505 -0.1171 -0.8368
   15MOL   C358 9906   3.945   7.808   1.081  0.2824  1.1469 -0.0943
   15MOL   C359 9907   3.911   7.698   1.001  0.2686  0.4087  0.7891
   15MOL   C360 9908   3.809   7.611   1.042  0.8110 -0.5882  0.1293
   15MOL   C361 9909   3.751   7.625   1.170  0.7128 -0.3167  0.3714
   15MOL   C362 9910   3.786   7.538   1.493 -0.0469 -0.3668 -0.0548
   15MOL   C363 9911   3.839   7.476   1.605 -0.0943  0.1065  0.0359
   15MOL   H364 9912   4.220   7.525   1.938 -0.0725 -0.1391 -0.2381
   15MOL   H365 9913   4.267   7.673   2.124  0.7502  1.0286 -0.7892
   15MOL   H366 9914   3.845   7.767   2.169 -3.3126 -3.0175 -2.9382
   15MOL   H367 9915   3.800   7.631   1.983  1.0299 -2.7023 -2.4012
   15MOL   H368 9916   3.935   7.763   1.766 -0.4318 -0.2206  0.7840
   15MOL   H369 9917   3.810   7.860   1.576  2.2197  1.0534  0.4440
   15MOL   H370 9918   3.880   7.915   1.262  2.4526 -1.3085  0.6458
   15MOL   H371 9919   4.007   7.886   1.040 -0.7810  2.1502  0.1656
   15MOL   H372 9920   3.782   7.520   0.990 -1.1981 -0.2497  0.5253
   15MOL   H373 9921   3.685   7.554   1.218  0.9230 -0.1962  0.8423
   15MOL   H374 9922   3.767   7.472   1.410  1.8025  0.8604 -1.5157
   15MOL   H375 9923   3.829   7.370   1.618  2.4967 -0.2547 -0.7161
   15MOL   C376 9924   4.130   7.464   0.633 -0.6507 -0.2707  0.3798
   15MOL   C377 9925   4.048   7.569   0.688  0.1948 -0.1227 -0.9601
   15MOL   C378 9926   4.020   7.572   0.826  0.8187  0.1276 -0.0693
   15MOL   O379 9927   3.954   7.681   0.873 -0.9255 -0.3467 -0.4730
   15MOL   C380 9928   4.081   7.476   0.910 -0.2041 -0.3146  0.6484
   15MOL   C381 9929   4.149   7.367   0.859 -0.4882  0.4472  0.0925
   15MOL   C382 9930   4.178   7.367   0.721 -0.0328 -0.5458 -0.5766
   15MOL   C383 9931   4.254   7.246   0.672  0.3443  0.2429 -0.3272
   15MOL   O384 9932   4.245   7.135   0.732  0.0366  0.3958 -0.0881
   15MOL   C385 9933   4.349   7.277   0.560  0.2372  0.3991  0.1472
   15MOL   C386 9934   4.366   7.181   0.458 -0.1533 -0.7720 -0.0760
   15MOL   C387 9935   4.448   7.209   0.352 -0.3551 -0.8365 -0.1700
   15MOL   C388 9936   4.493   7.340   0.332  0.0689  0.1039  0.0916
   15MOL   O389 9937   4.560   7.367   0.221  0.1233 -0.7773 -0.0933
   15MOL   C390 9938   4.498   7.370   0.103 -0.2209 -0.2843 -0.0076
   15MOL   C391 9939   4.571   7.339   8.300  0.4837 -0.0661 -0.2456
   15MOL   C392 9940   4.512   7.341   8.172  0.2120  0.0542 -0.0721
   15MOL   C393 9941   4.376   7.379   8.160 -0.6408  0.8268  0.4972
   15MOL   C394 9942   4.311   7.422   8.277 -0.0232 -0.2563  0.0998
   15MOL   C395 9943   4.370   7.422   0.086  0.2325 -0.1327  0.8122
   15MOL   C396 9944   4.491   7.434   0.436  0.3614  0.5286  0.0263
   15MOL   C397 9945   4.415   7.399   0.549  0.0340 -0.0250 -0.2107
   15MOL   H398 9946   4.150   7.443   0.529 -1.0159  2.8650 -0.3790
   15MOL   H399 9947   4.012   7.647   0.622  0.5582 -1.0703 -2.2979
   15MOL   H400 9948   4.064   7.489   1.016  1.9631  2.8195  0.6646
   15MOL   H401 9949   4.185   7.299   0.934  0.0233  0.1773 -0.3938
   15MOL   H402 9950   4.315   7.086   0.465 -0.9041 -0.3676  0.0456
   15MOL   H403 9951   4.462   7.137   0.272  3.6900  0.7823 -1.0641
   15MOL   H404 9952   4.673   7.306   0.003  1.0562  2.2465  1.0028
   15MOL   H405 9953   4.569   7.294   8.093  0.4587  1.1149 -0.5366
   15MOL   H406 9954   4.210   7.460   8.270 -0.2606 -0.7886  0.6439
   15MOL   H407 9955   4.322   7.472   0.168  0.1772 -0.1080  0.7647
   15MOL   H408 9956   4.528   7.536   0.433  2.0349 -0.0722 -0.0466
   15MOL   H409 9957   4.403   7.473   0.627 -0.1726  1.9563 -2.0751
   15MOL   C410 9958   4.397   7.234   7.712  0.0206 -0.5588 -0.6678
   15MOL   C411 9959   4.337   7.242   7.841 -0.6284  0.4275 -0.1509
   15MOL   C412 9960   4.357   7.353   7.921  0.1673  0.1705  0.1812
   15MOL   O413 9961   4.300   7.363   8.045  0.8741 -0.0243 -0.4270
   15MOL   C414 9962   4.421   7.462   7.871  0.5711  0.1731 -0.6789
   15MOL   C415 9963   4.485   7.460   7.744  1.3695  0.2573 -0.5051
   15MOL   C416 9964   4.473   7.341   7.663 -0.5441  0.2812 -0.0802
   15MOL   C417 9965   4.543   7.334   7.529  0.0138 -0.1966  0.1038
   15MOL   O418 9966   4.652   7.393   7.507  0.2580 -0.1005 -0.2872
   15MOL   C419 9967   4.482   7.264   7.410 -0.2718 -0.7226 -0.4688
   15MOL   C420 9968   4.343   7.285   7.384 -0.4200 -0.2569  0.0851
   15MOL   C421 9969   4.284   7.245   7.263 -0.3759  0.8248 -0.3568
   15MOL   C422 9970   4.360   7.169   7.170  0.0164  0.4560 -0.6848
   15MOL   O423 9971   4.298   7.093   7.072 -0.0838 -0.6112 -0.3327
   15MOL   C424 9972   4.237   7.160   6.968  0.3305  0.6649  0.5696
   15MOL   C425 9973   4.096   7.132   6.956  0.3010  0.2952  0.2480
   15MOL   C426 9974   4.038   7.190   6.841  1.0991  0.3607 -0.2365
   15MOL   C427 9975   4.107   7.273   6.748  0.1226 -0.5605 -0.8314
   15MOL   C428 9976   4.246   7.293   6.769  0.0166 -0.2320  0.1432
   15MOL   C429 9977   4.308   7.242   6.883 -0.9984 -1.0411 -0.0300
   15MOL   C430 9978   4.501   7.151   7.201  0.4697  0.1203 -0.9682
   15MOL   C431 9979   4.558   7.200   7.316 -0.6635 -0.8936 -0.3229
   15MOL   H432 9980   4.384   7.146   7.650  1.0475 -1.2570  0.0929
   15MOL   H433 9981   4.289   7.155   7.885  1.7809 -1.0788 -0.3773
   15MOL   H434 9982   4.431   7.546   7.938 -0.1701  0.2097 -0.6076
   15MOL   H435 9983   4.553   7.538   7.713  2.4295 -1.2691 -2.0881
   15MOL   H436 9984   4.276   7.339   7.450 -0.7738 -0.4493 -0.1165
   15MOL   H437 9985   4.178   7.264   7.256 -0.6378 -1.2229 -2.3656
   15MOL   H438 9986   4.041   7.062   7.018  1.6095  0.0421  1.1294
   15MOL   H439 9987   3.934   7.164   6.823  1.0649 -0.3563  0.9582
   15MOL   H440 9988   4.298   7.357   6.699 -0.0716 -0.1725  0.1306
   15MOL   H441 9989   4.414   7.263   6.889 -0.5300 -3.6598  1.4963
   15MOL   H442 9990   4.548   7.084   7.130 -3.3069 -3.8384  0.0148
   15MOL   H443 9991   4.663   7.182   7.337 -0.9440 -2.7866 -0.5019
   15MOL   C444 9992   3.947   7.662   6.583  0.0450  0.0935  1.0529
   15MOL   C445 9993   4.021   7.546   6.593 -0.3679 -0.1066 -0.4463
   15MOL   C446 9994   3.967   7.429   6.640  0.5449  0.7003 -0.3420
   15MOL   O447 9995   4.044   7.318   6.639 -0.3012  0.1890  0.2437
   15MOL   C448 9996   3.831   7.422   6.679  0.1327 -0.1784  0.1469
   15MOL   C449 9997   3.758   7.544   6.677  0.4151 -0.2089  0.8945
   15MOL   C450 9998   3.814   7.663   6.620  0.5132  0.0934 -0.6937
   15MOL   C451 9999   3.744   7.788   6.591  0.1191  0.3591 -0.0083
   15MOL   O45210000   3.751   7.838   6.483 -0.2891 -0.7939 -0.3173
   15MOL   C45310001   3.650   7.841   6.691 -0.9200  0.2477 -0.4990
   15MOL   C45410002   3.518   7.878   6.646  0.2610 -0.2027  0.2748
   15MOL   C45510003   3.426   7.948   6.726  0.2172 -0.2621  0.9418
   15MOL   C45610004   3.467   7.985   6.854  0.5558 -0.3512 -0.3372
   15MOL   O45710005   3.390   8.050   6.944 -0.2888  0.1443  0.4477
   15MOL   C45810006   3.278   8.120   6.897  0.1763  0.5419  0.3547
   15MOL   C45910007   3.143   8.076   6.914 -0.1233  0.3802 -0.3040
   15MOL   C46010008   3.036   8.153   6.877  0.2845 -0.6416 -0.1843
   15MOL   C46110009   3.058   8.283   6.825 -0.2250 -0.2144  0.2210
   15MOL   C46210010   3.189   0.014   6.806  0.0093 -0.9420 -0.3744
   15MOL   C46310011   3.301   8.244   6.835  0.8747 -0.4580 -0.3615
   15MOL   C46410012   3.598   7.950   6.896 -0.4903  0.8438 -0.7720
   15MOL   C46510013   3.693   7.887   6.816  0.3848 -0.4096  0.3961
   15MOL   H46610014   3.993   7.750   6.539 -2.3735  1.4849  1.2510
   15MOL   H46710015   4.124   7.543   6.557 -0.2032  1.8629 -0.1954
   15MOL   H46810016   3.777   7.331   6.696  1.1285 -1.1398 -1.6928
   15MOL   H46910017   3.652   7.541   6.699 -0.2861 -0.8019 -2.3442
   15MOL   H47010018   3.481   7.852   6.548 -0.9369 -0.0055  0.6722
   15MOL   H47110019   3.325   7.974   6.699  0.2136  1.0436  2.1326
   15MOL   H47210020   3.135   7.978   6.959  0.6777  0.2012 -0.5369
   15MOL   H47310021   2.935   8.120   6.893 -0.0229  0.2645 -0.2715
   15MOL   H47410022   3.202   0.095   6.736 -0.7338 -1.8604 -1.6124
   15MOL   H47510023   3.397   8.290   6.815  0.8070 -0.6646 -1.1899
   15MOL   H47610024   3.627   7.985   6.994  1.3658  1.5881 -1.5730
   15MOL   H47710025   3.789   7.863   6.860 -0.1430  0.2189  1.9511
   15MOL   C47810026   2.768   0.206   7.050 -0.0065  1.1404 -0.4462
   15MOL   C47910027   2.874   0.175   6.962 -0.7756  0.4753  0.3144
   15MOL   C48010028   2.851   0.085   6.857  0.0488 -0.0991  0.1127
   15MOL   O48110029   2.948   0.041   6.776  0.8288  0.5698 -0.0551
   15MOL   C48210030   2.725   0.024   6.836  0.3115  0.5689  0.2101
   15MOL   C48310031   2.621   0.052   6.925  0.5346 -0.2480 -0.9961
   15MOL   C48410032   2.639   0.138   7.037  0.1408 -0.4452  0.3593
   15MOL   C48510033   2.525   0.162   7.124  0.5654  0.0618 -0.2021
   15MOL   O48610034   2.443   0.071   7.149 -0.2604 -0.1127 -0.0833
   15MOL   C48710035   2.508   0.298   7.181  0.4848 -0.3292 -0.4704
   15MOL   C48810036   2.500   0.416   7.102 -0.0589 -0.2414 -0.1500
   15MOL   C48910037   2.465   0.540   7.167  0.2192  0.2362  0.3133
   15MOL   C49010038   2.446   0.545   7.307 -0.2854  0.3999  0.0259
   15MOL   O49110039   2.402   0.657   7.371 -0.1767 -0.0194 -0.4036
   15MOL   C49210040   2.488   0.770   7.376  0.3438  0.4867  0.2232
   15MOL   C49310041   2.452   0.893   7.323  0.4693  0.0459 -0.5455
   15MOL   C49410042   2.546   0.993   7.310  0.8574  0.1145  0.9216
   15MOL   C49510043   2.663   0.987   7.389  0.4510 -0.0017  0.1014
   15MOL   C49610044   2.691   0.867   7.463 -0.0453  0.4361  0.0327
   15MOL   C49710045   2.608   0.758   7.451 -0.6383 -1.0327  0.2544
   15MOL   C49810046   2.464   0.431   7.387  0.4308 -0.9616  0.1366
   15MOL   C49910047   2.498   0.311   7.327 -0.8274  0.3795  0.0974
   15MOL   H50010048   2.796   0.264   7.137 -0.6200  0.2616  0.3454
   15MOL   H50110049   2.971   0.219   6.974 -0.0975 -0.5529 -1.2810
   15MOL   H50210050   2.713   8.265   6.756 -0.2313  1.3004 -0.3837
   15MOL   H50310051   2.529   8.312   6.904  0.7209 -0.4440 -1.3350
   15MOL   H50410052   2.508   0.404   6.995  0.3295 -1.6440  0.0193
   15MOL   H50510053   2.433   0.628   7.113  1.3879  1.8345  2.1485
   15MOL   H50610054   2.358   0.911   7.274  0.5306  2.4856  0.1645
   15MOL   H50710055   2.533   1.076   7.242  0.5040  0.4470  1.3982
   15MOL   H50810056   2.787   0.853   7.510  0.6406  0.0212 -1.4494
   15MOL   H50910057   2.648   0.668   7.496  2.1909 -0.3451 -0.7427
   15MOL   H51010058   2.431   0.440   7.490  1.3389  0.3043  0.3204
   15MOL   H51110059   2.494   0.227   7.395 -0.6347 -0.2356 -0.6500
   15MOL   C51210060   2.944   1.252   7.121 -0.2581  0.8014  0.2076
   15MOL   C51310061   2.858   1.229   7.229 -0.6664  0.2618  1.1067
   15MOL   C51410062   2.837   1.104   7.279  0.2998  0.2471  0.0325
   15MOL   O51510063   2.750   1.092   7.389  0.3321 -0.1028  0.1909
   15MOL   C51610064   2.903   0.999   7.215  0.7141 -0.0802 -0.2376
   15MOL   C51710065   2.987   1.011   7.103  0.1625 -0.0258 -0.4294
   15MOL   C51810066   3.010   1.147   7.056  0.1003 -0.7509  0.4219
   15MOL   C51910067   3.081   1.171   6.935 -0.5710  0.0112  0.1974
   15MOL   O52010068   3.094   1.088   6.844 -0.4350  0.2790 -0.0503
   15MOL   C52110069   3.149   1.305   6.915 -0.4689 -0.1430 -0.1230
   15MOL   C52210070   3.242   1.357   7.010 -0.5590  0.0717  0.1773
   15MOL   C52310071   3.315   1.473   6.982 -0.2818 -0.9375 -0.5845
   15MOL   C52410072   3.315   1.530   6.854  0.2056  0.1642 -0.2684
   15MOL   O52510073   3.392   1.634   6.815  0.0061  0.3798 -0.5380
   15MOL   C52610074   3.522   1.607   6.785  0.2536  0.9327 -0.1423
   15MOL   C52710075   3.553   1.513   6.686  1.1559 -0.7850 -0.2419
   15MOL   C52810076   3.679   1.465   6.671  0.0419  0.1619 -0.1435
   15MOL   C52910077   3.781   1.528   6.744  0.6669  0.1346 -0.0629
   15MOL   C53010078   3.750   1.633   6.841 -0.4133 -0.0545 -0.0808
   15MOL   C53110079   3.621   1.670   6.862 -0.9628 -0.1312 -0.7420
   15MOL   C53210080   3.235   1.475   6.751 -0.4329 -0.1662  0.1584
   15MOL   C53310081   3.144   1.365   6.788  0.0717  0.1986  0.2616
   15MOL   H53410082   2.943   1.356   7.093 -2.3983  0.8056  0.2281
   15MOL   H53510083   2.817   1.315   7.280  3.0237  1.4328  2.2517
   15MOL   H53610084   2.882   0.901   7.256 -0.3830 -0.1282 -0.8878
   15MOL   H53710085   3.032   0.925   7.055  0.1761 -0.6196  0.6423
   15MOL   H53810086   3.255   1.306   7.104  0.3788  0.5574  0.3143
   15MOL   H53910087   3.377   1.521   7.056  1.6259 -0.7970 -2.2299
   15MOL   H54010088   3.479   1.465   6.625  0.9705 -1.5842  0.5986
   15MOL   H54110089   3.700   1.390   6.597 -0.2989  0.7589 -0.8527
   15MOL   H54210090   3.832   1.675   6.897  0.8325  0.5534 -2.3082
   15MOL   H54310091   3.595   1.747   6.933  0.0370 -0.3725 -0.1128
   15MOL   H54410092   3.242   1.517   6.652  0.6608 -3.3811 -1.2003
   15MOL   H54510093   3.092   1.309   6.711  1.4582 -1.1686  0.2839
   15MOL   C54610094   3.977   1.152   6.818  0.4877 -0.2090 -0.3452
   15MOL   C54710095   3.926   1.287   6.825  0.2509 -0.1654 -0.5610
   15MOL   C54810096   3.948   1.365   6.705 -0.0376 -0.3853  0.4491
   15MOL   O54910097   3.908   1.498   6.700 -0.2016 -0.3404  0.2169
   15MOL   C55010098   4.015   1.313   6.592  0.1666 -1.4033  0.4146
   15MOL   C55110099   4.061   1.182   6.597  0.3724  0.3145 -0.6574
   15MOL   C55210100   4.048   1.101   6.710 -0.1679  0.2462  0.2204
   15MOL   C55310101   4.096   0.957   6.697  0.5772  0.4223  0.2873
   15MOL   O55410102   4.091   0.897   6.590 -0.1115 -0.0909  0.1300
   15MOL   C55510103   4.135   0.895   6.833  0.9448  0.0895  0.4869
   15MOL   C55610104   4.105   0.760   6.859 -0.3511  0.3426 -0.2607
   15MOL   C55710105   4.164   0.697   6.971 -0.0828 -0.0629  0.7256
   15MOL   C55810106   4.251   0.757   7.057 -0.4453 -0.6078  0.3449
   15MOL   O55910107   4.294   0.682   7.162  0.0288 -0.3004  0.0063
   15MOL   C56010108   4.254   0.725   7.287  0.1047  0.0160 -0.2331
   15MOL   C56110109   4.319   0.825   7.348 -0.3449  0.2407 -0.8658
   15MOL   C56210110   4.278   0.871   7.475 -0.3858  0.4598  0.0663
   15MOL   C56310111   4.163   0.814   7.534  0.2261 -0.6458 -0.4761
   15MOL   C56410112   4.107   0.699   7.478 -0.2195  0.1609  0.0398
   15MOL   C56510113   4.156   0.650   7.354 -0.0706 -0.2419 -0.5266
   15MOL   C56610114   4.274   0.893   7.028  0.3720 -0.1451  0.4235
   15MOL   C56710115   4.214   0.965   6.921  0.3238  0.6235 -0.7127
   15MOL   H56810116   3.971   1.088   6.905  2.5315 -1.2589 -0.9378
   15MOL   H56910117   3.870   1.335   6.904  0.2303 -1.5405  0.2733
   15MOL   H57010118   4.033   1.360   6.497 -0.9175 -0.7246  0.5471
   15MOL   H57110119   4.116   1.141   6.514 -0.5942  1.1838 -1.7326
   15MOL   H57210120   4.050   0.691   6.797 -0.5828 -0.1947  0.5426
   15MOL   H57310121   4.145   0.593   6.995 -4.0963  0.1054 -1.3002
   15MOL   H57410122   4.404   0.860   7.291  0.5270 -0.1938  0.1622
   15MOL   H57510123   4.325   0.957   7.519  1.9977 -0.7079 -0.1176
   15MOL   H57610124   4.034   0.645   7.535  1.0981 -1.0263  0.6363
   15MOL   H57710125   4.118   0.558   7.313  1.7805 -2.2780  2.1260
   15MOL   H57810126   4.340   0.949   7.092  0.4050 -1.4822  1.5742
   15MOL   H57910127   4.239   1.068   6.902 -0.2050  0.2543 -3.5210
   15MOL   C58010128   4.223   0.648   7.937 -0.3546  0.0505  0.5224
   15MOL   C58110129   4.154   0.699   7.822 -0.3969  0.1835  0.0884
   15MOL   C58210130   4.173   0.828   7.774  0.6771  0.0228  0.1834
   15MOL   O58310131   4.110   0.861   7.652  0.1938  0.2821 -0.6698
   15MOL   C58410132   4.245   0.916   7.850 -0.1461 -0.2033  0.1588
   15MOL   C58510133   4.320   0.872   7.963  0.1361  0.2522 -0.0216
   15MOL   C58610134   4.308   0.740   8.002  0.6982 -0.1110 -0.1275
   15MOL   C58710135   4.390   0.687   8.104  0.3413 -0.0762  0.2428
   15MOL   O58810136   4.513   0.703   8.087  0.1976  0.2565  0.1040
   15MOL   C58910137   4.337   0.611   8.219  0.6310 -0.1272 -0.0805
   15MOL   C59010138   4.201   0.631   8.263 -0.1185  0.4515 -0.4664
   15MOL   C59110139   4.142   0.557   0.055  0.3995 -0.4383 -0.6965
   15MOL   C59210140   4.217   0.455   0.121 -0.6486  0.1151  0.1636
   15MOL   O59310141   4.155   0.370   0.214  0.2888  0.2658 -0.3261
   15MOL   C59410142   4.024   0.341   0.207 -0.0935  0.0796 -0.0675
   15MOL   C59510143   3.939   0.360   0.317 -0.0556  0.0044  0.9109
   15MOL   C59610144   3.795   0.333   0.307 -0.3664  0.0471  0.3574
   15MOL   C59710145   3.740   0.270   0.194 -0.3660  0.0003  0.1106
   15MOL   C59810146   3.827   0.250   0.082  0.3298  0.5304 -0.7808
   15MOL   C59910147   3.966   0.290   0.085 -1.0694  0.3763 -0.1135
   15MOL   C60010148   4.349   0.435   0.076 -0.2377 -0.1054 -0.6634
   15MOL   C60110149   4.413   0.525   8.298  0.1756  0.0599  0.2597
   15MOL   H60210150   4.206   0.547   7.972  0.5280 -0.8370 -1.5453
   15MOL   H60310151   4.089   0.627   7.775 -0.0657 -0.9116  1.2773
   15MOL   H60410152   4.267   1.016   7.817 -0.9957 -0.6568 -1.8865
   15MOL   H60510153   4.390   0.938   8.013 -0.9995  1.7901 -0.4230
   15MOL   H60610154   4.136   0.702   8.214  0.5985  0.1913 -1.8109
   15MOL   H60710155   4.035   0.565   0.067  0.7726  2.8769  1.0639
   15MOL   H60810156   3.971   0.393   0.415 -1.3625  5.1826 -0.2443
   15MOL   H60910157   3.729   0.340   0.392  0.9636 -1.7559  1.5671
   15MOL   H61010158   3.788   0.211   8.302 -1.9887 -3.9888  1.9463
   15MOL   H61110159   4.033   0.264   0.004  0.0317  2.0842  0.2192
   15MOL   H61210160   4.407   0.362   0.130 -0.0403  1.9920  2.0970
   15MOL   H61310161   4.520   0.524   8.285  0.3341  1.7736  1.2679
   15MOL   C61410162   3.362   0.085   0.414  0.0136 -0.4027 -0.0135
   15MOL   C61510163   3.418   0.153   0.305  0.0077  0.1570 -0.1471
   15MOL   C61610164   3.557   0.153   0.286 -0.2525  0.0265 -0.9335
   15MOL   O61710165   3.609   0.230   0.186 -0.4076  0.5798 -0.4401
   15MOL   C61810166   3.633   0.069   0.370 -0.3774 -0.2882  1.0754
   15MOL   C61910167   3.579   8.299   0.467 -0.5372  0.4199 -0.5390
   15MOL   C62010168   3.438   8.304   0.488  0.7523  0.4825  0.3877
   15MOL   C62110169   3.373   8.225   0.593 -0.1114 -0.1005 -0.2542
   15MOL   O62210170   3.363   8.099   0.589 -0.4096  0.1974  0.1231
   15MOL   C62310171   3.332   8.293   0.717 -0.3630 -0.3371 -0.2135
   15MOL   C62410172   3.401   0.097   0.758  0.1032 -0.6431  0.1292
   15MOL   C62510173   3.385   0.157   0.883 -0.0421  0.0543 -0.2110
   15MOL   C62610174   3.308   0.085   0.981  0.6866  0.4752  0.2658
   15MOL   O62710175   3.273   0.130   1.104 -0.2300 -0.4324  0.1300
   15MOL   C62810176   3.340   0.241   1.150 -0.2962  0.4112  0.3976
   15MOL   C62910177   3.262   0.353   1.197  0.5298 -0.4462 -0.2874
   15MOL   C63010178   3.324   0.462   1.263 -0.1745 -0.1176 -0.1175
   15MOL   C63110179   3.461   0.454   1.279 -0.8075  0.3595 -0.3383
   15MOL   C63210180   3.535   0.343   1.244 -0.3690  0.3007  0.1841
   15MOL   C63310181   3.477   0.236   1.176  0.3360  0.0372 -0.1765
   15MOL   C63410182   3.253   8.273   0.950  0.6760  0.0938  0.3924
   15MOL   C63510183   3.264   8.226   0.820  0.3891  0.5946 -0.2181
   15MOL   H63610184   3.256   0.090   0.433  0.3153  3.0536  1.0288
   15MOL   H63710185   3.352   0.212   0.243  0.7261  0.3878 -0.6902
   15MOL   H63810186   3.739   0.060   0.349 -0.4096 -3.7429  1.9675
   15MOL   H63910187   3.649   8.242   0.526 -0.4958  1.5838  0.5703
   15MOL   H64010188   3.446   0.154   0.678 -3.6968  0.0290 -1.6608
   15MOL   H64110189   3.423   0.257   0.897  0.2188 -0.0856  0.0963
   15MOL   H64210190   3.156   0.358   1.178  0.5478 -1.2865 -0.6229
   15MOL   H64310191   3.270   0.546   1.304  1.3913  1.4698 -1.1998
   15MOL   H64410192   3.639   0.344   1.271  0.2934 -1.8614 -2.0871
   15MOL   H64510193   3.521   0.142   1.148  0.5372 -0.1221  0.6731
   15MOL   H64610194   3.195   8.223   1.027 -1.3861 -1.9670 -2.4080
   15MOL   H64710195   3.228   8.130   0.786  0.0876  0.3771  0.7225
   15MOL   C64810196   3.865   0.669   1.330  0.5070 -0.5280  0.8841
   15MOL   C64910197   3.751   0.596   1.368 -0.0774  0.5191 -0.2032
   15MOL   C65010198   3.625   0.616   1.302 -0.3844  0.0032 -0.5951
   15MOL   O65110199   3.516   0.556   1.350  0.6697 -0.8438  0.2521
   15MOL   C65210200   3.618   0.711   1.199  0.0572 -0.9606  0.2398
   15MOL   C65310201   3.727   0.786   1.161  0.3274 -0.0626  0.0385
   15MOL   C65410202   3.849   0.761   1.224 -0.1866 -0.2216  0.6281
   15MOL   C65510203   3.963   0.839   1.182 -0.2344 -0.5146  0.0106
   15MOL   O65610204   4.004   0.837   1.063  0.4515  0.1588 -0.5556
   15MOL   C65710205   4.034   0.916   1.283  0.3723 -0.0630  0.0627
   15MOL   C65810206   4.170   0.946   1.269  0.1239  0.1769 -0.6438
   15MOL   C65910207   4.243   1.015   1.378  0.7007 -0.2754  0.4142
   15MOL   C66010208   4.178   1.037   1.503  0.1655  0.0719 -0.2415
   15MOL   O66110209   4.253   1.104   1.599  0.0855  0.1329  0.0227
   15MOL   C66210210   4.240   1.092   1.735 -0.4640 -0.7981  0.2540
   15MOL   C66310211   4.302   1.192   1.808 -0.0318  0.0159 -0.7935
   15MOL   C66410212   4.278   1.203   1.949 -0.8825  0.3348 -0.2327
   15MOL   C66510213   4.204   1.103   2.015  1.0229  0.1438 -0.4208
   15MOL   C66610214   4.154   0.993   1.943 -0.1083 -0.1242  0.0767
   15MOL   C66710215   4.173   0.985   1.800  0.3209  0.1580  0.1015
   15MOL   C66810216   4.039   1.006   1.512  0.2829 -0.2510  0.1042
   15MOL   C66910217   3.966   0.947   1.407 -0.8035  0.0865  0.7757
   15MOL   H67010218   3.959   0.660   1.383  0.5167 -1.4721  0.7253
   15MOL   H67110219   3.747   0.527   1.451 -0.5729 -1.4247 -1.8002
   15MOL   H67210220   3.522   0.739   1.157  1.5145  2.5819 -0.9366
   15MOL   H67310221   3.711   0.868   1.093 -1.3724 -1.1210 -0.8619
   15MOL   H67410222   4.212   0.913   1.175  1.0689  1.2882 -0.6200
   15MOL   H67510223   4.348   1.040   1.372  1.1701 -1.9004  1.4954
   15MOL   H67610224   4.352   1.268   1.748  1.4935  0.5496  1.1030
   15MOL   H67710225   4.328   1.283   2.002 -2.4101  0.1229  1.5676
   15MOL   H67810226   4.099   0.913   1.991  0.6997 -0.4391  0.4910
   15MOL   H67910227   4.135   0.895   1.756  0.8333 -0.0887  0.1601
   15MOL   H68010228   3.977   1.007   1.600  0.5475 -0.1825  0.2927
   15MOL   H68110229   3.859   0.935   1.421 -0.3142 -4.4423  1.4535
   15MOL   H68210230   4.191   1.117   2.121  1.9722 -1.1237 -0.1169
   16MOL     C110231   1.149   7.102   1.493 -0.4475  0.3882  0.7603
   16MOL     C210232   1.068   7.017   1.567  0.2700  0.5402 -0.6554
   16MOL     C310233   1.018   7.063   1.691  0.8365  0.1067  0.6726
   16MOL     O410234   0.947   6.970   1.757 -0.5080 -0.4830  0.4018
   16MOL     C510235   1.046   7.197   1.738 -0.3524  0.4443 -0.1018
   16MOL     C610236   1.120   7.289   1.652  0.3816 -0.2823 -0.3233
   16MOL     C710237   1.168   7.239   1.525 -0.0673 -0.4078 -0.4142
   16MOL     C810238   1.234   7.332   1.425 -0.0294  0.3549  0.0391
   16MOL     O910239   1.196   7.445   1.414  0.1937  0.3096  0.2487
   16MOL    C1010240   1.343   7.275   1.337  1.0267 -0.2319 -0.2923
   16MOL    C1110241   1.357   7.331   1.204  0.5920 -0.0656  0.4156
   16MOL    C1210242   1.453   7.280   1.115  0.2800 -0.0025 -0.0991
   16MOL    C1310243   1.527   7.168   1.155  0.0930  0.6238  0.2130
   16MOL    O1410244   1.629   7.114   1.082 -0.6795 -0.6739  0.1806
   16MOL    C1510245   1.713   7.195   1.010  0.3222  0.1065  0.1495
   16MOL    C1610246   1.829   7.256   1.063 -1.2035  0.4871 -0.2308
   16MOL    C1710247   1.907   7.339   0.986 -0.0800 -0.1947  0.5163
   16MOL    C1810248   1.885   7.354   0.848  0.4747  0.6604  0.7883
   16MOL    C1910249   1.773   7.287   0.789 -0.1419 -0.0230  0.4381
   16MOL    C2010250   1.684   7.212   0.872 -0.3725  0.0163  1.1364
   16MOL    C2110251   1.522   7.119   1.289  0.3925  0.1731  1.0537
   16MOL    C2210252   1.420   7.165   1.372  0.5644  0.0062  0.8088
   16MOL    H2310253   1.178   7.055   1.400 -0.3807  0.3354  0.8081
   16MOL    H2410254   1.039   6.917   1.540  0.7425 -0.1567  1.3476
   16MOL    H2510255   1.003   7.239   1.828 -1.7084  0.2826 -0.6726
   16MOL    H2610256   1.144   7.391   1.679  0.1458  0.6401 -3.3992
   16MOL    H2710257   1.299   7.419   1.183  0.8952  0.2254  0.7903
   16MOL    H2810258   1.463   7.331   1.020  2.7934  0.2277  0.2529
   16MOL    H2910259   1.836   7.252   1.171 -0.7156  1.1027 -0.2390
   16MOL    H3010260   1.997   7.385   1.022  0.7246 -0.2330 -1.3669
   16MOL    H3110261   1.747   7.282   0.684 -0.3276 -1.0313  0.5316
   16MOL    H3210262   1.599   7.163   0.826  0.3812 -0.6759  0.4589
   16MOL    H3310263   1.593   7.043   1.317  0.7811  0.5798  1.1649
   16MOL    H3410264   1.417   7.120   1.470 -0.5392  1.3181  1.4077
   16MOL    H3510265   0.903   7.003   1.834 -2.0448 -1.3518 -0.1075
   16MOL    C3610266   2.322   7.397   0.656 -0.5403  0.6604 -0.5400
   16MOL    C3710267   2.204   7.447   0.709 -0.2435 -0.8237 -0.2284
   16MOL    C3810268   2.093   7.367   0.732  0.5924  0.5831 -0.0454
   16MOL    O3910269   1.974   7.426   0.775 -0.2660 -0.4831  0.5096
   16MOL    C4010270   2.095   7.229   0.705  0.2171 -0.4839  0.5425
   16MOL    C4110271   2.212   7.175   0.642  0.7854  0.4527 -0.1953
   16MOL    C4210272   2.325   7.265   0.620 -0.9972  0.3280  0.0768
   16MOL    C4310273   2.445   7.198   0.559 -0.4193  0.2695 -0.6773
   16MOL    O4410274   2.491   7.099   0.616 -0.3843  0.3311 -0.0666
   16MOL    C4510275   2.491   7.238   0.426 -0.3933  0.4475  0.2508
   16MOL    C4610276   2.603   7.174   0.376  0.0992  0.0361 -0.2085
   16MOL    C4710277   2.649   7.207   0.246 -0.1932 -1.0635 -0.2859
   16MOL    C4810278   2.579   7.307   0.177  0.5485  0.0368  0.6042
   16MOL    O4910279   2.636   7.343   0.059  0.3179 -0.1983  0.4673
   16MOL    C5010280   2.550   7.339   8.262 -0.1262 -0.7065  0.1517
   16MOL    C5110281   2.486   7.459   8.217  0.0450  0.2835  0.1865
   16MOL    C5210282   2.393   7.450   8.118 -0.9141 -0.1938  0.7176
   16MOL    C5310283   2.357   7.324   8.057 -0.6284 -1.4457 -0.1396
   16MOL    C5410284   2.429   7.212   8.096 -1.1131  0.3980  0.2920
   16MOL    C5510285   2.524   7.220   8.201 -0.3075  0.2102  0.7019
   16MOL    C5610286   2.471   7.372   0.234 -0.0767  0.3007  0.7588
   16MOL    C5710287   2.424   7.338   0.361 -0.0913  0.4484 -0.1978
   16MOL    H5810288   2.411   7.458   0.646 -1.7788  3.1492  2.8764
   16MOL    H5910289   2.205   7.552   0.732  2.6445 -0.7323 -0.5958
   16MOL    H6010290   2.010   7.165   0.724 -0.6666  1.0889  2.0353
   16MOL    H6110291   2.222   7.071   0.614 -1.1306  0.2448 -0.1485
   16MOL    H6210292   2.657   7.098   0.432  0.2760  1.3333  1.4198
   16MOL    H6310293   2.736   7.166   0.197  1.8991 -0.8044  3.0589
   16MOL    H6410294   2.511   7.557   8.257  2.2682 -0.5802  1.0109
   16MOL    H6510295   2.355   7.543   8.079  1.4657  0.0378 -1.1476
   16MOL    H6610296   2.418   7.128   8.029  1.6339  0.7729 -0.6520
   16MOL    H6710297   2.584   7.134   8.224  0.9827  0.5893 -1.1869
   16MOL    H6810298   2.424   7.450   0.177 -1.6515 -0.6485  0.7171
   16MOL    H6910299   2.351   7.405   0.405  2.2247  0.7724  3.3250
   16MOL    C7010300   2.253   7.582   7.710 -0.4369 -0.0851 -0.1634
   16MOL    C7110301   2.298   7.467   7.786  0.1214 -0.2530 -0.5427
   16MOL    C7210302   2.231   7.422   7.899  0.2553  0.7340 -0.4101
   16MOL    O7310303   2.267   7.303   7.952 -0.9178 -0.5154  0.9862
   16MOL    C7410304   2.110   7.484   7.934  0.4722 -0.3720 -0.4426
   16MOL    C7510305   2.058   7.579   7.847 -0.1935  0.5306  0.0353
   16MOL    C7610306   2.128   7.632   7.736  0.2572 -0.0701  0.5580
   16MOL    C7710307   2.063   7.739   7.651 -0.2072  0.8014  0.8213
   16MOL    O7810308   2.103   7.857   7.641  0.2966  0.5346 -0.4821
   16MOL    C7910309   1.937   7.692   7.578  0.8166  0.0395  0.4932
   16MOL    C8010310   1.952   7.586   7.493  0.1704  0.1344 -0.9459
   16MOL    C8110311   1.840   7.524   7.442 -0.1114  0.2834  1.2360
   16MOL    C8210312   1.711   7.568   7.481 -0.2558  0.7528  0.5457
   16MOL    O8310313   1.601   7.492   7.442 -0.4958  0.6047 -0.2267
   16MOL    C8410314   1.585   7.468   7.304 -0.1845 -0.2141  0.3337
   16MOL    C8510315   1.561   7.334   7.272  0.3171 -0.0075  1.0076
   16MOL    C8610316   1.557   7.297   7.138 -0.5144  0.0512  0.3534
   16MOL    C8710317   1.567   7.400   7.039 -0.0542  0.3228 -0.3137
   16MOL    C8810318   1.585   7.534   7.072  0.3700 -0.9040 -0.1201
   16MOL    C8910319   1.596   7.566   7.206  0.1689 -0.3131  0.7160
   16MOL    C9010320   1.699   7.678   7.569 -0.7859  0.1903  0.2834
   16MOL    C9110321   1.811   7.739   7.619 -0.1326  0.7610  0.4266
   16MOL    H9210322   2.304   7.622   7.624 -1.5747  0.6618 -0.4937
   16MOL    H9310323   2.379   7.408   7.748 -0.8032 -1.1371 -1.1618
   16MOL    H9410324   2.057   7.447   8.021  0.0727 -1.3652 -1.0995
   16MOL    H9510325   1.963   7.625   7.871 -0.4062 -0.7869  1.8142
   16MOL    H9610326   2.053   7.559   7.464 -0.5670 -3.8534 -0.0453
   16MOL    H9710327   1.847   7.438   7.377 -1.1465  1.5583 -0.5784
   16MOL    H9810328   1.552   7.253   7.343  2.6155  0.2637  1.6430
   16MOL    H9910329   1.542   7.197   7.100 -2.2919  0.5044 -0.1815
   16MOL   H10010330   1.574   7.612   6.998 -2.7786 -0.9578  0.2174
   16MOL   H10110331   1.614   7.671   7.224  2.0111 -0.7951  1.7481
   16MOL   H10210332   1.598   7.701   7.600 -0.3528  0.8243  1.2686
   16MOL   H10310333   1.804   7.820   7.690 -1.1413  1.9001 -0.9178
   16MOL   C10410334   1.248   7.508   6.756  0.3990 -0.3969 -0.0346
   16MOL   C10510335   1.369   7.503   6.832  0.3493  0.3523 -0.0529
   16MOL   C10610336   1.427   7.378   6.851  0.5730 -0.6039 -0.5365
   16MOL   O10710337   1.550   7.358   6.908 -0.0889  0.1677  0.2386
   16MOL   C10810338   1.363   7.264   6.800 -0.7566  0.0881 -0.4814
   16MOL   C10910339   1.252   7.274   6.719  0.3669 -0.1838  0.5733
   16MOL   C11010340   1.181   7.394   6.707  0.3618  0.1770  0.1002
   16MOL   C11110341   1.056   7.414   6.624  0.2192 -0.0174  0.5038
   16MOL   O11210342   1.023   7.524   6.577  0.8079  0.2509  0.0017
   16MOL   C11310343   0.970   7.293   6.594  0.5147  0.2795 -0.4827
   16MOL   C11410344   0.927   7.206   6.697  0.2163 -0.4456  0.8921
   16MOL   C11510345   0.834   7.103   6.673  0.3382  0.0535 -0.3739
   16MOL   C11610346   0.791   7.084   6.541 -0.5242 -0.3180 -0.0598
   16MOL   O11710347   0.699   6.986   6.517  0.8657 -0.3281  0.2023
   16MOL   C11810348   0.579   7.028   6.470  0.4323 -0.2883  0.0475
   16MOL   C11910349   0.489   7.087   6.561 -0.5857  0.0880  0.4514
   16MOL   C12010350   0.364   7.131   6.516  0.0658  0.5964  0.2462
   16MOL   C12110351   0.330   7.116   6.380 -0.8291 -0.5389  0.1282
   16MOL   C12210352   0.429   7.069   6.289 -0.0611 -0.1887  0.0427
   16MOL   C12310353   0.550   7.025   6.335  0.0252  0.3466  0.2965
   16MOL   C12410354   0.832   7.172   6.437  0.6549  0.5172  0.4298
   16MOL   C12510355   0.912   7.280   6.466 -0.1986  0.2833  0.6019
   16MOL   H12610356   1.201   7.605   6.743 -0.7293 -0.7672  1.1309
   16MOL   H12710357   1.415   7.589   6.878 -0.0296 -0.8132  2.6606
   16MOL   H12810358   1.406   7.166   6.816 -0.0912  0.7201  1.7853
   16MOL   H12910359   1.214   7.180   6.681 -1.5748  0.2773  1.2954
   16MOL   H13010360   0.963   7.222   6.798 -1.6219  2.1005  1.1976
   16MOL   H13110361   0.815   7.041   6.759  0.2495  1.4257  0.5920
   16MOL   H13210362   0.512   7.098   6.666 -1.1833 -0.1591  0.6112
   16MOL   H13310363   0.297   7.169   6.592 -2.1117 -0.2791 -1.1926
   16MOL   H13410364   0.409   7.047   6.185  0.1385 -1.8909  0.3506
   16MOL   H13510365   0.628   6.979   6.276 -0.4023 -0.5087  0.3837
   16MOL   H13610366   0.794   7.182   6.337  1.9167  1.4592  0.0391
   16MOL   H13710367   0.932   7.347   6.383 -2.3008  1.8558  1.3021
   16MOL   C13810368   0.209   7.498   6.243  0.4305 -0.4554 -0.9381
   16MOL   C13910369   0.234   7.385   6.318 -0.3902  0.6626  0.4265
   16MOL   C14010370   0.181   7.260   6.270  0.7678 -0.2950 -0.0019
   16MOL   O14110371   0.198   7.142   6.338 -0.6492  0.2449 -0.0644
   16MOL   C14210372   0.130   7.254   6.138 -0.6433  0.0952  0.4198
   16MOL   C14310373   0.117   7.372   6.060 -0.2019 -0.1383  0.3503
   16MOL   C14410374   0.158   7.495   6.115  0.2547  0.0832  0.1825
   16MOL   C14510375   0.136   7.622   6.045  0.6672 -0.4278 -0.3137
   16MOL   O14610376   0.041   7.633   5.967  0.0463  0.5257  0.1903
   16MOL   C14710377   0.240   7.732   6.043  0.1415  0.0948  0.3707
   16MOL   C14810378   0.199   7.862   6.027  0.2839  0.1087 -0.1316
   16MOL   C14910379   0.294   7.967   6.037 -0.2209 -0.0755 -0.5279
   16MOL   C15010380   0.429   7.933   6.064  0.1426  0.4371  0.3966
   16MOL   O15110381   0.522   8.036   6.075 -0.1669  0.2908  0.1282
   16MOL   C15210382   0.561   8.073   6.197 -0.0514  0.5506 -0.1841
   16MOL   C15310383   0.506   8.192   6.255 -0.1188  0.6056  0.3996
   16MOL   C15410384   0.537   8.230   6.383  0.1796  0.1632  0.0995
   16MOL   C15510385   0.622   8.152   6.458  0.0222  0.0284 -0.6681
   16MOL   C15610386   0.679   8.030   6.410  0.9755 -0.4657 -0.1570
   16MOL   C15710387   0.643   7.988   6.278  0.2860  0.5288  0.0158
   16MOL   C15810388   0.472   7.802   6.073 -0.2386  0.0133 -0.0040
   16MOL   C15910389   0.375   7.698   6.057 -0.1989 -0.2916  0.4183
   16MOL   H16010390   0.238   7.595   6.280 -1.5715  0.0042 -0.5031
   16MOL   H16110391   0.291   7.393   6.409  1.8111  2.5093 -1.0611
   16MOL   H16210392   0.090   7.160   6.102 -4.1014  0.7507  2.3195
   16MOL   H16310393   0.064   7.360   5.966 -1.6769 -2.3510  1.4159
   16MOL   H16410394   0.094   7.887   6.024  0.6205  1.8820  1.5887
   16MOL   H16510395   0.270   8.070   6.015 -1.3499 -0.3964 -0.8403
   16MOL   H16610396   0.439   8.258   6.202  0.4091 -0.0192 -1.0925
   16MOL   H16710397   0.495   0.009   6.420  0.3572  0.1997  0.2098
   16MOL   H16810398   0.746   7.970   6.469  0.2472 -0.2050  0.9366
   16MOL   H16910399   0.679   7.895   6.238 -0.2413  0.5281 -0.4705
   16MOL   H17010400   0.575   7.780   6.096  0.3062  1.2054 -1.2563
   16MOL   H17110401   0.399   7.593   6.063 -0.5738 -0.4188 -0.2515
   16MOL   C17210402   1.011   8.263   6.536 -0.2880 -0.4910 -0.5142
   16MOL   C17310403   0.870   8.275   6.525  0.0840 -0.3224 -0.2682
   16MOL   C17410404   0.787   8.211   6.616  0.9526  0.2623 -0.5363
   16MOL   O17510405   0.654   8.202   6.586 -0.4901  0.5719  0.7382
   16MOL   C17610406   0.840   8.138   6.717  0.1385  0.1824 -0.1186
   16MOL   C17710407   0.978   8.133   6.744 -0.1867  0.0289  0.0080
   16MOL   C17810408   1.063   8.190   6.649 -0.2920  0.0714 -0.0095
   16MOL   C17910409   1.216   8.174   6.662 -0.4373 -0.4507  0.0678
   16MOL   O18010410   1.289   8.176   6.567 -0.5121 -0.3164  0.4032
   16MOL   C18110411   1.268   8.168   6.803 -0.0346  0.3793 -0.9336
   16MOL   C18210412   1.245   8.051   6.884 -0.8131 -0.0165  0.0136
   16MOL   C18310413   1.273   8.054   7.020  0.6991 -0.5478  0.0887
   16MOL   C18410414   1.326   8.162   7.082 -0.2951 -0.4289 -0.0133
   16MOL   O18510415   1.357   8.172   7.216  0.8768 -0.4262 -0.1452
   16MOL   C18610416   1.314   8.070   7.299 -0.2428 -0.4841 -1.0490
   16MOL   C18710417   1.216   8.105   7.395  0.5111 -0.1713 -0.3202
   16MOL   C18810418   1.181   8.013   7.494  0.0387 -0.0989  1.1739
   16MOL   C18910419   1.231   7.882   7.495 -0.4347 -0.3130  0.4056
   16MOL   C19010420   1.341   7.852   7.406  0.0375 -0.0457  0.6204
   16MOL   C19110421   1.377   7.943   7.308  0.0614  0.0781  0.1030
   16MOL   C19210422   1.357   8.271   6.999 -0.1397 -0.3574 -0.2836
   16MOL   C19310423   1.322   8.279   6.863  0.1710  0.1064 -0.2491
   16MOL   H19410424   1.071   8.306   6.458 -2.7226  0.3906 -1.9736
   16MOL   H19510425   0.844   0.011   6.432  0.1995 -0.4801 -0.3833
   16MOL   H19610426   0.768   8.091   6.783  0.0699  0.0574 -0.2807
   16MOL   H19710427   1.004   8.083   6.836 -2.7701  3.2444  2.6098
   16MOL   H19810428   1.206   7.960   6.841 -0.9247 -0.5108  1.1551
   16MOL   H19910429   1.246   7.960   7.067 -0.7762  0.5423  1.4905
   16MOL   H20010430   1.166   8.201   7.396  0.6741 -0.0975  1.1185
   16MOL   H20110431   1.094   8.025   7.558 -0.5604 -0.3366  0.4088
   16MOL   H20210432   1.397   7.761   7.416 -1.0802 -0.6079  2.0154
   16MOL   H20310433   1.460   7.919   7.244 -0.5373 -0.4353 -0.4919
   16MOL   H20410434   1.414   0.042   7.034 -2.2529  0.7644  0.5684
   16MOL   H20510435   1.332   0.049   6.795 -0.8539 -1.0190 -1.8109
   16MOL   C20610436   0.896   7.572   7.540  0.6303  0.0397 -0.5504
   16MOL   C20710437   0.976   7.681   7.583 -0.7688  0.8360 -0.4507
   16MOL   C20810438   1.117   7.687   7.565  0.0320 -0.3118 -0.3037
   16MOL   O20910439   1.195   7.795   7.597 -0.2318  1.3007 -0.5937
   16MOL   C21010440   1.178   7.576   7.506 -0.3945 -0.0666 -0.4729
   16MOL   C21110441   1.103   7.465   7.472 -0.1707 -0.2245  0.1638
   16MOL   C21210442   0.963   7.462   7.489  0.5817  0.5020 -0.0998
   16MOL   C21310443   0.885   7.340   7.447 -0.3527 -0.0702 -0.0449
   16MOL   O21410444   0.812   7.337   7.345  0.4097  0.0253  0.0872
   16MOL   C21510445   0.886   7.220   7.538 -0.9176 -0.3247  0.7156
   16MOL   C21610446   0.831   7.097   7.495 -0.3030 -0.1196  0.2718
   16MOL   C21710447   0.825   6.988   7.583 -0.2268  0.1011 -0.0563
   16MOL   C21810448   0.897   6.984   7.703  0.0005 -0.3185 -0.1313
   16MOL   O21910449   0.904   6.871   7.783  0.1671 -0.5072 -0.0811
   16MOL   C22010450   0.799   6.840   7.868  0.6005 -0.0441  0.7347
   16MOL   C22110451   0.664   6.860   7.836  0.0993  0.6901 -0.1811
   16MOL   C22210452   0.565   6.804   7.921  0.2540 -0.5576 -1.0988
   16MOL   C22310453   0.601   6.738   8.042  0.2276  0.5642 -0.0294
   16MOL   C22410454   0.742   6.728   8.077  0.3839  0.1407 -0.3048
   16MOL   C22510455   0.835   6.769   7.983 -0.1132  0.1424 -0.3836
   16MOL   C22610456   0.958   7.100   7.748  0.1095 -0.1571 -0.2919
   16MOL   C22710457   0.952   7.215   7.664  0.0291 -0.0113  0.4205
   16MOL   H22810458   0.790   7.570   7.561  1.0110 -1.1500  1.3712
   16MOL   H22910459   0.930   7.768   7.625  0.8507  2.2285 -1.5035
   16MOL   H23010460   1.285   7.565   7.492 -0.4663 -1.7245  0.1340
   16MOL   H23110461   1.138   7.375   7.423 -2.1339 -0.7391 -0.3474
   16MOL   H23210462   0.775   7.088   7.403  1.1873 -0.2185 -0.6377
   16MOL   H23310463   0.766   6.901   7.560 -0.4276  0.5559 -1.3185
   16MOL   H23410464   0.629   6.907   7.745  0.0647 -2.0175 -1.6123
   16MOL   H23510465   0.462   6.822   7.894 -0.2086 -1.1014  0.2398
   16MOL   H23610466   0.770   6.674   8.166  0.9675 -0.2073 -0.7048
   16MOL   H23710467   0.939   6.756   8.010 -0.8189 -0.0721  2.4149
   16MOL   H23810468   1.006   7.101   7.845  1.9886  1.8783 -1.2015
   16MOL   H23910469   1.009   7.305   7.685  0.1892  0.4652 -1.9025
   16MOL   C24010470   0.368   6.386   8.002 -0.1053  0.1575 -0.5527
   16MOL   C24110471   0.442   6.509   8.003  0.0501  0.9176  0.0915
   16MOL   C24210472   0.441   6.590   8.116  0.2994 -0.0051 -0.1894
   16MOL   O24310473   0.515   6.700   8.140 -0.2398 -0.2238  0.8771
   16MOL   C24410474   0.361   6.549   8.227  1.0499  0.4295  0.6065
   16MOL   C24510475   0.285   6.431   8.228  0.3076 -0.1936  0.4521
   16MOL   C24610476   0.293   6.349   8.115  0.3086 -0.0642  0.1019
   16MOL   C24710477   0.220   6.219   8.109 -0.2631 -0.7725 -1.3210
   16MOL   O24810478   0.122   6.209   8.034 -0.6353 -0.2689 -0.6398
   16MOL   C24910479   0.270   6.111   8.194  0.8843 -0.2740  0.4828
   16MOL   C25010480   0.374   6.130   8.287 -0.5109  1.0106 -0.1459
   16MOL   C25110481   0.411   6.019   0.052  0.1415 -0.2061 -0.6203
   16MOL   C25210482   0.342   5.893   0.044  0.6508 -0.0509 -0.2561
   16MOL   O25310483   0.383   5.785   0.117  0.3279 -0.3077 -0.2222
   16MOL   C25410484   0.389   5.666   0.053 -0.2755 -0.7131 -0.7187
   16MOL   C25510485   0.310   5.558   0.093  0.3532 -0.1119 -0.2663
   16MOL   C25610486   0.332   5.429   0.043 -0.0449  0.5908  0.6382
   16MOL   C25710487   0.429   5.407   8.249 -0.5859  0.0988 -0.6993
   16MOL   C25810488   0.504   5.519   8.207  0.7051 -0.3871  0.1097
   16MOL   C25910489   0.494   5.647   8.272  0.3491 -0.0206  0.2094
   16MOL   C26010490   0.236   5.883   8.264  0.2527 -0.1523  0.4357
   16MOL   C26110491   0.206   5.989   8.179  0.0598  0.0988  0.0996
   16MOL   H26210492   0.372   6.319   7.917  1.5056  0.8621 -1.0559
   16MOL   H26310493   0.504   6.535   7.918 -1.0222  2.4160 -0.2623
   16MOL   H26410494   0.358   6.611   0.002 -0.9073  1.6463 -0.3008
   16MOL   H26510495   0.218   6.406   8.309 -0.3198  1.2508  0.3948
   16MOL   H26610496   0.438   6.217   8.281  1.7325 -0.5863 -0.2321
   16MOL   H26710497   0.497   6.015   0.116  0.0899 -0.8869 -0.5866
   16MOL   H26810498   0.237   5.579   0.170  0.2164  0.1261 -0.4581
   16MOL   H26910499   0.272   5.346   0.079 -0.8430  0.7611 -0.2743
   16MOL   H27010500   0.581   5.507   8.132  1.9858  0.9157  1.1782
   16MOL   H27110501   0.555   5.729   8.238 -2.8399  1.9958 -0.9874
   16MOL   H27210502   0.188   5.787   8.253  2.6376 -1.3869  0.3890
   16MOL   H27310503   0.118   5.965   8.121 -1.0661 -2.2369  2.6523
   16MOL   C27410504   0.571   5.174   7.862 -0.3942  0.4623  0.5361
   16MOL   C27510505   0.567   5.201   7.998 -0.4541 -0.8673 -0.2156
   16MOL   C27610506   0.458   5.260   8.055  0.1832 -0.3630  0.0335
   16MOL   O27710507   0.459   5.286   8.194  0.0544  0.2033  0.0870
   16MOL   C27810508   0.343   5.289   7.984 -0.0204 -0.5471  0.1180
   16MOL   C27910509   0.350   5.282   7.842 -0.3685 -0.1915 -0.3436
   16MOL   C28010510   0.464   5.219   7.780  0.3473  0.0054 -0.6369
   16MOL   C28110511   0.483   5.212   7.631  0.3950  0.4444  0.3530
   16MOL   O28210512   0.590   5.185   7.585  0.1324 -0.4978 -0.7274
   16MOL   C28310513   0.362   5.218   7.540 -0.1375  0.2057  1.1091
   16MOL   C28410514   0.306   5.339   7.493  0.2389  0.7513 -0.3976
   16MOL   C28510515   0.205   5.342   7.386  0.0245 -1.3574 -0.0505
   16MOL   C28610516   0.153   5.223   7.336 -0.3796 -0.7388  0.3576
   16MOL   O28710517   0.079   5.216   7.219  0.4529 -0.3632 -0.4577
   16MOL   C28810518   8.268   5.169   7.220 -0.0743  0.5492  0.1160
   16MOL   C28910519   8.200   5.197   7.098  0.3252  0.0948  0.1248
   16MOL   C29010520   8.064   5.157   7.079 -0.3187  0.5160 -0.1502
   16MOL   C29110521   7.993   5.095   7.184  0.3434  0.1673 -0.2512
   16MOL   C29210522   8.064   5.078   7.310 -0.2250 -0.8799  0.1573
   16MOL   C29310523   8.200   5.103   7.325  0.6469  1.1218 -0.6771
   16MOL   C29410524   0.196   5.100   7.391 -0.7384 -0.0075 -0.9939
   16MOL   C29510525   0.302   5.097   7.494 -0.0499 -0.0740  0.6307
   16MOL   H29610526   0.658   5.128   7.818 -2.0242  0.2512 -2.5465
   16MOL   H29710527   0.652   5.172   8.057  1.3987  1.6170 -1.5780
   16MOL   H29810528   0.256   5.338   8.025  0.7857  0.3783  0.7472
   16MOL   H29910529   0.264   5.315   7.785 -1.1386 -0.2644  0.7634
   16MOL   H30010530   0.345   5.435   7.524 -0.6720  0.3475  2.0738
   16MOL   H30110531   0.170   5.438   7.353 -1.7445 -2.4896 -1.5680
   16MOL   H30210532   8.247   5.230   7.007  4.1975 -1.1620  1.5738
   16MOL   H30310533   8.021   5.184   6.984 -1.2735 -1.0406 -0.1842
   16MOL   H30410534   8.020   5.041   7.402 -0.7230 -0.8447 -0.0630
   16MOL   H30510535   8.255   5.081   7.415  1.2290 -2.8264 -1.9137
   16MOL   H30610536   0.150   5.009   7.357  0.6897 -1.2130  0.2266
   16MOL   H30710537   0.349   5.001   7.511 -2.6226 -1.5627 -0.4457
   16MOL   C30810538   7.677   5.396   7.214 -0.3726 -0.5693  0.3181
   16MOL   C30910539   7.781   5.298   7.233 -0.0019  0.5926 -0.1967
   16MOL   C31010540   7.772   5.177   7.157  0.6312 -0.1335 -0.2093
   16MOL   O31110541   7.857   5.072   7.171 -0.0540  1.0551  0.3227
   16MOL   C31210542   7.667   5.158   7.065  0.0257  0.3132  0.1629
   16MOL   C31310543   7.558   5.250   7.051  0.2085 -0.4520  0.2557
   16MOL   C31410544   7.568   5.375   7.117  0.0436 -0.5858  0.1747
   16MOL   C31510545   7.462   5.476   7.088  0.0970 -0.6045 -0.1601
   16MOL   O31610546   7.350   5.442   7.062 -0.4891  0.4827  0.3325
   16MOL   C31710547   7.491   5.619   7.109 -0.2817 -0.1720 -0.6037
   16MOL   C31810548   7.393   5.703   7.165  0.0896  0.3444  0.1093
   16MOL   C31910549   7.422   5.834   7.204 -0.2007  0.4412  0.2791
   16MOL   C32010550   7.552   5.884   7.188 -0.4292 -0.5740 -0.8363
   16MOL   O32110551   7.594   5.995   7.253 -0.2561  0.2353 -0.1700
   16MOL   C32210552   7.659   5.978   7.372 -0.2776 -0.6718  0.4257
   16MOL   C32310553   7.760   6.073   7.400 -0.7476 -0.0404 -0.6267
   16MOL   C32410554   7.838   6.066   7.522 -0.3125  0.6005 -0.4746
   16MOL   C32510555   7.802   5.974   7.620  0.0574 -0.0231 -0.1614
   16MOL   C32610556   7.697   5.882   7.599 -0.8627 -0.1321 -0.2147
   16MOL   C32710557   7.623   5.891   7.478 -0.1980  0.0013  0.3036
   16MOL   C32810558   7.648   5.812   7.115  0.2271  0.2838 -0.1693
   16MOL   C32910559   7.621   5.676   7.080 -0.1990 -0.5139  0.4014
   16MOL   H33010560   7.686   5.483   7.277  0.9562 -0.0338 -0.5850
   16MOL   H33110561   7.859   5.331   7.301 -0.2969  1.9734 -0.5052
   16MOL   H33210562   7.656   5.058   7.025 -0.1229  0.4992 -0.2616
   16MOL   H33310563   7.495   5.215   6.970  1.6604 -0.2648 -0.9887
   16MOL   H33410564   7.296   5.656   7.173  0.5181 -0.5019  0.4012
   16MOL   H33510565   7.333   5.888   7.235 -0.0828 -0.3816  2.0517
   16MOL   H33610566   7.775   6.145   7.320 -1.8771  0.0341 -0.7774
   16MOL   H33710567   7.929   6.123   7.533  0.7700 -0.7147 -2.3679
   16MOL   H33810568   7.664   5.818   7.679  0.1144 -0.8687 -0.3804
   16MOL   H33910569   7.539   5.824   7.465 -0.3530  0.0776  0.9267
   16MOL   H34010570   7.749   5.849   7.120 -0.1275  1.3388 -0.7469
   16MOL   H34110571   7.699   5.618   7.034 -1.2653 -0.5489 -1.4348
   16MOL   C34210572   7.977   6.273   7.894  0.1271  0.3240 -0.0389
   16MOL   C34310573   7.979   6.152   7.814  0.5110 -0.1536  0.6599
   16MOL   C34410574   7.864   6.074   7.822  0.4397  0.0497 -0.7200
   16MOL   O34510575   7.867   5.963   7.741  0.3131 -0.3435 -0.5748
   16MOL   C34610576   7.746   6.119   7.894 -0.0523  0.2719 -0.2475
   16MOL   C34710577   7.750   6.232   7.969 -0.2028  0.7579  0.3295
   16MOL   C34810578   7.861   6.315   7.965 -0.4500  0.0735 -0.4953
   16MOL   C34910579   7.859   6.440   8.050  0.5075  0.2612 -0.2201
   16MOL   O35010580   7.903   6.547   8.004  0.2143  0.0942 -0.2698
   16MOL   C35110581   7.803   6.424   8.190 -0.4355 -0.5110  0.0150
   16MOL   C35210582   7.759   6.539   8.259 -0.4823 -0.4514  0.3317
   16MOL   C35310583   7.702   6.533   0.080 -0.6878 -0.4256  0.0838
   16MOL   C35410584   7.709   6.414   0.153 -0.9097  0.6350  0.0985
   16MOL   O35510585   7.680   6.403   0.286  0.2276 -0.0114  0.0420
   16MOL   C35610586   7.734   6.490   0.377  0.6300  0.0210  0.1918
   16MOL   C35710587   7.855   6.565   0.356  0.9891 -0.0044 -0.2798
   16MOL   C35810588   7.883   6.666   0.448 -0.5649  0.4589  0.2269
   16MOL   C35910589   7.809   6.686   0.562 -0.0004 -0.2793  0.2008
   16MOL   C36010590   7.684   6.618   0.575 -0.8630  0.1457  0.4885
   16MOL   C36110591   7.649   6.526   0.484  0.4659 -0.4408 -0.2214
   16MOL   C36210592   7.757   6.292   0.087  0.3388  0.8307 -0.4746
   16MOL   C36310593   7.807   6.300   8.265  0.3946  0.1299 -1.0126
   16MOL   H36410594   8.065   6.336   7.893 -0.4497  1.1379 -0.1609
   16MOL   H36510595   8.068   6.118   7.764 -0.1304 -1.9959  0.7351
   16MOL   H36610596   7.658   6.057   7.904 -1.1197  0.8470 -4.8513
   16MOL   H36710597   7.664   6.263   8.025 -1.1821 -1.1716 -0.0719
   16MOL   H36810598   7.766   6.636   8.213  1.1085 -0.2675  0.9347
   16MOL   H36910599   7.660   6.617   0.133 -1.6036 -0.5292 -0.4739
   16MOL   H37010600   7.919   6.557   0.269 -0.4040  1.7927 -1.5230
   16MOL   H37110601   7.970   6.725   0.424  0.2409  0.4999  3.0428
   16MOL   H37210602   7.619   6.632   0.660 -1.4352  1.4396 -0.1456
   16MOL   H37310603   7.559   6.469   0.502  0.9166 -1.3526 -0.8272
   16MOL   H37410604   7.762   6.195   0.135 -0.6768  0.2369 -1.5388
   16MOL   H37510605   7.842   6.214   8.209  0.5799 -0.4766  0.0257
   16MOL   C37610606   7.622   7.024   0.783  0.1262  0.2466  0.1393
   16MOL   C37710607   7.707   6.912   0.771  0.2805  0.4927  0.3780
   16MOL   C37810608   7.785   6.888   0.652  0.1871 -0.1946  0.1683
   16MOL   O37910609   7.850   6.773   0.653 -0.3295 -0.2507 -0.2695
   16MOL   C38010610   7.769   6.979   0.543 -0.1449  0.2660  0.4936
   16MOL   C38110611   7.682   7.085   0.553  0.4352  0.2192 -0.1219
   16MOL   C38210612   7.614   7.114   0.674  0.3677  1.0749 -0.1233
   16MOL   C38310613   7.512   7.226   0.676 -0.1949  0.2113 -0.5577
   16MOL   O38410614   7.396   7.213   0.707 -0.0329  0.5213 -0.1133
   16MOL   C38510615   7.565   7.360   0.641  1.3317 -0.4790 -0.9732
   16MOL   C38610616   7.468   7.461   0.608  0.1489 -0.3825  0.0310
   16MOL   C38710617   7.518   7.594   0.583 -0.8097  0.2890  0.0748
   16MOL   C38810618   7.655   7.622   0.598  0.3414  0.0742  0.2581
   16MOL   O38910619   7.701   7.746   0.564 -0.2728 -0.3464  0.0644
   16MOL   C39010620   7.710   7.828   0.672 -0.5517  0.0137 -0.4375
   16MOL   C39110621   7.835   7.830   0.743 -0.4790 -0.2440 -0.2952
   16MOL   C39210622   7.840   7.910   0.860  0.0153 -0.2316  0.4295
   16MOL   C39310623   7.726   7.975   0.908 -0.3920  0.1436  0.3148
   16MOL   C39410624   7.609   7.957   0.845 -0.5307  0.6553 -0.0813
   16MOL   C39510625   7.596   7.892   0.722 -0.1077  0.5567 -0.2146
   16MOL   C39610626   7.746   7.520   0.635 -0.0843  0.0636  0.6420
   16MOL   C39710627   7.705   7.391   0.656 -0.4197  0.4291  0.6933
   16MOL   H39810628   7.573   7.045   0.877 -1.9165 -1.0987 -0.5758
   16MOL   H39910629   7.710   6.850   0.858 -0.0428 -0.2774 -0.1585
   16MOL   H40010630   7.835   6.962   0.459  0.6506 -1.8965  1.5278
   16MOL   H40110631   7.669   7.151   0.468 -2.1096 -0.7896 -0.5625
   16MOL   H40210632   7.363   7.438   0.603  0.2973 -0.4775 -4.7201
   16MOL   H40310633   7.462   7.686   0.570 -0.7096  0.3247 -0.1056
   16MOL   H40410634   7.923   7.774   0.714  0.6976 -0.3909  3.2836
   16MOL   H40510635   7.926   7.908   0.924 -0.7461  0.3822  1.4801
   16MOL   H40610636   7.522   8.003   0.889  1.8109  2.2122  3.1502
   16MOL   H40710637   7.498   7.873   0.679 -0.9991  1.0684  1.5585
   16MOL   H40810638   7.852   7.544   0.630 -0.1198 -0.2078 -2.0826
   16MOL   H40910639   7.783   7.319   0.676 -0.7073 -0.3225 -0.8269
   16MOL   C41010640   7.712   7.846   1.332 -0.5692 -0.2246 -0.0935
   16MOL   C41110641   7.674   7.898   1.209  0.0862  0.3463  0.4417
   16MOL   C41210642   7.760   7.983   1.140  0.3703 -0.3999 -0.2086
   16MOL   O41310643   7.730   8.046   1.024 -0.2948  0.2264 -0.2267
   16MOL   C41410644   7.889   8.001   1.191 -0.4967 -0.2340 -0.2396
   16MOL   C41510645   7.932   7.938   1.307 -0.1771  0.1664  0.3811
   16MOL   C41610646   7.842   7.865   1.385 -0.2574  0.2946  0.2811
   16MOL   C41710647   7.881   7.790   1.509  0.3118  0.1612  0.0008
   16MOL   O41810648   7.822   7.695   1.555  0.3968 -0.8224  0.1335
   16MOL   C41910649   7.991   7.840   1.579  0.0834 -0.0696  0.1829
   16MOL   C42010650   8.119   7.783   1.554 -0.2402 -0.9770  0.7947
   16MOL   C42110651   8.225   7.814   1.639  0.2637  0.2685 -0.4321
   16MOL   C42210652   8.205   7.921   1.731 -0.3071 -0.3298 -0.1221
   16MOL   O42310653   0.009   7.948   1.799 -0.2755  0.4474 -0.3737
   16MOL   C42410654   0.020   8.072   1.845  0.1669 -0.6544  0.0754
   16MOL   C42510655   0.070   8.175   1.766 -0.0570 -0.1782  0.8659
   16MOL   C42610656   0.097   8.304   1.817  0.5353 -0.0145 -0.1552
   16MOL   C42710657   0.080   0.015   1.955  0.4478 -0.4595  0.2563
   16MOL   C42810658   0.021   8.228   2.035  0.2165  0.6100  0.8736
   16MOL   C42910659   8.307   8.100   1.980 -0.4752 -0.3728  0.5808
   16MOL   C43010660   8.080   7.986   1.756 -0.0238 -0.0531 -0.7644
   16MOL   C43110661   7.968   7.946   1.675  0.6201 -0.8226 -0.1206
   16MOL   H43210662   7.636   7.793   1.389 -0.1784  1.1614  1.7824
   16MOL   H43310663   7.574   7.876   1.174  0.2125  0.2166  0.1533
   16MOL   H43410664   7.964   8.034   1.120  1.9947 -1.0740  1.8802
   16MOL   H43510665   8.032   7.956   1.343 -0.4536 -0.4082  1.4368
   16MOL   H43610666   8.142   7.714   1.474  0.2944 -0.2318  0.2967
   16MOL   H43710667   0.009   7.766   1.628 -0.5647 -1.7125  0.6513
   16MOL   H43810668   0.096   8.167   1.661 -2.2110  1.9813  0.1205
   16MOL   H43910669   0.145   0.069   1.759  2.2918 -0.2260  0.9972
   16MOL   H44010670   8.311   8.254   2.137 -1.6338 -1.3234  0.9770
   16MOL   H44110671   8.256   8.028   2.042  0.7024 -1.0702  0.7370
   16MOL   H44210672   8.074   8.068   1.826  2.3121 -1.4976  1.2085
   16MOL   H44310673   7.871   7.988   1.696  0.5255 -0.3586 -1.4510
   16MOL   C44410674   0.473   0.197   1.912  0.7538  0.5539 -0.3854
   16MOL   C44510675   0.353   0.124   1.934 -1.1397 -0.1672  0.1458
   16MOL   C44610676   0.247   0.190   1.997  0.1331 -0.1179  0.2587
   16MOL   O44710677   0.121   0.138   2.009 -0.3871  0.1011 -0.8999
   16MOL   C44810678   0.259   0.327   2.033  0.4226 -0.1827 -0.2634
   16MOL   C44910679   0.378   0.397   2.012 -0.3843  0.4485  0.9140
   16MOL   C45010680   0.495   0.331   1.958  0.4830  0.3493  0.2094
   16MOL   C45110681   0.627   0.402   1.941  0.4889 -0.1900  0.0500
   16MOL   O45210682   0.721   0.361   1.876  0.0863 -0.1931  0.4116
   16MOL   C45310683   0.629   0.538   1.987 -0.0988 -0.3129 -0.1203
   16MOL   C45410684   0.635   0.642   1.890 -0.6487  0.2724 -0.4444
   16MOL   C45510685   0.636   0.777   1.922 -1.0303 -0.1468  0.2676
   16MOL   C45610686   0.613   0.814   2.054 -0.7188 -0.7890 -0.3229
   16MOL   O45710687   0.608   0.951   2.079 -0.1720 -0.0332  0.5107
   16MOL   C45810688   0.535   1.034   2.001  0.4643  0.5808  0.6083
   16MOL   C45910689   0.392   1.034   1.995 -0.9573  0.5282  0.0114
   16MOL   C46010690   0.319   1.136   1.931 -0.4353 -0.2601  0.1352
   16MOL   C46110691   0.393   1.240   1.860  0.1783  0.0622 -0.0411
   16MOL   C46210692   0.531   1.226   1.846 -0.4766 -0.3924  0.9979
   16MOL   C46310693   0.604   1.124   1.918 -0.8251  0.0233  0.0377
   16MOL   C46410694   0.602   0.716   2.156  0.6951  0.2871  0.2916
   16MOL   C46510695   0.610   0.576   2.123 -0.4281  0.2122  0.1218
   16MOL   H46610696   0.556   0.141   1.872 -0.2183 -0.5385 -0.8993
   16MOL   H46710697   0.338   0.031   1.882 -0.8572  0.3053 -0.7787
   16MOL   H46810698   0.176   0.382   2.076  2.0123  1.5898  0.6144
   16MOL   H46910699   0.390   0.504   2.019 -1.0230  0.6542 -0.8217
   16MOL   H47010700   0.650   0.612   1.787 -0.8863 -0.7485 -0.1865
   16MOL   H47110701   0.652   0.847   1.842 -1.0839  1.7180  1.8501
   16MOL   H47210702   0.319   0.975   2.048 -0.8023  0.4305  0.1151
   16MOL   H47310703   0.214   1.148   1.952 -0.3550  0.0793  0.3450
   16MOL   H47410704   0.579   1.314   1.805 -0.2151  0.1253  2.3643
   16MOL   H47510705   0.712   1.120   1.915 -0.7010  2.7137 -0.1004
   16MOL   H47610706   0.603   0.753   2.257 -0.8900  0.4903  0.2442
   16MOL   H47710707   0.601   0.507   2.206 -2.2380  0.7049  0.3441
   16MOL   C47810708   0.193   1.199   1.463  0.6284  0.4359  0.0314
   16MOL   C47910709   0.212   1.221   1.608  0.0459 -0.0346  1.1121
   16MOL   C48010710   0.314   1.311   1.646 -0.1098 -0.6325 -0.6154
   16MOL   O48110711   0.336   1.338   1.783  0.8226  0.4528  0.2074
   16MOL   C48210712   0.393   1.379   1.552 -0.7768  1.0197 -0.4507
   16MOL   C48310713   0.392   1.340   1.418  0.0657 -0.3015 -0.9525
   16MOL   C48410714   0.282   1.262   1.372  0.7434 -0.3161  0.0010
   16MOL   C48510715   0.250   1.264   1.228 -0.0220  0.3436  0.7871
   16MOL   O48610716   0.293   1.353   1.146 -0.5840  0.6699 -0.1459
   16MOL   C48710717   0.165   1.159   1.164  0.2325  0.2998 -0.4077
   16MOL   C48810718   0.061   1.196   1.074 -0.4536  0.7025  0.4586
   16MOL   C48910719   8.278   1.108   1.029  0.3634 -0.3328 -0.6567
   16MOL   C49010720   8.295   0.968   1.054  0.4203 -0.1595 -0.5784
   16MOL   O49110721   8.204   0.886   0.991  0.4408  0.6367  0.0116
   16MOL   C49210722   8.212   0.752   1.020 -0.8936 -1.1519  0.6447
   16MOL   C49310723   8.303   0.674   0.938  0.2930 -0.2550  0.0225
   16MOL   C49410724   0.008   0.538   0.971  0.0909 -0.4919 -0.0861
   16MOL   C49510725   8.264   0.477   1.085  0.3600 -0.9795  0.2481
   16MOL   C49610726   8.166   0.552   1.161  0.1089  0.6474 -0.2295
   16MOL   C49710727   8.152   0.691   1.130 -0.7274 -0.5193  0.1504
   16MOL   C49810728   0.085   0.928   1.145  0.2111 -0.3705 -0.2514
   16MOL   C49910729   0.178   1.022   1.200 -0.3350 -0.5875  0.1151
   16MOL   H50010730   0.111   1.141   1.424 -0.4319  1.0008  1.3842
   16MOL   H50110731   0.148   1.178   1.684 -0.5872 -0.6293  0.2565
   16MOL   H50210732   0.460   1.451   1.597  0.7717 -1.4706  1.3548
   16MOL   H50310733   0.451   1.397   1.347 -1.0887  1.4786 -0.4931
   16MOL   H50410734   0.062   1.299   1.041 -0.5742 -0.0069 -1.8219
   16MOL   H50510735   8.199   1.142   0.964  0.5809 -0.3400 -0.9271
   16MOL   H50610736   0.049   0.720   0.860  2.0379 -1.0581  0.8562
   16MOL   H50710737   0.080   0.474   0.924 -2.4523 -2.7136 -1.1109
   16MOL   H50810738   8.118   0.510   1.248 -1.7350  0.4175 -1.3264
   16MOL   H50910739   8.081   0.746   1.191 -2.0319 -0.6176 -1.2433
   16MOL   H51010740   0.098   0.823   1.166 -0.2543 -0.6379 -1.2574
   16MOL   H51110741   0.255   0.984   1.265 -0.6372 -0.9089  0.2910
   16MOL   C51210742   0.061   0.058   0.920 -0.7732 -0.3867 -0.6194
   16MOL   C51310743   0.076   0.192   0.971 -0.7697  0.4724  0.5305
   16MOL   C51410744   8.286   0.243   1.052  0.4490  0.1285 -0.0848
   16MOL   O51510745   8.307   0.360   1.124  0.3975 -0.5596 -0.2320
   16MOL   C51610746   8.162   0.173   1.072 -0.5247  0.2889 -1.0187
   16MOL   C51710747   8.154   0.038   1.024 -0.1208 -0.1293  0.1269
   16MOL   C51810748   8.258   8.289   0.944 -0.1347 -0.2674  0.3378
   16MOL   C51910749   8.247   8.141   0.899 -0.3969 -0.1419 -0.0298
   16MOL   O52010750   8.146   8.078   0.916  0.6902 -0.2382 -0.3001
   16MOL   C52110751   0.054   8.074   0.851 -0.0195 -0.0076 -0.3758
   16MOL   C52210752   0.113   8.094   0.726 -0.6401 -0.0256  0.8173
   16MOL   C52310753   0.240   8.041   0.691  0.8322 -0.7261 -0.0638
   16MOL   C52410754   0.310   7.959   0.783  0.3491  0.8446  0.4677
   16MOL   O52510755   0.417   7.890   0.730 -0.4127 -0.0701  0.2263
   16MOL   C52610756   0.405   7.807   0.625  0.3014 -0.2428  0.2327
   16MOL   C52710757   0.492   7.825   0.520 -0.4099 -0.2018  0.1122
   16MOL   C52810758   0.479   7.750   0.402 -0.2030  0.7725  0.0204
   16MOL   C52910759   0.380   7.643   0.394 -0.1347 -0.2262  0.7810
   16MOL   C53010760   0.302   7.612   0.504 -0.6492  0.2522  0.5828
   16MOL   C53110761   0.312   7.696   0.617  0.0886 -0.2338 -0.5772
   16MOL   C53210762   0.253   7.934   0.911  0.3544 -0.1183  0.1339
   16MOL   C53310763   0.133   7.993   0.945 -0.2088 -0.6171  0.0726
   16MOL   H53410764   0.142   0.014   0.863  1.1692  0.1212  1.6506
   16MOL   H53510765   0.167   0.247   0.952 -0.8236 -0.1226 -1.6213
   16MOL   H53610766   8.081   0.208   1.134 -2.6061 -2.0614 -2.3227
   16MOL   H53710767   8.069   8.293   1.057 -1.0309  1.8653  1.3521
   16MOL   H53810768   0.060   8.147   0.647  0.3479 -0.0607  0.1164
   16MOL   H53910769   0.276   8.068   0.592  0.1984 -2.8635 -0.9073
   16MOL   H54010770   0.569   7.901   0.522 -1.3816  0.7794  0.7355
   16MOL   H54110771   0.544   7.771   0.318  0.9960 -0.0137  0.7287
   16MOL   H54210772   0.236   7.527   0.490  2.0133 -1.8047  0.2747
   16MOL   H54310773   0.237   7.692   0.694  2.9692  1.0536  2.4317
   16MOL   H54410774   0.304   7.867   0.979  0.9120  1.3203  1.1611
   16MOL   H54510775   0.099   7.976   1.046 -1.5954  0.0602 -0.2719
   16MOL   C54610776   0.593   7.422   0.039  0.1071  0.1251  0.2225
   16MOL   C54710777   0.493   7.500   0.102  0.4298 -0.0229 -0.3366
   16MOL   C54810778   0.489   7.509   0.243  0.0431  0.3276 -0.5577
   16MOL   O54910779   0.368   7.557   0.290 -0.2993 -0.3825  0.0286
   16MOL   C55010780   0.592   7.463   0.321 -0.0416 -0.3587  0.0253
   16MOL   C55110781   0.710   7.415   0.254  0.5567  0.8397  0.0183
   16MOL   C55210782   0.702   7.381   0.119 -0.1932 -0.4664  0.1538
   16MOL   C55310783   0.797   7.277   0.067 -0.5742  0.2069 -0.1231
   16MOL   O55410784   0.809   7.168   0.124 -0.2732  0.5146  0.3708
   16MOL   C55510785   0.886   7.324   8.266 -0.9181 -0.1675 -0.3706
   16MOL   C55610786   0.990   7.241   8.222 -0.0890 -0.2285  0.0873
   16MOL   C55710787   1.078   7.276   8.117 -0.5237 -0.0835 -0.5036
   16MOL   C55810788   1.068   7.399   8.055  0.6634 -0.5205  0.1502
   16MOL   O55910789   1.138   7.427   7.938  0.0189 -0.0866  0.2843
   16MOL   C56010790   1.273   7.424   7.944 -0.0306 -0.4784  0.0349
   16MOL   C56110791   1.350   7.382   7.831  0.5807  0.5300  0.4513
   16MOL   C56210792   1.490   7.388   7.838  0.4739 -0.0116 -0.6946
   16MOL   C56310793   1.551   7.444   7.953 -0.7191 -0.2594 -0.1911
   16MOL   C56410794   1.476   7.476   8.065 -0.1507 -0.8606  0.0535
   16MOL   C56510795   1.339   7.479   8.061 -0.1021  0.1483 -0.0251
   16MOL   C56610796   0.969   7.490   8.105 -0.8493 -0.2259  0.2543
   16MOL   C56710797   0.887   7.456   8.214 -0.7488  0.0577  0.1432
   16MOL   H56810798   0.572   7.381   8.254  0.2500 -2.6922  1.3475
   16MOL   H56910799   0.413   7.535   0.037 -1.4587 -1.3859  1.1953
   16MOL   H57010800   0.586   7.465   0.429 -1.3574 -0.4269 -0.0473
   16MOL   H57110801   0.794   7.373   0.309  1.2036  1.2768 -0.6247
   16MOL   H57210802   1.014   7.152   8.278 -0.3131 -1.1480 -1.2438
   16MOL   H57310803   1.158   7.212   8.082 -0.9241  0.2700 -2.0693
   16MOL   H57410804   1.303   7.360   7.736  1.8765  0.4255 -0.1689
   16MOL   H57510805   1.547   7.357   7.752  1.0761  1.4724 -0.8435
   16MOL   H57610806   1.513   7.510   8.161 -2.1919 -0.4472  0.7255
   16MOL   H57710807   1.281   7.519   8.143  1.3643 -1.2408  1.7297
   16MOL   H57810808   0.958   7.588   8.060 -0.0392 -0.5521 -0.6549
   16MOL   H57910809   0.818   7.531   8.247  0.5801  0.1893  2.7653
   16MOL   C58010810   1.904   7.214   8.134 -0.9284 -0.1499 -0.2669
   16MOL   C58110811   1.817   7.330   8.108 -0.0641  0.5607  0.7748
   16MOL   C58210812   1.775   7.351   7.976 -0.0689 -1.2476  0.2558
   16MOL   O58310813   1.686   7.459   7.958 -0.3184  0.3296  0.0510
   16MOL   C58410814   1.816   7.277   7.869 -0.2296 -0.0497  0.1302
   16MOL   C58510815   1.901   7.166   7.892 -0.0764 -0.1572 -0.8147
   16MOL   C58610816   1.950   7.133   8.018  0.1246  0.2502 -0.5426
   16MOL   C58710817   2.061   7.033   8.026 -0.2340  0.1293 -0.3394
   16MOL   O58810818   2.152   7.057   8.106 -0.5542  0.9301  0.6978
   16MOL   C58910819   2.062   6.914   7.935  0.4773 -0.4502 -0.8278
   16MOL   C59010820   1.948   6.832   7.910 -0.3241  0.6747 -0.2243
   16MOL   C59110821   1.959   6.720   7.819  0.7069  0.0587 -0.5271
   16MOL   C59210822   2.084   6.680   7.763 -0.5465  0.2161  0.3648
   16MOL   O59310823   2.094   6.592   7.655 -0.5375  0.1796  0.2975
   16MOL   C59410824   2.037   6.470   7.673 -0.2235 -1.0237  0.3274
   16MOL   C59510825   1.908   6.449   7.609  0.5766 -0.0675 -0.0869
   16MOL   C59610826   1.845   6.326   7.625  0.1570  0.2816  0.1627
   16MOL   C59710827   1.905   6.221   7.704 -0.0527  0.0454 -0.8202
   16MOL   C59810828   2.027   6.247   7.771 -0.0507  0.8602  0.4648
   16MOL   C59910829   2.092   6.367   7.749 -0.2928  0.6669 -0.6905
   16MOL   C60010830   2.196   6.756   7.796  0.0204 -0.0126  0.0784
   16MOL   C60110831   2.185   6.872   7.881  0.3563  0.3780  0.2364
   16MOL   H60210832   1.937   7.196   8.235  0.7568 -2.3170 -1.1686
   16MOL   H60310833   1.777   7.394   8.186 -1.2210 -1.0555  1.5378
   16MOL   H60410834   1.791   7.312   7.770  2.4797  0.1525 -0.5424
   16MOL   H60510835   1.936   7.114   7.804 -1.1077 -0.2890 -1.1484
   16MOL   H60610836   1.851   6.856   7.952 -0.2955  0.2151  0.0989
   16MOL   H60710837   1.871   6.669   7.782  1.1004 -1.0506  0.0456
   16MOL   H60810838   1.865   6.527   7.549  0.9268  0.2550  0.0803
   16MOL   H60910839   1.752   6.321   7.570  0.8836  1.2099 -1.1953
   16MOL   H61010840   2.091   6.176   7.822 -0.3091  0.9846  0.9608
   16MOL   H61110841   2.172   6.382   7.820  0.1688 -0.8421 -0.8522
   16MOL   H61210842   2.291   6.753   7.746 -0.4700  0.3007 -0.9032
   16MOL   H61310843   2.276   6.927   7.900  0.8829 -0.0320 -1.0310
   16MOL   C61410844   1.595   6.154   7.992  0.1154  0.2637 -0.3376
   16MOL   C61510845   1.712   6.139   7.917  0.2047 -0.1477 -0.0045
   16MOL   C61610846   1.716   6.106   7.782  0.4350 -0.3612 -0.1529
   16MOL   O61710847   1.838   6.103   7.714  0.1298  0.4529  0.3876
   16MOL   C61810848   1.586   6.083   7.727  0.3022 -0.5755 -0.3589
   16MOL   C61910849   1.461   6.102   7.799  0.6780  0.1908 -0.2086
   16MOL   C62010850   1.464   6.151   7.929  0.1362  0.3313  0.1904
   16MOL   C62110851   1.337   6.152   8.011  0.5807 -1.0352 -0.0284
   16MOL   O62210852   1.261   6.054   8.000 -0.0975 -0.3488  0.1234
   16MOL   C62310853   1.295   6.270   8.091  0.3173  0.6210 -0.5259
   16MOL   C62410854   1.371   6.386   8.111  0.3640  0.2206  0.2557
   16MOL   C62510855   1.314   6.500   8.175 -0.0814  0.5488 -0.0639
   16MOL   C62610856   1.183   6.497   8.230  0.4609 -0.1532 -0.5519
   16MOL   O62710857   1.139   6.619   8.271  0.4888 -0.2385  0.3631
   16MOL   C62810858   1.119   6.632   0.092  0.0167 -0.0031 -0.5426
   16MOL   C62910859   0.991   6.630   0.152 -0.5998 -0.2977 -0.0364
   16MOL   C63010860   0.978   6.643   0.291 -0.1242  0.1955 -0.8624
   16MOL   C63110861   1.092   6.673   0.375 -0.2478 -0.5793  0.6173
   16MOL   C63210862   1.218   6.671   0.314 -0.4317  0.0545  0.2197
   16MOL   C63310863   1.231   6.655   0.175  0.4893  0.5201  0.2484
   16MOL   C63410864   1.114   6.376   8.225  0.1465 -0.1111 -0.5133
   16MOL   C63510865   1.163   6.268   8.151 -0.3807 -0.2988  0.1835
   16MOL   H63610866   1.597   6.174   8.098  0.1456 -2.4308  0.1941
   16MOL   H63710867   1.805   6.157   7.968  0.1385 -0.4879  0.2403
   16MOL   H63810868   1.577   6.044   7.626  1.5030 -1.2598 -0.2103
   16MOL   H63910869   1.364   6.074   7.758  0.7972  1.5364 -1.4466
   16MOL   H64010870   1.464   6.397   8.057 -0.8753  1.8102 -1.6269
   16MOL   H64110871   1.355   6.600   8.171  0.4644  0.3075 -0.6432
   16MOL   H64210872   0.904   6.615   0.089  0.4867 -1.4707 -1.2700
   16MOL   H64310873   0.879   6.637   0.333  1.0219  2.9401  2.5361
   16MOL   H64410874   1.305   6.660   0.377 -1.6073 -0.1838  1.8481
   16MOL   H64510875   1.331   6.650   0.135  1.1976  2.4872  1.6831
   16MOL   H64610876   1.013   6.365   8.261  0.6319 -2.6856  0.1401
   16MOL   H64710877   1.100   6.180   8.149  0.1410 -0.6440 -1.3164
   16MOL   C64810878   1.053   6.955   0.769 -0.6873  0.2916 -1.0739
   16MOL   C64910879   1.022   6.843   0.687  0.3242 -0.0444 -0.1025
   16MOL   C65010880   1.106   6.802   0.584 -0.2904  0.3100  0.1534
   16MOL   O65110881   1.077   6.682   0.514  0.0874  0.2495  0.2452
   16MOL   C65210882   1.220   6.880   0.557 -0.0641  0.2722 -0.6915
   16MOL   C65310883   1.253   6.988   0.638  0.1845 -0.7075  0.0309
   16MOL   C65410884   1.178   7.025   0.752 -0.0182  1.0662 -0.9439
   16MOL   C65510885   1.221   7.138   0.841 -0.2439  0.7897  0.3573
   16MOL   O65610886   1.315   7.209   0.808  0.3494  0.4966  0.6660
   16MOL   C65710887   1.136   7.179   0.955 -0.2250 -0.1891 -0.2405
   16MOL   C65810888   1.104   7.087   1.058  0.3469 -0.0743 -0.2516
   16MOL   C65910889   1.028   7.127   1.171  0.4084  0.0819  0.3743
   16MOL   C66010890   0.969   7.257   1.170  0.5192  0.1042 -0.3408
   16MOL   O66110891   0.884   7.298   1.269  0.0589 -0.2698  0.4261
   16MOL   C66210892   0.766   7.237   1.270  0.2057 -0.3609  0.0168
   16MOL   C66310893   0.747   7.132   1.360 -0.2030  0.1674  0.1511
   16MOL   C66410894   0.619   7.073   1.363 -1.6412  0.3912  0.4797
   16MOL   C66510895   0.518   7.118   1.273  0.5931 -0.1942 -0.5385
   16MOL   C66610896   0.535   7.231   1.190  0.1169 -0.8887  0.0421
   16MOL   C66710897   0.670   7.288   1.179  0.3219 -0.4372 -0.1471
   16MOL   C66810898   0.999   7.347   1.067 -0.4164 -0.0340  0.0078
   16MOL   C66910899   1.091   7.315   0.966  0.5555  0.3676  0.2868
   16MOL   H67010900   0.982   6.979   0.847  0.4616  0.4337 -0.0600
   16MOL   H67110901   0.936   6.779   0.699 -0.2210  1.2385  3.1879
   16MOL   H67210902   1.291   6.859   0.478  0.2838 -0.3763 -0.2032
   16MOL   H67310903   1.349   7.035   0.620  0.8659 -1.7865  0.7747
   16MOL   H67410904   1.137   6.986   1.042 -0.5408 -0.4899  0.5117
   16MOL   H67510905   1.007   7.051   1.245  1.8374 -2.0185 -1.3078
   16MOL   H67610906   0.825   7.105   1.430  1.3349  0.3796 -1.4567
   16MOL   H67710907   0.594   6.994   1.433 -0.2177  0.1232  0.6962
   16MOL   H67810908   0.465   7.281   1.125  1.2410 -0.0827 -0.5524
   16MOL   H67910909   0.684   7.378   1.120 -1.6915 -0.3715 -0.5617
   16MOL   H68010910   0.965   7.450   1.073  0.7736  0.4320 -1.0312
   16MOL   H68110911   1.123   7.393   0.899 -0.3751  0.6475  0.1693
   16MOL   H68210912   0.423   7.066   1.270  0.0966  0.7071 -0.8563
   17MOL     C110913   2.913   3.977   4.927  0.4022 -0.4253 -0.0160
   17MOL     C210914   2.877   3.852   4.988 -0.0824 -0.0692 -0.4983
   17MOL     C310915   2.982   3.769   5.030 -0.4088 -0.0592 -0.2592
   17MOL     O410916   2.956   3.644   5.079  0.2462 -0.2585  0.5314
   17MOL     C510917   3.119   3.810   5.029  0.5555 -0.4899  0.2067
   17MOL     C610918   3.150   3.940   4.988  0.0905  0.0277 -0.4086
   17MOL     C710919   3.047   4.026   4.936 -0.0913  0.1786 -0.1547
   17MOL     C810920   3.079   4.160   4.882 -0.1315  0.1738  0.1805
   17MOL     O910921   3.004   4.217   4.806  0.5683  0.2925  0.2279
   17MOL    C1010922   3.209   4.222   4.912 -0.1375 -0.7910 -0.7173
   17MOL    C1110923   3.276   4.296   4.810  0.9158 -0.1732 -0.0124
   17MOL    C1210924   3.391   4.369   4.842  0.5334 -0.1298  0.7093
   17MOL    C1310925   3.445   4.368   4.975  0.9556 -0.6693 -0.2431
   17MOL    O1410926   3.558   4.438   5.006  0.2627  0.1873 -0.1642
   17MOL    C1510927   3.671   4.365   5.027  0.2255 -0.1402 -0.5458
   17MOL    C1610928   3.712   4.267   4.934  0.4654 -0.1564 -0.3404
   17MOL    C1710929   3.827   4.191   4.957  0.2771 -0.2494 -0.3261
   17MOL    C1810930   3.903   4.206   5.075  0.3561 -0.0894  0.0513
   17MOL    C1910931   3.856   4.300   5.174 -0.0589 -0.0626 -0.7249
   17MOL    C2010932   3.750   4.385   5.143 -0.1893  0.2003 -0.0905
   17MOL    C2110933   3.371   4.307   5.075  0.4646 -0.4492  0.2854
   17MOL    C2210934   3.255   4.232   5.045  0.8959  0.1133 -0.0478
   17MOL    H2310935   2.832   4.033   4.885  0.5121 -0.2537  0.0028
   17MOL    H2410936   2.777   3.811   4.989  0.2645 -0.9258 -0.3030
   17MOL    H2510937   3.204   3.749   5.058  0.0718 -1.0490  0.4532
   17MOL    H2610938   3.254   3.968   4.989 -0.2143  1.2100 -1.4629
   17MOL    H2710939   3.229   4.295   4.713  1.5206 -0.4892 -0.3111
   17MOL    H2810940   3.427   4.442   4.771 -0.8721  0.1083  0.2133
   17MOL    H2910941   3.659   4.249   4.842  0.0232  0.4167 -0.2008
   17MOL    H3010942   3.851   4.113   4.886 -1.5405 -0.6112 -0.5603
   17MOL    H3110943   3.919   4.300   5.262  0.0759 -0.3891 -0.8196
   17MOL    H3210944   3.725   4.462   5.215 -1.7222  1.7517 -2.2296
   17MOL    H3310945   3.408   4.318   5.176 -0.4624  1.3427  0.4604
   17MOL    H3410946   3.225   4.177   5.133  2.5365 -1.2314 -0.2799
   17MOL    H3510947   2.863   3.633   5.090  0.2502 -0.5342  0.2919
   17MOL    C3610948   3.966   3.772   5.076  0.0352 -0.8879 -1.0524
   17MOL    C3710949   3.970   3.904   5.035  0.1148  0.0628 -0.1610
   17MOL    C3810950   3.991   4.004   5.140 -0.6265  0.5836  0.5219
   17MOL    O3910951   4.015   4.132   5.100 -0.0127 -0.6008 -0.2336
   17MOL    C4010952   3.997   3.976   5.275  0.1325  0.3220 -0.4286
   17MOL    C4110953   3.990   3.840   5.312 -0.4072  0.7127 -0.0689
   17MOL    C4210954   3.984   3.739   5.214  0.0976 -0.4411  0.7438
   17MOL    C4310955   3.982   3.598   5.253  0.0068 -0.0198 -1.3272
   17MOL    O4410956   3.881   3.532   5.248  0.3690  0.1644 -0.1145
   17MOL    C4510957   4.118   3.538   5.289 -0.4829 -0.3177 -0.1612
   17MOL    C4610958   4.230   3.618   5.329 -0.2948  0.5057  0.6413
   17MOL    C4710959   4.359   3.553   5.353 -0.5419  0.6660 -0.2489
   17MOL    C4810960   4.377   3.414   5.358  0.5217  1.0268  0.2817
   17MOL    O4910961   4.492   3.345   5.378  0.2179 -0.3252  0.0879
   17MOL    C5010962   4.606   3.413   5.402  0.4282 -0.5294  0.8945
   17MOL    C5110963   4.678   3.474   5.292  1.2413 -0.0517  0.0856
   17MOL    C5210964   4.797   3.542   5.314 -0.1218  0.0179  0.3956
   17MOL    C5310965   4.840   3.566   5.450 -0.0704 -0.0661  0.5344
   17MOL    C5410966   4.773   3.509   5.553 -0.3668 -0.0853 -0.2416
   17MOL    C5510967   4.656   3.429   5.533 -0.2632 -0.3053  0.9419
   17MOL    C5610968   4.263   3.337   5.316  0.2978 -0.2102 -0.0488
   17MOL    C5710969   4.137   3.397   5.273  0.4426 -0.5025  0.5404
   17MOL    H5810970   3.952   3.680   5.021 -1.1341 -2.3885  1.6496
   17MOL    H5910971   3.983   3.934   4.932 -0.5119 -1.2001 -0.6131
   17MOL    H6010972   4.000   4.053   5.351 -3.0580 -1.2718  1.4344
   17MOL    H6110973   3.993   3.805   5.414 -3.2444 -0.4605 -0.3475
   17MOL    H6210974   4.228   3.726   5.329  0.7851  0.5411  1.4365
   17MOL    H6310975   4.444   3.617   5.366  0.3929 -0.1259 -2.1767
   17MOL    H6410976   4.636   3.464   5.193 -0.3778  0.4903  0.7044
   17MOL    H6510977   4.850   3.577   5.227 -2.0440  2.3892  0.1598
   17MOL    H6610978   4.816   3.518   5.651 -0.6621 -1.2062  0.0038
   17MOL    H6710979   4.603   3.373   5.609 -0.0738 -2.0203 -0.1569
   17MOL    H6810980   4.275   3.230   5.308  0.4264 -0.0636 -1.9749
   17MOL    H6910981   4.054   3.335   5.244 -0.4062  1.1244 -0.5274
   17MOL    C7010982   5.202   3.398   5.324 -0.8948 -0.0762  0.4249
   17MOL    C7110983   5.107   3.452   5.411  0.1407  0.1214  0.3618
   17MOL    C7210984   5.073   3.589   5.408 -0.1450 -0.0431  0.1965
   17MOL    O7310985   4.957   3.630   5.475 -0.6054 -0.3800 -0.4008
   17MOL    C7410986   5.150   3.679   5.333 -0.2517 -0.8923 -0.4448
   17MOL    C7510987   5.260   3.629   5.252  0.3536 -0.0795  0.4429
   17MOL    C7610988   5.289   3.488   5.249  0.1469 -0.5517 -0.1780
   17MOL    C7710989   5.407   3.440   5.170 -0.0256  0.0277  0.3699
   17MOL    O7810990   5.522   3.476   5.190 -0.0923 -0.1193 -0.3100
   17MOL    C7910991   5.385   3.337   5.057  0.3888 -0.8069  0.4224
   17MOL    C8010992   5.261   3.291   5.016  0.6283  0.3067 -0.3675
   17MOL    C8110993   5.242   3.190   4.923 -0.4649  0.5397  0.8043
   17MOL    C8210994   5.355   3.136   4.863  0.6152 -0.1864  0.3597
   17MOL    O8310995   5.348   3.041   4.766  0.2906 -0.4935 -0.5486
   17MOL    C8410996   5.287   2.924   4.797  0.4640  0.0274 -0.3875
   17MOL    C8510997   5.157   2.897   4.761 -0.1526  0.0879 -0.1961
   17MOL    C8610998   5.100   2.774   4.798  0.6419 -0.6639  0.3188
   17MOL    C8710999   5.172   2.684   4.880  0.0472  0.0311 -0.0935
   17MOL    C8811000   5.305   2.707   4.912 -0.1641  0.7480  0.3545
   17MOL    C8911001   5.361   2.829   4.870 -0.1132 -0.5365 -0.2207
   17MOL    C9011002   5.478   3.189   4.893 -0.0854 -0.7104 -0.3859
   17MOL    C9111003   5.498   3.291   4.991  0.1750  0.5481  0.5750
   17MOL    H9211004   5.226   3.292   5.327  0.5431  0.1738 -1.1058
   17MOL    H9311005   5.042   3.391   5.472 -0.4969 -0.2421 -0.6792
   17MOL    H9411006   5.132   3.785   5.321  1.3594 -0.5730 -0.1927
   17MOL    H9511007   5.312   3.692   5.182  1.3634 -1.7695 -0.3567
   17MOL    H9611008   5.175   3.338   5.062  0.6616  0.0774 -0.0721
   17MOL    H9711009   5.144   3.153   4.898 -0.5947  0.3107  1.6215
   17MOL    H9811010   5.101   2.968   4.702 -1.4719 -0.7104  0.0694
   17MOL    H9911011   5.000   2.744   4.770  0.6243 -1.6996  1.4012
   17MOL   H10011012   5.377   2.649   4.968  1.0382  0.3785 -1.5226
   17MOL   H10111013   5.466   2.848   4.884 -0.1999 -0.9826  1.1060
   17MOL   H10211014   5.566   3.146   4.846  0.4637  0.7555 -0.7167
   17MOL   H10311015   5.600   3.315   5.015  1.1009 -1.3823 -1.2543
   17MOL   C10411016   5.214   2.427   5.256  0.0687  0.0872 -0.2825
   17MOL   C10511017   5.198   2.442   5.116  1.0222 -0.3776  0.5085
   17MOL   C10611018   5.126   2.555   5.071 -0.4439 -0.9452 -0.3395
   17MOL   O10711019   5.105   2.575   4.935  0.2654  0.0497 -0.2311
   17MOL   C10811020   5.076   2.650   5.161  0.6533 -1.0265 -0.0656
   17MOL   C10911021   5.097   2.633   5.301 -0.1092  0.1340 -0.2779
   17MOL   C11011022   5.168   2.525   5.350 -0.2173 -0.9684  0.2183
   17MOL   C11111023   5.213   2.521   5.493  0.2604  0.1345 -0.7063
   17MOL   O11211024   5.303   2.439   5.523 -0.2014  0.2241 -0.0186
   17MOL   C11311025   5.157   2.616   5.601  0.5197 -0.5861 -0.0827
   17MOL   C11411026   5.233   2.683   5.695 -0.4424 -0.0962 -0.2835
   17MOL   C11511027   5.180   2.770   5.794  0.3914 -0.4261  0.5497
   17MOL   C11611028   5.042   2.787   5.796 -0.7225 -0.1852 -0.0305
   17MOL   O11711029   4.977   2.876   5.885 -0.0982  0.3241 -0.0065
   17MOL   C11811030   4.850   2.843   5.931  0.0598  0.1171  0.1794
   17MOL   C11911031   4.747   2.941   5.946  0.0121  0.3428  0.3116
   17MOL   C12011032   4.616   2.898   5.982 -0.6022 -0.2264  0.5385
   17MOL   C12111033   4.592   2.764   6.010  0.5385  0.9027 -0.5002
   17MOL   C12211034   4.690   2.667   5.991 -0.5238  0.0260 -1.3334
   17MOL   C12311035   4.823   2.705   5.967 -0.1279 -0.3277  0.0397
   17MOL   C12411036   4.963   2.729   5.692  0.5479  0.3720 -0.1475
   17MOL   C12511037   5.017   2.639   5.604  0.3792 -0.4627  0.4222
   17MOL   H12611038   5.265   2.339   5.292 -0.5733 -0.6508 -1.1431
   17MOL   H12711039   5.228   2.360   5.051 -0.5437 -0.2508 -0.4095
   17MOL   H12811040   5.036   2.739   5.114 -0.4848 -1.6827 -0.3608
   17MOL   H12911041   5.062   2.711   5.367 -1.6125  0.4484 -1.4186
   17MOL   H13011042   5.340   2.669   5.695 -0.5222 -0.7866  1.4266
   17MOL   H13111043   5.244   2.818   5.866  1.6228  1.0441 -1.4929
   17MOL   H13211044   4.783   3.035   5.908  0.5383 -0.0160 -0.0798
   17MOL   H13311045   4.526   2.957   5.994 -0.1742  0.3084  1.1418
   17MOL   H13411046   4.670   2.563   6.014 -1.8088  1.1758  3.2222
   17MOL   H13511047   4.901   2.631   5.958 -2.9401 -3.2513 -1.2527
   17MOL   H13611048   4.869   2.780   5.678  0.5729  0.0634 -1.4552
   17MOL   H13711049   4.952   2.599   5.526  1.7574  0.3864 -1.1888
   17MOL   C13811050   4.447   2.474   6.304 -0.5834 -0.0153  0.2647
   17MOL   C13911051   4.467   2.534   6.175  0.1137 -0.1267 -1.3690
   17MOL   C14011052   4.445   2.670   6.159  0.3065 -0.3014 -1.1395
   17MOL   O14111053   4.462   2.721   6.037  0.1004 -0.7933  0.2983
   17MOL   C14211054   4.401   2.752   6.269 -0.5837 -1.6258 -0.1773
   17MOL   C14311055   4.392   2.697   6.399  0.0088  0.4419  0.8449
   17MOL   C14411056   4.404   2.552   6.412 -0.8005 -0.2481 -0.5085
   17MOL   C14511057   4.384   2.495   6.553 -0.5172  0.1590  0.1967
   17MOL   O14611058   4.356   2.572   6.645  0.5083 -0.3769 -0.2536
   17MOL   C14711059   4.393   2.349   6.577 -0.4796  0.2058 -0.8757
   17MOL   C14811060   4.508   2.292   6.629  0.0907 -0.3520  0.4020
   17MOL   C14911061   4.526   2.156   6.637 -0.9409 -0.3938 -0.2611
   17MOL   C15011062   4.422   2.071   6.599  0.0249 -0.3876  0.0782
   17MOL   O15111063   4.445   1.936   6.607  0.0331  0.4049  0.0270
   17MOL   C15211064   4.388   1.867   6.708 -0.3774 -0.0514  0.5597
   17MOL   C15311065   4.431   1.888   6.839  0.7820 -1.1918 -0.9488
   17MOL   C15411066   4.382   1.815   6.949 -0.3693  0.0081 -0.7185
   17MOL   C15511067   4.274   1.728   6.925 -0.4131  0.3666 -0.6352
   17MOL   C15611068   4.233   1.705   6.787  0.5212  0.0177 -0.5375
   17MOL   C15711069   4.283   1.783   6.684 -0.5301  0.3364 -0.5766
   17MOL   C15811070   4.300   2.124   6.550 -0.1282 -0.3251  0.0788
   17MOL   C15911071   4.284   2.263   6.541  0.7664  0.3295  0.4397
   17MOL   H16011072   4.462   2.368   6.317 -3.8894 -0.5089  0.6919
   17MOL   H16111073   4.508   2.476   6.094  1.3347  0.6976 -1.3629
   17MOL   H16211074   4.411   2.859   6.261 -0.4934 -1.5568  0.8359
   17MOL   H16311075   4.374   2.765   6.481 -2.9382 -1.6315  1.9834
   17MOL   H16411076   4.591   2.352   6.664  1.4429 -2.2399  0.5231
   17MOL   H16511077   4.622   2.114   6.664 -0.9802 -3.0113 -3.8214
   17MOL   H16611078   4.520   1.950   6.844  0.0340 -0.2602  2.1191
   17MOL   H16711079   4.413   1.827   7.051  0.8632 -2.4674 -0.7588
   17MOL   H16811080   4.150   1.640   6.764  0.4009  0.2777 -0.8485
   17MOL   H16911081   4.243   1.774   6.584  0.5725 -2.0256 -0.8386
   17MOL   H17011082   4.210   2.072   6.519 -0.1109  0.2113 -0.8807
   17MOL   H17111083   4.185   2.300   6.519  0.9196  0.9327  0.7386
   17MOL   C17211084   4.434   1.462   7.210  0.0852  0.2429 -1.0267
   17MOL   C17311085   4.383   1.562   7.134  0.5086 -1.0249  0.5392
   17MOL   C17411086   4.251   1.563   7.086 -0.2022  0.3168  0.1421
   17MOL   O17511087   4.200   1.672   7.024  0.0519  0.0569  0.3186
   17MOL   C17611088   4.173   1.447   7.113 -0.3339  0.0836 -0.2421
   17MOL   C17711089   4.227   1.339   7.192 -0.7128 -0.5263  0.5209
   17MOL   C17811090   4.353   1.344   7.236 -1.0163  0.2262 -0.2711
   17MOL   C17911091   4.403   1.238   7.328 -0.0226  0.0491 -0.0453
   17MOL   O18011092   4.444   1.129   7.281 -0.2996 -0.0735  0.2392
   17MOL   C18111093   4.407   1.274   7.469  0.5242  0.4957  0.1985
   17MOL   C18211094   4.344   1.381   7.523  0.1009 -0.7664  0.0997
   17MOL   C18311095   4.335   1.407   7.660 -0.0809  0.1358 -0.6013
   17MOL   C18411096   4.401   1.324   7.749  1.4835  0.5586 -0.4764
   17MOL   O18511097   4.413   1.376   7.878 -0.4547  0.0404 -0.1358
   17MOL   C18611098   4.388   1.298   7.988  0.3368 -0.6205  0.8841
   17MOL   C18711099   4.252   1.272   8.038 -0.0109  0.9568  1.2801
   17MOL   C18811100   4.238   1.181   8.141 -0.6568 -0.2295 -0.4666
   17MOL   C18911101   4.350   1.121   8.204  0.0000  0.1675  0.4471
   17MOL   C19011102   4.482   1.146   8.155  0.2471  0.2512  0.7427
   17MOL   C19111103   4.503   1.243   8.054  0.2894 -0.5284  0.0369
   17MOL   C19211104   4.471   1.212   7.694 -0.3545 -0.1228 -0.0722
   17MOL   C19311105   4.475   1.182   7.558 -0.2922 -0.1117 -0.0126
   17MOL   H19411106   4.535   1.467   7.247 -0.6039  0.5665  0.8489
   17MOL   H19511107   4.446   1.650   7.134  0.0681 -0.6953  1.5073
   17MOL   H19611108   4.069   1.451   7.086 -0.0337 -0.1755 -1.4470
   17MOL   H19711109   4.168   1.254   7.224  2.6318 -3.4554 -0.6579
   17MOL   H19811110   4.297   1.449   7.453 -0.7089 -0.6411  0.7644
   17MOL   H19911111   4.290   1.501   7.687 -1.7689 -0.7710 -0.1343
   17MOL   H20011112   4.165   1.314   7.989  1.6472  1.7719 -1.0303
   17MOL   H20111113   4.139   1.163   8.178 -0.0712  0.7928  1.6411
   17MOL   H20211114   4.562   1.098   8.210 -1.1057 -0.3098  2.2707
   17MOL   H20311115   4.600   1.271   8.015 -0.0513  0.2423 -0.2644
   17MOL   H20411116   4.520   1.145   7.764 -0.1918  0.7594  0.6693
   17MOL   H20511117   4.539   1.100   7.530 -2.9646 -1.4331 -2.5216
   17MOL   C20611118   4.514   1.077   0.281  0.4562 -0.0260  0.6493
   17MOL   C20711119   4.422   1.099   0.178 -0.5866  0.2783 -0.3953
   17MOL   C20811120   4.395   0.994   0.085 -0.8832  0.1785  0.3627
   17MOL   O20911121   4.327   1.017   8.289  0.1574  0.2921  0.4417
   17MOL   C21011122   4.458   0.870   0.104  0.8911 -0.1353 -0.8328
   17MOL   C21111123   4.532   0.838   0.215 -0.2744  0.4463 -0.3274
   17MOL   C21211124   4.566   0.946   0.303  0.5454  0.3210 -0.2826
   17MOL   C21311125   4.667   0.920   0.410 -0.0003  0.9013 -0.1298
   17MOL   O21411126   4.725   0.813   0.416 -0.5537  0.1687  0.4421
   17MOL   C21511127   4.705   1.028   0.509 -0.1401 -0.2354  0.2140
   17MOL   C21611128   4.605   1.101   0.582  0.3286 -0.3208 -0.2461
   17MOL   C21711129   4.634   1.204   0.675 -0.3516  0.0060  1.3742
   17MOL   C21811130   4.771   1.243   0.685 -0.2696  0.1242  0.5871
   17MOL   O21911131   4.802   1.353   0.756 -0.5551  0.0505 -0.1925
   17MOL   C22011132   4.843   1.337   0.889  0.4179  0.5779 -0.0656
   17MOL   C22111133   4.867   1.209   0.943  0.4192  0.1465  0.1734
   17MOL   C22211134   4.929   1.196   1.073 -0.1097 -0.2139 -0.1551
   17MOL   C22311135   4.964   1.311   1.144 -0.0923 -0.4690 -0.0481
   17MOL   C22411136   4.922   1.438   1.093 -0.2109 -0.7674  0.0014
   17MOL   C22511137   4.871   1.454   0.964 -0.0425  0.5070  0.5222
   17MOL   C22611138   4.864   1.179   0.604 -0.3300  0.4880  0.4073
   17MOL   C22711139   4.840   1.066   0.524 -0.6725  0.3450 -0.3195
   17MOL   H22811140   4.533   1.152   0.356 -2.1807  0.6902  0.6460
   17MOL   H22911141   4.376   1.197   0.180  0.6923  0.8990 -0.4196
   17MOL   H23011142   4.419   0.791   0.041  0.1231  0.2114 -0.8068
   17MOL   H23111143   4.581   0.742   0.219  0.3641  0.8080  0.8101
   17MOL   H23211144   4.499   1.081   0.572  0.5176 -1.0607 -0.8434
   17MOL   H23311145   4.555   1.254   0.729 -1.2795 -0.6436  0.6460
   17MOL   H23411146   4.838   1.120   0.890  1.7556 -0.2032  0.0090
   17MOL   H23511147   4.957   1.098   1.110 -0.0074 -0.3359 -0.5595
   17MOL   H23611148   4.952   1.527   1.147 -1.5792  0.3758 -1.0841
   17MOL   H23711149   4.845   1.551   0.924  1.5406  1.1183  0.9487
   17MOL   H23811150   4.961   1.225   0.616 -1.4585  2.4882  2.3574
   17MOL   H23911151   4.916   1.025   0.460  0.8523  4.9402 -1.6376
   17MOL   C24011152   5.318   1.083   1.332  0.3371  0.0964  0.4517
   17MOL   C24111153   5.189   1.138   1.338  0.1043  0.2169 -0.1680
   17MOL   C24211154   5.156   1.246   1.252  0.0379  0.1245 -0.2422
   17MOL   O24311155   5.037   1.306   1.260  0.4763  0.6615  0.2575
   17MOL   C24411156   5.248   1.293   1.153  0.1927 -0.4392 -0.2062
   17MOL   C24511157   5.368   1.222   1.142  0.1590 -0.1091  0.0258
   17MOL   C24611158   5.409   1.120   1.232  0.5702  0.8019 -0.2988
   17MOL   C24711159   5.548   1.064   1.237  0.9198  0.1998  0.3364
   17MOL   O24811160   5.616   1.057   1.340  0.5543 -0.4195 -0.3482
   17MOL   C24911161   5.601   1.002   1.100 -0.0746 -0.2008  0.6110
   17MOL   C25011162   5.735   1.012   1.058  0.6612  0.5434  0.0357
   17MOL   C25111163   5.770   0.947   0.937  0.0954  1.1130  0.3028
   17MOL   C25211164   5.676   0.861   0.861 -0.0041 -0.0436 -0.1657
   17MOL   O25311165   5.708   0.800   0.744 -0.9082 -0.4070  0.6911
   17MOL   C25411166   5.624   0.809   0.633  0.0795 -0.7679  0.1763
   17MOL   C25511167   5.645   0.908   0.537  0.7754 -0.5781  0.1830
   17MOL   C25611168   5.574   0.898   0.415 -0.0788  0.3541  0.8456
   17MOL   C25711169   5.471   0.802   0.396 -0.1174 -1.5495 -0.1373
   17MOL   C25811170   5.450   0.716   0.500 -0.3543  0.4366  0.0172
   17MOL   C25911171   5.525   0.710   0.614  0.4555  0.2636 -0.2705
   17MOL   C26011172   5.548   0.848   0.910  0.3973  0.5952  0.5838
   17MOL   C26111173   5.517   0.915   1.032  0.2386  0.0028 -0.5437
   17MOL   H26211174   5.346   0.994   1.386 -0.3415 -0.2916  0.1655
   17MOL   H26311175   5.110   1.087   1.393  1.9576 -1.1258  1.3378
   17MOL   H26411176   5.230   1.378   1.089  2.9069 -1.4098 -2.3864
   17MOL   H26511177   5.443   1.253   1.071  0.8067  0.2945  0.8749
   17MOL   H26611178   5.798   1.073   1.120 -1.8208  2.7943  0.4423
   17MOL   H26711179   5.872   0.952   0.902 -0.2662 -0.6911 -1.1527
   17MOL   H26811180   5.716   0.988   0.553 -0.6289  0.4782  1.1962
   17MOL   H26911181   5.584   0.976   0.342 -1.3101  1.3131  1.6728
   17MOL   H27011182   5.379   0.639   0.474 -0.2957  1.0592 -2.0800
   17MOL   H27111183   5.510   0.624   0.677 -0.6312  0.4131 -0.3250
   17MOL   H27211184   5.477   0.777   0.871 -0.8144  1.2391  1.5956
   17MOL   H27311185   5.424   0.896   1.084 -0.8620  1.2608 -2.0010
   17MOL   C27411186   5.161   1.062   0.198  0.4596 -0.3698 -0.5334
   17MOL   C27511187   5.283   0.998   0.233 -0.0377 -0.4834 -0.1421
   17MOL   C27611188   5.281   0.862   0.254  0.0550  0.2283 -0.1531
   17MOL   O27711189   5.396   0.797   0.281  0.2714 -0.1106  0.7071
   17MOL   C27811190   5.164   0.791   0.272  0.4625  0.3726  0.0791
   17MOL   C27911191   5.036   0.853   0.240  0.0666  0.5113 -0.3652
   17MOL   C28011192   5.037   0.987   0.196 -0.1503 -0.5517  0.3317
   17MOL   C28111193   4.911   1.053   0.146 -0.1190  0.0947 -0.4412
   17MOL   O28211194   4.827   0.991   0.073 -0.2558  0.2783  0.0050
   17MOL   C28311195   4.883   1.199   0.193 -0.1373 -0.1686  0.1343
   17MOL   C28411196   4.943   1.261   0.303  0.0256  0.2433 -0.6976
   17MOL   C28511197   4.904   1.383   0.363 -0.6059 -0.2420  1.4359
   17MOL   C28611198   4.803   1.457   0.301  0.1273  0.0483  0.0321
   17MOL   O28711199   4.760   1.576   0.366 -0.1788 -0.5535  0.3270
   17MOL   C28811200   4.672   1.568   0.471 -0.2198 -0.6158  0.2248
   17MOL   C28911201   4.548   1.504   0.466 -0.4836  0.3120  0.1943
   17MOL   C29011202   4.463   1.499   0.584 -0.0318 -0.4954  0.1008
   17MOL   C29111203   4.505   1.569   0.698 -0.5389  0.3514  0.4110
   17MOL   C29211204   4.627   1.637   0.701 -1.0221  0.0185  0.2148
   17MOL   C29311205   4.711   1.635   0.589 -0.3644  0.0353  0.9610
   17MOL   C29411206   4.743   1.406   0.186  1.1882  0.2338  0.3664
   17MOL   C29511207   4.776   1.273   0.142  0.0469 -0.5152 -0.2264
   17MOL   H29611208   5.174   1.166   0.175  0.3521 -0.3666 -0.5792
   17MOL   H29711209   5.381   1.044   0.237 -0.3726  0.1492  0.8766
   17MOL   H29811210   5.172   0.689   0.308 -1.2050  0.6091  1.1571
   17MOL   H29911211   4.945   0.795   0.242 -0.1065  0.7187 -1.7825
   17MOL   H30011212   5.020   1.206   0.355 -1.5253 -0.5745  0.7872
   17MOL   H30111213   4.941   1.408   0.462  0.1759  2.9876  0.3777
   17MOL   H30211214   4.504   1.465   0.376  0.1108 -0.7125  0.3538
   17MOL   H30311215   4.361   1.465   0.582 -0.3781  0.3953  1.7872
   17MOL   H30411216   4.657   1.692   0.789  5.0834 -2.2854 -0.1525
   17MOL   H30511217   4.802   1.692   0.595 -1.2712  1.5288  0.9408
   17MOL   H30611218   4.663   1.458   0.135  1.4166  1.5129  1.2963
   17MOL   H30711219   4.717   1.237   0.059 -2.6441  1.5243  0.7178
   17MOL   C30811220   4.385   1.849   1.054  0.5850  0.2442 -1.0370
   17MOL   C30911221   4.406   1.725   0.994 -0.1916  0.1283  0.0384
   17MOL   C31011222   4.398   1.710   0.854  0.1043  0.8532  0.8057
   17MOL   O31111223   4.418   1.587   0.801  0.5058 -0.8291  0.3821
   17MOL   C31211224   4.378   1.822   0.775  0.0804 -0.4865  0.2966
   17MOL   C31311225   4.373   1.948   0.831  0.0164  0.0945  0.1149
   17MOL   C31411226   4.371   1.962   0.969 -0.6333  0.1730 -0.3833
   17MOL   C31511227   4.347   2.092   1.037 -0.2246 -1.1048  0.0724
   17MOL   O31611228   4.269   2.101   1.131 -0.1749  0.0642  0.0172
   17MOL   C31711229   4.404   2.214   0.971  0.5734 -0.9669 -0.0995
   17MOL   C31811230   4.318   2.319   0.930 -0.2689  0.7077 -0.4645
   17MOL   C31911231   4.375   2.439   0.888  0.0305 -0.2132 -0.3778
   17MOL   C32011232   4.514   2.462   0.885  0.5212  0.4710 -0.4292
   17MOL   O32111233   4.567   2.589   0.862  0.3227 -0.6757 -0.2582
   17MOL   C32211234   4.552   2.681   0.962  0.3430 -0.4050 -0.0696
   17MOL   C32311235   4.485   2.804   0.926  0.7088  0.9674 -0.3098
   17MOL   C32411236   4.469   2.905   1.029  0.1841 -0.2675  1.1935
   17MOL   C32511237   4.516   2.878   1.158  0.3691 -0.1646 -0.3982
   17MOL   C32611238   4.593   2.762   1.182 -0.2388 -0.0032  0.1435
   17MOL   C32711239   4.604   2.665   1.091  1.0077  0.7661  0.4591
   17MOL   C32811240   4.595   2.352   0.918  0.0206 -0.1164 -0.0269
   17MOL   C32911241   4.541   2.228   0.958  0.3908 -0.2508  0.1994
   17MOL   H33011242   4.379   1.853   1.161 -0.6364  0.0873 -1.0817
   17MOL   H33111243   4.438   1.642   1.056  2.0744 -0.2479 -1.5736
   17MOL   H33211244   4.380   1.816   0.667 -0.4336 -0.7606  0.3014
   17MOL   H33311245   4.361   2.038   0.773  0.2328  1.0576  1.5271
   17MOL   H33411246   4.213   2.300   0.943  0.3266 -1.8485  1.0198
   17MOL   H33511247   4.303   2.517   0.866  0.7529  0.9177  1.1479
   17MOL   H33611248   4.464   2.823   0.822  2.6755  0.2009 -0.8655
   17MOL   H33711249   4.418   2.997   1.006  1.6281  0.1515 -0.3201
   17MOL   H33811250   4.634   2.745   1.280 -0.8508  1.0017  0.5872
   17MOL   H33911251   4.663   2.575   1.098  0.4043  0.4059  0.9026
   17MOL   H34011252   4.702   2.361   0.927  0.1890 -0.7194 -1.2158
   17MOL   H34111253   4.607   2.159   1.008  2.0301  2.2629  1.6294
   17MOL   C34211254   4.135   2.962   1.330 -0.0237  0.2850 -0.6169
   17MOL   C34311255   4.267   2.910   1.298  0.5822  0.6299 -0.4450
   17MOL   C34411256   4.375   2.998   1.293 -0.1327 -0.3886  0.6109
   17MOL   O34511257   4.501   2.957   1.267 -0.7299 -0.4371 -0.2829
   17MOL   C34611258   4.357   3.133   1.333 -0.3207 -0.5971 -0.2854
   17MOL   C34711259   4.226   3.184   1.363  0.0030  0.5115  0.6391
   17MOL   C34811260   4.112   3.098   1.366 -0.1709  0.2237  0.2676
   17MOL   C34911261   3.986   3.161   1.397 -0.2509  0.4905  0.0293
   17MOL   O35011262   3.937   3.258   1.339 -0.4956 -0.1176 -0.4377
   17MOL   C35111263   3.904   3.116   1.516  0.4017  0.0876  0.5399
   17MOL   C35211264   3.789   3.185   1.568  0.1198  0.4220 -0.2295
   17MOL   C35311265   3.715   3.138   1.680 -0.4537  0.4197  0.3366
   17MOL   C35411266   3.755   3.025   1.748  0.0123  0.1040 -0.3518
   17MOL   O35511267   3.676   2.995   1.856  0.2140 -0.2496  0.2410
   17MOL   C35611268   3.614   2.872   1.866 -0.5387 -0.1379  0.1451
   17MOL   C35711269   3.666   2.773   1.948 -0.2022 -0.4791  0.3339
   17MOL   C35811270   3.614   2.640   1.950 -0.2385  0.3362  0.3227
   17MOL   C35911271   3.499   2.614   1.873 -0.7993  0.9695 -0.5597
   17MOL   C36011272   3.444   2.711   1.785  0.4401  0.8131  0.3325
   17MOL   C36111273   3.508   2.839   1.781 -0.0628  0.7295  0.5153
   17MOL   C36211274   3.872   2.956   1.710  0.5806 -0.4968 -1.4824
   17MOL   C36311275   3.942   3.002   1.586  0.0420 -0.3593  0.0298
   17MOL   H36411276   4.059   2.884   1.332 -1.1170  1.3657  1.6036
   17MOL   H36511277   4.280   2.805   1.278 -1.9469 -0.2755  2.4064
   17MOL   H36611278   4.445   3.196   1.335 -0.2881 -0.5907 -1.3779
   17MOL   H36711279   4.208   3.288   1.385  0.8707 -0.1811  4.8966
   17MOL   H36811280   3.763   3.272   1.510  1.0412 -0.9720 -2.8097
   17MOL   H36911281   3.623   3.191   1.702 -2.3272 -3.2051  1.6562
   17MOL   H37011282   3.749   2.787   2.017 -0.0360 -0.5009  0.1408
   17MOL   H37111283   3.643   2.557   2.012  2.4901 -0.5431 -2.0182
   17MOL   H37211284   3.351   2.688   1.736  2.2076 -2.1120 -1.8581
   17MOL   H37311285   3.465   2.916   1.718 -0.7557 -0.5743 -0.6273
   17MOL   H37411286   3.906   2.875   1.772  0.7298  0.7068  0.0464
   17MOL   H37511287   4.025   2.937   1.566 -0.1084 -0.9732  1.2929
   17MOL   C37611288   3.632   2.185   1.838 -0.3187 -1.1000 -0.5521
   17MOL   C37711289   3.581   2.306   1.892  0.6599  0.6032 -0.2392
   17MOL   C37811290   3.488   2.381   1.820 -0.0091 -0.2738  0.1373
   17MOL   O37911291   3.432   2.492   1.881  0.5179  0.3988 -0.9041
   17MOL   C38011292   3.426   2.323   1.706 -0.0498 -0.1043 -0.0186
   17MOL   C38111293   3.480   2.198   1.659 -0.1011 -0.1672  0.5502
   17MOL   C38211294   3.587   2.133   1.721 -0.4788  0.1931 -0.1543
   17MOL   C38311295   3.656   2.015   1.657  0.2449 -0.2035  1.0474
   17MOL   O38411296   3.673   2.019   1.538 -0.3261 -0.1206 -0.2379
   17MOL   C38511297   3.697   1.897   1.741 -0.2072 -0.3859 -0.1451
   17MOL   C38611298   3.798   1.808   1.692  0.3601 -0.3987  0.4335
   17MOL   C38711299   3.832   1.693   1.767  0.3480  0.0931 -0.2782
   17MOL   C38811300   3.792   1.684   1.898  0.2589  0.8609  0.0088
   17MOL   O38911301   3.849   1.580   1.968  0.0000 -0.2296 -0.7457
   17MOL   C39011302   3.826   1.447   1.941 -0.0823 -0.2204 -0.2030
   17MOL   C39111303   3.707   1.379   1.984  0.5920 -0.0563 -0.2089
   17MOL   C39211304   3.688   1.248   1.943  0.3503 -0.2572 -0.6223
   17MOL   C39311305   3.783   1.178   1.865  0.4873 -0.2728 -0.7634
   17MOL   C39411306   3.899   1.240   1.822  0.7262  0.0002  0.5647
   17MOL   C39511307   3.922   1.378   1.857 -0.8535 -0.5226  0.3729
   17MOL   C39611308   3.695   1.770   1.955  0.0691 -0.4650  0.7172
   17MOL   C39711309   3.645   1.874   1.873  0.4728 -0.2751  0.1854
   17MOL   H39811310   3.701   2.126   1.896 -0.3647 -0.8773 -0.2656
   17MOL   H39911311   3.618   2.350   1.984 -1.0599  1.3682  0.1083
   17MOL   H40011312   3.346   2.368   1.650  1.1519  1.1442 -0.7559
   17MOL   H40111313   3.433   2.142   1.579  2.3838 -1.5866  0.0565
   17MOL   H40211314   3.839   1.818   1.592  0.3855 -2.0468  0.2652
   17MOL   H40311315   3.889   1.611   1.728 -1.4981 -1.0084 -0.7349
   17MOL   H40411316   3.641   1.438   2.046  1.3217  0.4554  0.1008
   17MOL   H40511317   3.601   1.186   1.961  0.0026  0.7067  1.1886
   17MOL   H40611318   3.966   1.186   1.756  0.1470  0.2854 -0.2570
   17MOL   H40711319   4.013   1.420   1.818  0.4042 -0.3986  3.2843
   17MOL   H40811320   3.657   1.749   2.054  1.6841  2.8442  2.1267
   17MOL   H40911321   3.568   1.940   1.909  0.3482 -1.4835  2.2487
   17MOL   C41011322   3.784   0.833   2.111 -0.1844 -0.0679 -0.4684
   17MOL   C41111323   3.766   0.947   2.032 -0.5104  0.1829 -0.5572
   17MOL   C41211324   3.767   0.937   1.894  0.4284  0.0627 -0.3392
   17MOL   O41311325   3.756   1.052   1.816 -0.2814  0.4940 -0.0004
   17MOL   C41411326   3.787   0.810   1.830 -0.5415  0.3151  0.1845
   17MOL   C41511327   3.788   0.697   1.910 -0.3880  0.3147  0.1338
   17MOL   C41611328   3.794   0.706   2.051  0.0367  0.1481  0.3450
   17MOL   C41711329   3.830   0.575   2.120 -0.0890  0.2212 -0.6404
   17MOL   O41811330   3.918   0.502   2.070 -0.1676 -0.4464  0.1999
   17MOL   C41911331   3.751   0.535   2.243  0.4578  0.1844  0.3364
   17MOL   C42011332   3.635   0.609   2.287 -0.0469  0.1171  0.1463
   17MOL   C42111333   3.567   0.567   2.403 -0.4804 -0.8596 -0.5174
   17MOL   C42211334   3.618   0.462   2.479 -0.1322 -0.8356  1.0335
   17MOL   O42311335   3.560   0.431   2.603  0.2959 -0.1660 -0.2064
   17MOL   C42411336   3.655   0.437   2.702  0.8773 -0.5781  0.1721
   17MOL   C42511337   3.731   0.324   2.745  0.2965 -0.0994  0.7331
   17MOL   C42611338   3.809   0.338   2.862  0.1627  0.2659 -0.3887
   17MOL   C42711339   3.821   0.458   2.931  0.2985  0.2572 -0.9499
   17MOL   C42811340   3.745   0.570   2.885  1.3525 -0.3576  0.0683
   17MOL   C42911341   3.667   0.559   2.774  0.3307  0.0498 -0.0923
   17MOL   C43011342   3.727   0.381   2.429  0.3043  0.2094  0.0803
   17MOL   C43111343   3.786   0.421   2.314 -0.1805 -0.0417  0.3337
   17MOL   H43211344   3.787   0.846   2.218  0.3394 -2.0605 -0.2242
   17MOL   H43311345   3.750   1.039   2.085  2.7764  0.9686 -0.8212
   17MOL   H43411346   3.793   0.812   1.723 -0.6592  0.1980  0.1755
   17MOL   H43511347   3.814   0.602   1.865  1.5258 -0.9800  3.7185
   17MOL   H43611348   3.592   0.695   2.239  1.6159  1.1723  0.4881
   17MOL   H43711349   3.472   0.609   2.434  1.9946  4.8632 -0.2077
   17MOL   H43811350   3.729   0.228   2.695  2.4701 -0.0900  0.5683
   17MOL   H43911351   3.866   0.255   2.899  0.8611  0.5673 -0.7756
   17MOL   H44011352   3.764   0.662   2.939  0.0493 -0.3660  0.5614
   17MOL   H44111353   3.598   0.639   2.749 -0.9391 -1.5532 -1.7935
   17MOL   H44211354   3.761   0.296   2.487 -1.0370 -1.4945 -1.5832
   17MOL   H44311355   3.870   0.360   2.284 -1.5839 -0.4153 -3.1426
   17MOL   C44411356   4.045   0.776   3.178  1.0539  0.0701 -0.4198
   17MOL   C44511357   3.950   0.681   3.141  0.7940  0.5950 -0.5996
   17MOL   C44611358   3.984   0.566   3.065  0.1298  0.4032 -0.0059
   17MOL   O44711359   3.889   0.467   3.049 -0.2525 -0.0259  0.0293
   17MOL   C44811360   4.117   0.550   3.030 -0.1355  0.2641  0.0944
   17MOL   C44911361   4.215   0.643   3.073  0.6231 -0.0909  0.6714
   17MOL   C45011362   4.184   0.752   3.153 -0.0075  0.0371  0.0407
   17MOL   C45111363   4.285   0.853   3.196 -0.6624 -0.1218  0.6041
   17MOL   O45211364   4.257   0.968   3.232  0.0593  0.0370 -0.2528
   17MOL   C45311365   4.427   0.821   3.167  0.0999  0.0718 -0.2864
   17MOL   C45411366   4.525   0.805   3.272 -0.0847 -0.5440 -0.2272
   17MOL   C45511367   4.662   0.799   3.247 -0.4704  0.0875  0.0406
   17MOL   C45611368   4.712   0.803   3.114  0.6696 -0.2388  0.4108
   17MOL   O45711369   4.846   0.800   3.084  0.1759 -0.2042  0.1815
   17MOL   C45811370   4.884   0.684   3.026 -0.3408 -0.4759  0.1534
   17MOL   C45911371   4.902   0.672   2.890 -0.5946  0.4049 -0.0741
   17MOL   C46011372   4.952   0.552   2.830 -0.6762 -0.8404 -0.7579
   17MOL   C46111373   4.991   0.440   2.912 -0.3820 -0.8983 -0.2783
   17MOL   C46211374   4.972   0.464   3.054 -1.2437  0.2847  0.4033
   17MOL   C46311375   4.918   0.580   3.111 -0.3078 -0.0758  0.2440
   17MOL   C46411376   4.617   0.809   3.009 -0.0355  0.3235  0.5798
   17MOL   C46511377   4.482   0.826   3.033  0.1632  0.0466 -0.4718
   17MOL   H46611378   4.007   0.862   3.231 -2.2327 -0.7018 -1.3829
   17MOL   H46711379   3.846   0.673   3.170  1.1368 -1.4860  0.1566
   17MOL   H46811380   4.158   0.475   2.964  1.4991  1.4147 -0.2402
   17MOL   H46911381   4.315   0.627   3.035  0.3580  0.3522 -0.2228
   17MOL   H47011382   4.500   0.804   3.378  2.3263 -0.9653  0.3561
   17MOL   H47111383   4.729   0.786   3.330  0.4587 -3.9772 -1.2042
   17MOL   H47211384   4.891   0.754   2.821 -0.7399  0.6294  0.2169
   17MOL   H47311385   4.957   0.543   2.723 -1.1636 -1.0449 -0.7655
   17MOL   H47411386   4.991   0.383   3.123 -1.3274 -0.1731 -0.1001
   17MOL   H47511387   4.907   0.587   3.219  0.0493  0.9059  0.2164
   17MOL   H47611388   4.658   0.812   2.909  0.9641  0.7580  0.9871
   17MOL   H47711389   4.419   0.850   2.948 -1.0076 -2.3141 -0.3171
   17MOL   C47811390   5.373   0.421   2.719  0.7335 -0.2927 -0.6239
   17MOL   C47911391   5.244   0.439   2.773 -0.2600  0.1907  0.4581
   17MOL   C48011392   5.172   0.323   2.809 -0.3882 -0.5702 -0.4345
   17MOL   O48111393   5.041   0.325   2.854 -0.3201 -0.8833  0.2331
   17MOL   C48211394   5.232   0.196   2.812  0.1097 -0.3904  0.6582
   17MOL   C48311395   5.362   0.184   2.760  0.2793 -0.0196 -0.3467
   17MOL   C48411396   5.434   0.297   2.713  0.2105 -1.5045 -0.0752
   17MOL   C48511397   5.570   0.286   2.654 -0.0108 -0.1104  0.7827
   17MOL   O48611398   5.660   0.371   2.675  0.5875 -0.1044 -0.1736
   17MOL   C48711399   5.601   0.161   2.578  0.0074  1.1563  0.1807
   17MOL   C48811400   5.539   0.125   2.455  0.6924  0.2167  0.1466
   17MOL   C48911401   5.568   0.001   2.394  0.4135  0.7538  0.4595
   17MOL   C49011402   5.663   8.223   2.448 -0.1280 -0.0898 -0.9267
   17MOL   O49111403   5.689   8.103   2.383 -0.1462 -0.1406  0.4198
   17MOL   C49211404   5.817   8.060   2.381 -0.6034  0.4288 -0.4223
   17MOL   C49311405   5.923   8.141   2.340 -0.6788 -0.1723  0.9106
   17MOL   C49411406   6.050   8.090   2.333  0.4688 -0.7127  0.3179
   17MOL   C49511407   6.069   7.954   2.355  0.2925  0.6898  0.5890
   17MOL   C49611408   5.968   7.875   2.402 -0.0920  0.4003 -0.5448
   17MOL   C49711409   5.847   7.933   2.430 -0.4612 -0.2650 -0.0464
   17MOL   C49811410   5.724   8.252   2.570 -0.8288 -0.3549  0.2425
   17MOL   C49911411   5.699   0.066   2.631 -0.1822 -0.8976  0.4336
   17MOL   H50011412   5.426   0.509   2.686 -0.9964  1.5183  1.2933
   17MOL   H50111413   5.204   0.540   2.770  0.4966  0.4952  0.3543
   17MOL   H50211414   5.172   0.111   2.840 -2.1300  0.8711 -0.1562
   17MOL   H50311415   5.417   0.090   2.757  0.3801  0.0194  0.2702
   17MOL   H50411416   5.475   0.192   2.399  0.7555  1.0365  1.0321
   17MOL   H50511417   5.528   8.284   2.298 -0.6135  0.8548  0.8463
   17MOL   H50611418   5.903   8.247   2.328  0.9816 -0.1093 -1.6989
   17MOL   H50711419   6.130   8.154   2.300 -2.5343  2.4925 -1.0095
   17MOL   H50811420   5.989   7.776   2.438 -0.8500 -0.1302 -1.5380
   17MOL   H50911421   5.767   7.879   2.478 -1.0622  2.0231  1.5945
   17MOL   H51011422   5.790   8.174   2.605 -0.4608 -0.0174  0.3095
   17MOL   H51111423   5.744   0.091   2.726 -1.4681  1.8472  0.3718
   17MOL   C51211424   6.470   7.985   2.542  0.1437  0.6308  0.5253
   17MOL   C51311425   6.350   7.917   2.505  0.3409  0.2229 -0.8707
   17MOL   C51411426   6.305   7.945   2.371 -0.1200  0.5329 -0.0057
   17MOL   O51511427   6.190   7.893   2.319 -0.3166  0.1617 -0.1141
   17MOL   C51611428   6.370   8.035   2.286 -0.5107  0.7164 -0.5367
   17MOL   C51711429   6.493   8.089   2.322  0.4283 -0.1663  0.1218
   17MOL   C51811430   6.539   8.073   2.452 -0.1090 -0.1971  0.3926
   17MOL   C51911431   6.654   8.147   2.503 -0.4196 -0.9314 -0.8405
   17MOL   O52011432   6.765   8.097   2.476  0.4299 -0.2010 -0.7084
   17MOL   C52111433   6.636   8.275   2.567 -0.0963 -0.3130  0.6407
   17MOL   C52211434   6.507   0.019   2.582  0.2584  0.0536 -0.0627
   17MOL   C52311435   6.494   0.147   2.635 -0.5533  0.0085 -0.5081
   17MOL   C52411436   6.603   0.229   2.664  0.1947 -0.0900 -0.1536
   17MOL   O52511437   6.587   0.362   2.689  0.1156 -0.3502 -0.1056
   17MOL   C52611438   6.663   0.451   2.620  0.0881 -1.1234  0.1004
   17MOL   C52711439   6.725   0.556   2.690 -0.4895  0.0843 -0.1719
   17MOL   C52811440   6.811   0.643   2.621  0.7415  0.2341 -0.4749
   17MOL   C52911441   6.846   0.618   2.485  0.0859 -0.1578  0.2081
   17MOL   C53011442   6.774   0.523   2.412 -0.3325  0.2749 -0.0743
   17MOL   C53111443   6.684   0.439   2.482 -0.4112 -0.2959 -0.0027
   17MOL   C53211444   6.731   0.174   2.654  0.6255 -0.1100  0.2681
   17MOL   C53311445   6.740   0.040   2.611  0.0770  0.5742 -0.1706
   17MOL   H53411446   6.513   7.983   2.641 -1.0395 -1.0486  1.0189
   17MOL   H53511447   6.304   7.851   2.577 -0.2322  0.1792 -1.2760
   17MOL   H53611448   6.331   8.048   2.186 -2.5597  0.5891  0.2176
   17MOL   H53711449   6.543   8.159   2.258 -0.0445  1.8371  1.8772
   17MOL   H53811450   6.426   8.273   2.543  0.7653 -2.2949  2.2781
   17MOL   H53911451   6.401   0.202   2.639 -1.5532 -1.6432 -0.4099
   17MOL   H54011452   6.708   0.568   2.796  0.1417 -0.7360  0.0320
   17MOL   H54111453   6.862   0.721   2.675 -1.3310  1.5644 -0.4284
   17MOL   H54211454   6.774   0.519   2.304 -0.6512 -0.1821 -0.0613
   17MOL   H54311455   6.620   0.364   2.439 -0.9355  0.1259  0.0318
   17MOL   H54411456   6.820   0.228   2.683  0.9055  0.1297 -0.9688
   17MOL   H54511457   6.838   8.308   2.600 -0.6649 -0.8106 -1.2670
   17MOL   C54611458   7.207   0.542   2.240 -0.1923  0.5126 -0.5124
   17MOL   C54711459   7.092   0.609   2.268 -0.0510 -0.8395  0.0188
   17MOL   C54811460   7.067   0.653   2.400  0.0542 -0.3630 -0.0307
   17MOL   O54911461   6.941   0.703   2.430 -0.0694 -0.3383 -0.1589
   17MOL   C55011462   7.155   0.629   2.504 -0.0256  0.7110 -0.0080
   17MOL   C55111463   7.282   0.568   2.472 -0.0757  0.0958 -0.8207
   17MOL   C55211464   7.301   0.516   2.344 -0.9443 -0.6168 -0.4091
   17MOL   C55311465   7.421   0.434   2.319 -0.5363  0.2667  0.1302
   17MOL   O55411466   7.408   0.319   2.280  0.8667  0.5033  0.5811
   17MOL   C55511467   7.554   0.494   2.346  0.3375  0.1330 -0.4712
   17MOL   C55611468   7.569   0.634   2.330 -0.3926  0.2051 -0.0755
   17MOL   C55711469   7.700   0.686   2.345 -1.0155 -0.0811  0.5870
   17MOL   C55811470   7.814   0.604   2.360  0.4539  0.0087 -0.4190
   17MOL   O55911471   7.939   0.656   2.388 -0.0657  1.1950 -0.2693
   17MOL   C56011472   7.978   0.777   2.353  0.8198 -0.6036  0.2227
   17MOL   C56111473   8.006   0.873   2.453  0.0202  1.0598  0.5632
   17MOL   C56211474   8.059   0.996   2.407  0.0985  0.4874  0.2613
   17MOL   C56311475   8.068   1.027   2.271 -0.0871 -0.9079 -0.3922
   17MOL   C56411476   8.035   0.930   2.174 -0.5005 -0.2474  0.4134
   17MOL   C56511477   7.991   0.803   2.217 -0.1103 -0.1977  0.0396
   17MOL   C56611478   7.796   0.462   2.359  0.3162 -0.3990 -0.6260
   17MOL   C56711479   7.665   0.415   2.353 -0.0764  0.4922 -0.1449
   17MOL   H56811480   7.229   0.506   2.141 -0.2132  2.2307 -1.1639
   17MOL   H56911481   7.019   0.609   2.188 -1.8866  0.9280  1.6155
   17MOL   H57011482   7.123   0.660   2.603 -0.2193  0.3815  0.0320
   17MOL   H57111483   7.351   0.555   2.554  0.0197  2.3999 -0.5126
   17MOL   H57211484   7.494   0.707   2.302  0.1267  1.1401  0.9534
   17MOL   H57311485   7.715   0.793   2.347  1.7588 -0.4156  0.8560
   17MOL   H57411486   8.007   0.844   2.557  2.3821  1.9418  0.8162
   17MOL   H57511487   8.094   1.072   2.475  3.1404 -0.0899 -0.6063
   17MOL   H57611488   8.048   0.949   2.069 -1.5842 -0.4055  0.2458
   17MOL   H57711489   7.969   0.724   2.147  0.8481 -1.9237  1.6200
   17MOL   H57811490   7.884   0.400   2.360  1.2081  0.8601  1.4474
   17MOL   H57911491   7.651   0.308   2.355 -1.5613  0.6671 -0.8481
   17MOL   C58011492   7.873   1.290   1.983  0.2351 -0.5413 -0.2670
   17MOL   C58111493   7.983   1.215   2.039 -0.1748 -0.0067  0.0209
   17MOL   C58211494   8.009   1.220   2.179  0.4800 -0.1423 -0.2570
   17MOL   O58311495   8.114   1.154   2.237 -0.0312  0.3077 -0.0454
   17MOL   C58411496   7.921   1.298   2.259 -0.2210  0.3704  0.3983
   17MOL   C58511497   7.815   1.364   2.201 -0.5947 -0.6529 -0.2573
   17MOL   C58611498   7.787   1.365   2.065 -0.0047 -0.3126  0.1277
   17MOL   C58711499   7.667   1.428   2.006 -0.4848 -0.2335 -0.2103
   17MOL   O58811500   7.665   1.460   1.884  0.0624  0.4632  0.2727
   17MOL   C58911501   7.545   1.458   2.093 -1.0055 -0.1039  0.0164
   17MOL   C59011502   7.445   1.553   2.066 -0.4222 -0.4800  0.2441
   17MOL   C59111503   7.339   1.576   2.161 -0.3617 -0.0422 -0.7057
   17MOL   C59211504   7.333   1.504   2.286  0.3444  0.5076  0.5982
   17MOL   O59311505   7.240   1.519   2.382 -0.7011 -0.5385 -0.0338
   17MOL   C59411506   7.115   1.486   2.346 -0.1024 -0.4080 -0.3538
   17MOL   C59511507   7.081   1.366   2.282 -0.3747 -0.2856 -0.8870
   17MOL   C59611508   6.946   1.338   2.251  0.1944 -0.8556  0.2211
   17MOL   C59711509   6.839   1.422   2.294  0.6468  0.4635  0.5492
   17MOL   C59811510   6.879   1.535   2.367 -0.2422 -0.5615 -0.4789
   17MOL   C59911511   7.008   1.571   2.381 -0.0140 -0.2513 -0.3901
   17MOL   C60011512   7.422   1.394   2.302 -0.2382 -0.5579  0.2248
   17MOL   C60111513   7.522   1.367   2.206 -0.1802  0.5753  0.4518
   17MOL   H60211514   7.853   1.303   1.878 -2.4108 -1.9530  0.0314
   17MOL   H60311515   8.046   1.157   1.974 -0.2305 -1.1957  0.9917
   17MOL   H60411516   7.919   1.292   2.367 -2.9246  0.7221  0.3990
   17MOL   H60511517   7.756   1.419   2.273  0.0840  0.6653 -0.6903
   17MOL   H60611518   7.446   1.608   1.973 -1.0068  0.1552  0.6003
   17MOL   H60711519   7.264   1.652   2.140 -1.9511 -0.7230  2.2179
   17MOL   H60811520   7.165   1.312   2.240  1.5708  2.2591 -0.3348
   17MOL   H60911521   6.920   1.256   2.186  2.1689 -0.2321 -1.4221
   17MOL   H61011522   6.812   1.611   2.406  0.9093 -0.3577  1.1232
   17MOL   H61111523   7.027   1.655   2.447 -0.9977 -1.6432  1.7173
   17MOL   H61211524   7.424   1.331   2.390  2.0111  1.8663  2.0014
   17MOL   H61311525   7.583   1.280   2.225 -1.0692 -0.5470 -1.7192
   17MOL   C61411526   6.406   1.589   2.299  0.0241  0.4015  0.3763
   17MOL   C61511527   6.499   1.482   2.314  0.2485 -0.0983 -0.2491
   17MOL   C61611528   6.624   1.485   2.245 -0.1562  0.3446  0.1111
   17MOL   O61711529   6.714   1.383   2.258  0.1224  0.1047  0.0082
   17MOL   C61811530   6.652   1.584   2.145 -0.1295  0.1818  0.0146
   17MOL   C61911531   6.550   1.682   2.121  0.0847  0.2540  0.5021
   17MOL   C62011532   6.424   1.680   2.195  0.1592 -0.1901 -0.3860
   17MOL   C62111533   6.313   1.784   2.165  0.1549  0.5908  0.4479
   17MOL   O62211534   6.344   1.900   2.127  0.3786 -0.0878  0.6855
   17MOL   C62311535   6.174   1.740   2.186  0.6039  0.2796 -0.7554
   17MOL   C62411536   6.142   1.620   2.132  0.5046  0.3257 -0.0433
   17MOL   C62511537   6.012   1.564   2.155  0.4560 -0.6605  0.7235
   17MOL   C62611538   5.920   1.645   2.228 -0.2741 -0.1943  0.6793
   17MOL   O62711539   5.798   1.583   2.252  0.0586 -0.3413 -0.0626
   17MOL   C62811540   5.688   1.653   2.260 -0.5727 -0.3332 -0.2303
   17MOL   C62911541   5.627   1.717   2.146  0.9754 -0.7301  0.1075
   17MOL   C63011542   5.496   1.765   2.164  0.1930  0.2572  0.2013
   17MOL   C63111543   5.428   1.772   2.287  0.2617 -1.3728  0.2041
   17MOL   C63211544   5.491   1.716   2.397 -1.4926 -0.0958 -0.1849
   17MOL   C63311545   5.622   1.667   2.385 -0.8513 -0.5958 -0.1401
   17MOL   C63411546   5.955   1.775   2.270  0.4065 -0.3078  0.3482
   17MOL   C63511547   6.087   1.822   2.256  0.2583  0.2074 -0.7566
   17MOL   H63611548   6.308   1.580   2.343  1.1836 -2.6210  2.5176
   17MOL   H63711549   6.484   1.397   2.379  2.9693  1.3627  2.4383
   17MOL   H63811550   6.747   1.582   2.093  0.1324 -0.8348  0.5238
   17MOL   H63911551   6.558   1.754   2.041 -1.1498 -2.3289 -2.0318
   17MOL   H64011552   6.213   1.565   2.073  1.3269 -1.4065  2.5031
   17MOL   H64111553   5.973   1.472   2.115 -0.9573  0.2373  0.0138
   17MOL   H64211554   5.671   1.709   2.048 -1.2597  1.9195 -1.1790
   17MOL   H64311555   5.453   1.815   2.078  0.6268 -0.9481 -0.7340
   17MOL   H64411556   5.434   1.704   2.488 -0.5642  0.3567  0.4646
   17MOL   H64511557   5.670   1.612   2.466 -0.9607 -0.6000 -0.0778
   17MOL   H64611558   5.894   1.838   2.333  1.5725  0.8415  0.3677
   17MOL   H64711559   6.128   1.917   2.287 -0.0433  0.7272 -1.9535
   17MOL   C64811560   5.082   1.546   2.185  0.1214  0.4028  0.1101
   17MOL   C64911561   5.189   1.611   2.248  0.3486 -0.5753 -0.5432
   17MOL   C65011562   5.199   1.755   2.243  0.3012  0.3023 -0.7028
   17MOL   O65111563   5.298   1.822   2.303  0.0677  0.0199 -0.4853
   17MOL   C65211564   5.098   1.829   2.182 -0.7290 -0.7897  0.6568
   17MOL   C65311565   4.994   1.758   2.120 -0.7886  0.3456 -0.5032
   17MOL   C65411566   4.982   1.616   2.111 -0.6533  0.3098 -0.2561
   17MOL   C65511567   4.876   1.550   2.025  0.8581 -0.6671  0.0688
   17MOL   O65611568   4.768   1.599   2.012  0.1391  0.6768 -0.3557
   17MOL   C65711569   4.905   1.420   1.951 -0.0779 -0.7213 -0.0653
   17MOL   C65811570   5.034   1.374   1.936  0.4009  0.0076  0.6250
   17MOL   C65911571   5.066   1.266   1.853 -0.1665 -0.6083 -0.0374
   17MOL   C66011572   4.967   1.198   1.784  0.2923 -0.1440 -0.2532
   17MOL   O66111573   5.000   1.105   1.692 -0.2280 -0.4280 -0.0792
   17MOL   C66211574   5.049   0.985   1.734  0.1153  0.2512  0.6812
   17MOL   C66311575   5.054   0.946   1.871  0.3198 -0.5830  0.0289
   17MOL   C66411576   5.089   0.814   1.903  0.3194  0.0207  0.5171
   17MOL   C66511577   5.128   0.720   1.803 -0.1142 -0.4613  0.0199
   17MOL   C66611578   5.123   0.757   1.665 -0.4354 -0.4237  0.8676
   17MOL   C66711579   5.082   0.889   1.631 -0.6802 -0.6820  0.8203
   17MOL   C66811580   4.837   1.243   1.792  0.1377 -0.2459 -0.1824
   17MOL   C66911581   4.805   1.347   1.882  0.1585 -0.9725 -1.1846
   17MOL   H67011582   5.079   1.438   2.192 -0.1173  0.4548  0.8258
   17MOL   H67111583   5.263   1.553   2.300  2.1055  0.4621 -1.8449
   17MOL   H67211584   5.099   1.937   2.190  1.6680 -0.6217 -1.5201
   17MOL   H67311585   4.914   1.820   2.080 -0.3771  1.6519  0.6755
   17MOL   H67411586   5.110   1.444   1.967  0.4409 -0.7205  2.2498
   17MOL   H67511587   5.169   1.240   1.833  0.7189  2.3604  0.4744
   17MOL   H67611588   5.051   1.018   1.951 -2.0248 -0.3257 -0.2541
   17MOL   H67711589   5.092   0.775   2.004 -2.7776 -1.3731  0.1219
   17MOL   H67811590   5.156   0.686   1.590  0.1310  0.7030  0.0362
   17MOL   H67911591   5.078   0.927   1.530 -0.7182 -1.0277  0.6918
   17MOL   H68011592   4.760   1.189   1.739 -0.7710  0.1339  0.7261
   17MOL   H68111593   4.701   1.377   1.889  0.5012 -0.1895  0.9249
   17MOL   H68211594   5.151   0.623   1.846 -0.0282  0.0054  1.0416
   18MOL     C111595   4.009   7.575   4.105  0.1216 -0.2838  0.6583
   18MOL     C211596   3.945   7.523   3.989 -0.6147 -0.0552  0.0081
   18MOL     C311597   3.829   7.451   3.996 -0.4118  0.0993 -0.1735
   18MOL     O411598   3.777   7.402   3.881  0.2359 -0.1156  0.5081
   18MOL     C511599   3.766   7.426   4.118 -0.1845  0.0530 -0.3698
   18MOL     C611600   3.817   7.483   4.234 -0.1736  0.0078  0.2172
   18MOL     C711601   3.933   7.568   4.224 -0.3024  1.3318 -0.6268
   18MOL     C811602   3.982   7.650   4.343 -0.4521 -0.1070  0.1440
   18MOL     O911603   3.984   7.774   4.330  0.0667 -0.0739  0.6007
   18MOL    C1011604   4.016   7.587   4.471 -0.4371  0.2158 -0.1054
   18MOL    C1111605   4.093   7.470   4.465 -0.3378 -0.0681  0.4155
   18MOL    C1211606   4.122   7.413   4.585 -0.3598  0.3019  0.4780
   18MOL    C1311607   4.093   7.471   4.710 -0.3280  0.4249  0.2224
   18MOL    O1411608   4.128   7.416   4.833  0.1255  0.3059  0.7088
   18MOL    C1511609   4.047   7.319   4.896 -0.4899 -0.1756  0.2223
   18MOL    C1611610   3.909   7.294   4.865 -0.2109  1.0488 -0.4732
   18MOL    C1711611   3.846   7.194   4.939  0.3909  0.7491 -0.0122
   18MOL    C1811612   3.908   7.130   5.042  0.0944 -0.1471 -0.1974
   18MOL    C1911613   4.039   7.159   5.073 -0.0747 -0.0152 -0.3236
   18MOL    C2011614   4.116   7.245   4.992 -0.4200 -0.3675  0.1091
   18MOL    C2111615   4.018   7.594   4.713  0.7831 -0.2121  0.9731
   18MOL    C2211616   3.982   7.653   4.593 -0.4894  0.8273 -0.4854
   18MOL    H2311617   4.105   7.623   4.094  1.1869 -2.7779 -1.2346
   18MOL    H2411618   3.999   7.525   3.896 -0.7027 -0.1774 -0.0451
   18MOL    H2511619   3.670   7.378   4.122 -1.9539  3.4950  0.5767
   18MOL    H2611620   3.762   7.475   4.327 -1.6093  0.9851 -0.5239
   18MOL    H2711621   4.117   7.425   4.370 -0.2593 -0.8617  0.8119
   18MOL    H2811622   4.183   7.324   4.581 -1.6365 -0.6423  1.5211
   18MOL    H2911623   3.855   7.349   4.789 -1.0542  1.4092  0.3706
   18MOL    H3011624   3.744   7.169   4.913  0.5609  0.3877 -0.3308
   18MOL    H3111625   4.077   7.111   5.162  2.0231 -1.0554 -1.7251
   18MOL    H3211626   4.223   7.256   5.006 -0.2763  0.7598 -1.6905
   18MOL    H3311627   3.988   7.635   4.808  3.6653  0.2218  1.7158
   18MOL    H3411628   3.919   7.740   4.592 -0.7953  0.6403  1.4336
   18MOL    H3511629   3.689   7.373   3.901  1.2944 -3.1579  1.0654
   18MOL    C3611630   3.948   6.688   5.092 -0.5608  0.5098  0.4723
   18MOL    C3711631   3.940   6.817   5.137 -0.6490 -0.4064 -0.2513
   18MOL    C3811632   3.842   6.906   5.082 -0.2294 -0.1341 -0.6054
   18MOL    O3911633   3.847   7.032   5.121 -0.6628  0.1117 -0.3658
   18MOL    C4011634   3.753   6.856   4.984  0.4708  0.2840  0.2657
   18MOL    C4111635   3.762   6.716   4.946 -0.5101 -0.8574 -0.9570
   18MOL    C4211636   3.862   6.638   4.993  0.4039  0.0194  0.4741
   18MOL    C4311637   3.875   6.499   4.937 -0.1247 -0.1120 -0.2326
   18MOL    O4411638   3.981   6.470   4.881  0.0443  0.3177 -0.0013
   18MOL    C4511639   3.763   6.407   4.945 -0.8775 -0.5137 -0.1716
   18MOL    C4611640   3.659   6.420   5.039  0.8732 -0.5233  0.3523
   18MOL    C4711641   3.541   6.342   5.026  0.2966  0.0550 -0.3761
   18MOL    C4811642   3.531   6.239   4.938  0.2760 -0.2359  0.5731
   18MOL    O4911643   3.418   6.162   4.934 -0.0240  0.4566 -0.3886
   18MOL    C5011644   3.303   6.213   4.875  0.5072  0.3114  0.3398
   18MOL    C5111645   3.287   6.174   4.742 -0.7372 -0.1190  0.5536
   18MOL    C5211646   3.174   6.215   4.672 -0.2179  0.2480 -0.1844
   18MOL    C5311647   3.076   6.298   4.730  0.0990  0.7029 -0.5598
   18MOL    C5411648   3.102   6.345   4.858  0.8351 -0.0547  0.4483
   18MOL    C5511649   3.206   6.294   4.941  1.8392 -0.1217 -0.3628
   18MOL    C5611650   3.640   6.219   4.850  0.2351 -0.9535 -0.6779
   18MOL    C5711651   3.751   6.302   4.851 -0.5396  0.3698 -1.0158
   18MOL    H5811652   4.026   6.618   5.116 -0.9770 -0.2336 -0.3512
   18MOL    H5911653   4.014   6.852   5.206  0.2177 -1.1944 -0.7676
   18MOL    H6011654   3.688   6.928   4.936  0.5881  0.5721  0.5361
   18MOL    H6111655   3.688   6.672   4.880 -0.7573 -1.2438 -0.4298
   18MOL    H6211656   3.670   6.490   5.120  2.5363  0.1836 -0.4780
   18MOL    H6311657   3.456   6.352   5.093  1.2011 -0.3222  0.8471
   18MOL    H6411658   3.353   6.106   4.690 -0.8509  0.0917  0.1355
   18MOL    H6511659   3.159   6.173   4.574 -1.4452  1.2813 -0.4537
   18MOL    H6611660   3.041   6.425   4.897 -0.9548  0.1520 -2.5986
   18MOL    H6711661   3.220   6.342   5.036 -1.6537  0.1558  0.0979
   18MOL    H6811662   3.630   6.144   4.773  0.2564  0.2420 -1.8618
   18MOL    H6911663   3.823   6.289   4.772 -0.0344 -0.4147 -0.4374
   18MOL    C7011664   2.667   6.261   4.859  0.8141  0.2342  0.3486
   18MOL    C7111665   2.784   6.237   4.780  0.2928 -0.5521  0.4660
   18MOL    C7211666   2.849   6.350   4.722  0.0608 -0.0198 -0.1268
   18MOL    O7311667   2.967   6.336   4.660 -0.2047 -0.1002 -0.0338
   18MOL    C7411668   2.794   6.480   4.724  0.3948 -0.4063 -0.1783
   18MOL    C7511669   2.679   6.501   4.801  0.5032  0.1373 -0.1284
   18MOL    C7611670   2.619   6.394   4.868 -0.5383 -0.0019  0.4671
   18MOL    C7711671   2.482   6.406   4.944 -1.1333 -0.5428  0.0423
   18MOL    O7811672   2.408   6.310   4.971 -0.5534  0.1381 -0.3397
   18MOL    C7911673   2.450   6.542   4.992  0.0177  0.1409  0.4215
   18MOL    C8011674   2.394   6.632   4.903  0.5179  0.0302 -0.4784
   18MOL    C8111675   2.359   6.765   4.941  0.2628  0.3396 -0.1230
   18MOL    C8211676   2.369   6.797   5.082  0.1456 -0.3692  0.4593
   18MOL    O8311677   2.344   6.923   5.131 -0.2599  0.3692 -0.5809
   18MOL    C8411678   2.216   6.958   5.157 -0.1800 -0.1989 -0.0712
   18MOL    C8511679   2.189   7.095   5.161 -0.4016  0.2746 -0.0726
   18MOL    C8611680   2.061   7.139   5.185 -0.6259 -0.1751 -0.3661
   18MOL    C8711681   1.953   7.049   5.199 -0.2687  0.1155 -0.2877
   18MOL    C8811682   1.980   6.908   5.193 -0.3203  0.1331  1.1162
   18MOL    C8911683   2.114   6.862   5.177  0.0575 -0.2672 -0.4497
   18MOL    C9011684   2.425   6.702   5.169  0.0890 -0.2321 -0.3110
   18MOL    C9111685   2.472   6.577   5.124 -0.9464 -0.3386  0.5625
   18MOL    H9211686   2.605   6.179   4.893  0.0290  0.9682  0.7132
   18MOL    H9311687   2.820   6.136   4.784  0.5811 -0.5262 -1.3046
   18MOL    H9411688   2.844   6.567   4.682  0.5175 -0.0398  0.7157
   18MOL    H9511689   2.648   6.604   4.813  1.6227  0.8882 -3.0881
   18MOL    H9611690   2.395   6.607   4.798  0.7651  1.6217 -0.8692
   18MOL    H9711691   2.327   6.837   4.867  1.5876  0.1447 -0.9135
   18MOL    H9811692   2.273   7.160   5.140 -0.9017  1.0675  0.3526
   18MOL    H9911693   2.038   7.244   5.199  0.0083  0.0734 -1.1410
   18MOL   H10011694   1.897   6.840   5.205 -0.3022 -0.7778 -3.1464
   18MOL   H10111695   2.131   6.755   5.173 -0.7482 -0.4508  0.6336
   18MOL   H10211696   2.441   6.727   5.272 -1.1882  0.3022 -0.2306
   18MOL   H10311697   2.524   6.518   5.198 -3.9628 -2.0173  1.3847
   18MOL   C10411698   1.522   6.899   5.224 -0.0073  0.6183 -0.8492
   18MOL   C10511699   1.648   6.947   5.266  0.4390 -0.8037  0.5411
   18MOL   C10611700   1.720   7.040   5.186  0.7338 -0.2473 -0.1247
   18MOL   O10711701   1.835   7.098   5.246 -0.3457 -0.5242  0.1176
   18MOL   C10811702   1.675   7.077   5.059 -0.7039 -0.0920  0.1400
   18MOL   C10911703   1.556   7.022   5.018 -1.1333  0.2022  0.2266
   18MOL   C11011704   1.479   6.935   5.100  0.3022 -0.1166  0.5636
   18MOL   C11111705   1.357   6.878   5.054  0.0705 -0.0828 -0.0328
   18MOL   O11211706   1.357   6.834   4.937  0.4914  0.3627 -0.1157
   18MOL   C11311707   1.233   6.885   5.137  0.4730  0.0365  0.0940
   18MOL   C11411708   1.221   6.973   5.245 -0.3355 -0.3297 -0.9444
   18MOL   C11511709   1.099   6.977   5.327 -0.3154  0.5325 -0.2167
   18MOL   C11611710   0.991   6.893   5.288 -0.0378 -0.6090 -0.2069
   18MOL   O11711711   0.878   6.886   5.366  0.2119  0.1350 -0.6000
   18MOL   C11811712   0.787   6.977   5.334 -0.3572 -0.6989  0.2292
   18MOL   C11911713   0.668   6.936   5.263 -0.3552  0.3128  0.4854
   18MOL   C12011714   0.566   7.029   5.227 -0.2698  0.6756  0.2889
   18MOL   C12111715   0.585   7.163   5.264 -0.4869 -0.2132 -0.0133
   18MOL   C12211716   0.695   7.199   5.343 -0.6349 -0.0783 -0.5062
   18MOL   C12311717   0.796   7.112   5.378  0.5059 -0.5825 -0.0937
   18MOL   C12411718   0.997   6.810   5.172  0.5904 -0.4748 -0.3958
   18MOL   C12511719   1.116   6.816   5.096  0.5293 -0.5002  0.6924
   18MOL   H12611720   1.461   6.837   5.288 -0.1124  2.4993  0.9061
   18MOL   H12711721   1.693   6.909   5.356  0.7399 -1.2908  0.1865
   18MOL   H12811722   1.728   7.152   5.001 -0.7804 -1.5888 -1.9383
   18MOL   H12911723   1.516   7.048   4.921  0.8360 -2.1463 -1.2821
   18MOL   H13011724   1.309   7.030   5.271 -0.3681 -1.1711  1.1753
   18MOL   H13111725   1.097   7.040   5.414  0.8519  1.6221 -0.9554
   18MOL   H13211726   0.660   6.832   5.238  1.5632  0.2876 -0.1024
   18MOL   H13311727   0.479   6.995   5.173  0.4284 -1.3306  0.3820
   18MOL   H13411728   0.698   7.302   5.377 -1.9658  0.1137 -0.9354
   18MOL   H13511729   0.890   7.134   5.424  1.2865 -1.2735 -1.3317
   18MOL   H13611730   0.912   6.751   5.139  0.0761  0.2573 -0.3922
   18MOL   H13711731   1.116   6.754   5.008 -2.6201  0.0278  0.2765
   18MOL   C13811732   0.526   7.587   5.082 -0.7542  0.3420 -0.4505
   18MOL   C13911733   0.516   7.489   5.180  0.1716 -0.7044  0.2093
   18MOL   C14011734   0.491   7.350   5.152  0.6585  0.4358  0.9407
   18MOL   O14111735   0.481   7.260   5.254 -0.7095 -0.4978 -0.9054
   18MOL   C14211736   0.466   7.317   5.017 -0.1351 -0.1661  0.8164
   18MOL   C14311737   0.497   7.414   4.911  0.7769 -0.2171 -0.2372
   18MOL   C14411738   0.530   7.545   4.947  0.0983  0.1982 -0.2776
   18MOL   C14511739   0.543   7.641   4.837  0.0044  1.0407  0.0408
   18MOL   O14611740   0.468   7.734   4.839 -0.1805 -0.5575  0.1486
   18MOL   C14711741   0.646   7.624   4.736  0.3798  0.1721  0.4370
   18MOL   C14811742   0.646   7.718   4.634  0.6749  0.6186  0.2266
   18MOL   C14911743   0.745   7.716   4.540 -0.6660  0.2556  0.0185
   18MOL   C15011744   0.852   7.619   4.544 -0.2024 -0.4897  0.9424
   18MOL   O15111745   0.950   7.619   4.439  0.8188 -0.2925 -0.5628
   18MOL   C15211746   0.941   7.513   4.352 -0.9453 -0.9967 -0.1298
   18MOL   C15311747   1.053   7.427   4.345 -0.8630  0.1510 -0.1698
   18MOL   C15411748   1.056   7.324   4.251  0.2936 -0.9123 -0.3333
   18MOL   C15511749   0.949   7.298   4.167 -0.2868 -0.6292  0.5540
   18MOL   C15611750   0.837   7.385   4.171  1.0663  0.0345 -0.6322
   18MOL   C15711751   0.836   7.489   4.263 -0.7084 -0.2461  0.3919
   18MOL   C15811752   0.863   7.532   4.655  0.0937  0.1927 -0.3175
   18MOL   C15911753   0.750   7.525   4.743  0.5768 -0.1729 -0.4207
   18MOL   H16011754   0.558   7.689   5.098 -1.8232  0.5583  0.3528
   18MOL   H16111755   0.533   7.526   5.280 -2.3617  0.9130  0.0776
   18MOL   H16211756   0.438   7.221   4.976 -1.4343  1.7656 -3.0668
   18MOL   H16311757   0.483   7.395   4.805 -3.9578 -1.2085  0.4481
   18MOL   H16411758   0.574   7.797   4.623  1.1937  0.8078 -1.9240
   18MOL   H16511759   0.741   7.776   4.450 -0.6650  0.6747  0.2939
   18MOL   H16611760   1.133   7.445   4.414  0.3496  2.1565 -2.0311
   18MOL   H16711761   1.134   7.249   4.251  2.2540  1.0678 -0.7304
   18MOL   H16811762   0.749   7.368   4.110  1.5070  0.8809 -1.5159
   18MOL   H16911763   0.757   7.562   4.259 -0.2978  0.2362  0.9850
   18MOL   H17011764   0.937   7.453   4.665 -3.3168 -3.0233  0.7326
   18MOL   H17111765   0.755   7.447   4.817 -0.8663  0.1082 -0.0173
   18MOL   C17211766   0.868   6.902   4.297 -0.6344  0.4618 -0.0881
   18MOL   C17311767   0.855   7.023   4.229  0.5232  0.0649  0.6184
   18MOL   C17411768   0.952   7.070   4.134  0.0152  0.2504 -0.8949
   18MOL   O17511769   0.943   7.189   4.079  0.2654 -0.3132  0.6936
   18MOL   C17611770   1.064   6.984   4.101  0.3218 -0.5866 -0.0856
   18MOL   C17711771   1.076   6.857   4.162 -0.0071  0.1177  0.2722
   18MOL   C17811772   0.978   6.824   4.255 -0.6353 -0.1753  0.1823
   18MOL   C17911773   0.997   6.691   4.330 -0.3644  0.4134  0.5699
   18MOL   O18011774   1.025   6.586   4.274 -0.0559  0.4059 -0.3078
   18MOL   C18111775   0.981   6.684   4.476 -1.3825  0.9569 -0.0399
   18MOL   C18211776   1.019   6.795   4.561 -0.1926  0.4500 -0.0855
   18MOL   C18311777   0.989   6.786   4.697 -0.6053 -0.1405  0.1003
   18MOL   C18411778   0.925   6.676   4.751 -0.6271  0.5509  0.3650
   18MOL   O18511779   0.887   6.666   4.885  0.5379  0.1515  0.3257
   18MOL   C18611780   0.751   6.652   4.914  0.4403  0.3255  0.1143
   18MOL   C18711781   0.692   6.522   4.927 -0.4440 -0.6049 -0.0626
   18MOL   C18811782   0.553   6.505   4.945  0.1268 -0.7551  0.5190
   18MOL   C18911783   0.474   6.626   4.948  0.2935 -0.1856  0.0362
   18MOL   C19011784   0.526   6.752   4.937 -0.4291  0.8396 -0.5374
   18MOL   C19111785   0.665   6.769   4.933 -0.2765 -0.2057  0.5444
   18MOL   C19211786   0.903   6.562   4.670  0.1970  0.0876  0.1001
   18MOL   C19311787   0.929   6.563   4.529 -0.5765  0.1317  0.7422
   18MOL   H19411788   0.803   6.865   4.375  0.5790 -1.0908  0.2144
   18MOL   H19511789   0.767   7.080   4.257  0.8888  1.2599 -0.6134
   18MOL   H19611790   1.128   7.022   4.022 -0.0903 -1.2472 -0.7393
   18MOL   H19711791   1.159   6.800   4.125 -0.0553  1.4561 -2.0136
   18MOL   H19811792   1.071   6.880   4.519  1.0180 -0.3229 -0.1796
   18MOL   H19911793   1.018   6.859   4.772  0.3899  1.1539 -1.5144
   18MOL   H20011794   0.759   6.437   4.926  0.5385  0.1620 -2.9416
   18MOL   H20111795   0.516   6.405   4.955 -0.1811 -0.8468 -1.3711
   18MOL   H20211796   0.464   6.841   4.937  0.6520  1.6123  0.5398
   18MOL   H20311797   0.713   6.866   4.933 -2.6730  1.0397  2.2085
   18MOL   H20411798   0.845   6.482   4.715 -0.8173  1.3451  1.0734
   18MOL   H20511799   0.909   6.484   4.458 -1.2322 -0.9516  2.0985
   18MOL   C20611800   0.185   6.294   5.002 -0.8699 -0.5125  0.4134
   18MOL   C20711801   0.218   6.418   4.945 -0.5537 -0.0341 -0.3016
   18MOL   C20811802   0.285   6.511   5.026 -0.7239 -0.2652 -0.5794
   18MOL   O20911803   0.338   6.621   4.966 -0.2172  0.0497 -0.1055
   18MOL   C21011804   0.309   6.488   5.165 -0.2697  0.1549 -0.1364
   18MOL   C21111805   0.273   6.364   5.223  0.0843 -0.3732  0.8289
   18MOL   C21211806   0.211   6.267   5.140 -0.0132  0.3019 -0.0985
   18MOL   C21311807   0.181   6.139   5.209 -0.2925  0.5902 -0.8679
   18MOL   O21411808   0.172   6.128   5.334 -0.8358 -0.5544 -0.3090
   18MOL   C21511809   0.152   6.012   5.125  0.5972  0.0966 -0.0209
   18MOL   C21611810   0.041   5.937   5.165  0.3355  0.2914 -0.5630
   18MOL   C21711811   0.009   5.823   5.099  0.4447 -0.0078  0.8159
   18MOL   C21811812   0.091   5.773   5.001  0.1582  0.6169  0.3937
   18MOL   O21911813   0.064   5.657   4.931 -0.1016  0.7951 -0.1773
   18MOL   C22011814   8.261   5.592   4.957 -0.5476 -0.0834 -0.3388
   18MOL   C22111815   8.267   5.507   5.075  0.8299  0.2706 -0.3073
   18MOL   C22211816   8.144   5.466   5.131 -0.5595 -0.6843 -0.3479
   18MOL   C22311817   8.022   5.479   5.057 -0.0993 -1.0100 -0.4442
   18MOL   C22411818   8.020   5.550   4.939  0.6074  0.9870 -0.2139
   18MOL   C22511819   8.130   5.616   4.893  0.0092 -0.6232  0.1969
   18MOL   C22611820   0.200   5.852   4.953 -0.3920 -0.3201 -0.3300
   18MOL   C22711821   0.227   5.975   5.013 -0.5229  0.3824  0.0732
   18MOL   H22811822   0.143   6.216   4.940 -0.5357 -0.5794  0.2706
   18MOL   H22911823   0.207   6.427   4.838 -1.0845  0.2217 -0.2286
   18MOL   H23011824   0.368   6.559   5.222  0.9720 -0.3680 -0.7446
   18MOL   H23111825   0.300   6.343   5.325 -2.8406  2.7221  2.3448
   18MOL   H23211826   8.287   5.967   5.246 -0.1953  0.0342 -0.9017
   18MOL   H23311827   8.228   5.777   5.123 -0.8453  1.8730 -0.4851
   18MOL   H23411828   0.049   5.509   5.127  2.5892  0.0040 -3.4305
   18MOL   H23511829   8.139   5.426   5.231 -0.0684  1.1958  0.4527
   18MOL   H23611830   7.931   5.569   4.881  0.3424 -4.0919 -1.6689
   18MOL   H23711831   8.131   5.674   4.802  1.2634 -2.7569 -1.1918
   18MOL   H23811832   0.259   5.825   4.867 -1.0437  0.5695 -1.0685
   18MOL   H23911833   0.314   6.030   4.980  2.1613 -2.6700  1.9003
   18MOL   C24011834   7.687   5.502   5.399  0.4968  0.0114  0.2019
   18MOL   C24111835   7.737   5.431   5.289  0.3574  0.0069 -0.4931
   18MOL   C24211836   7.842   5.494   5.214 -0.2182  0.4033  0.5007
   18MOL   O24311837   7.900   5.431   5.108 -0.1578  0.3613 -0.4035
   18MOL   C24411838   7.880   5.623   5.253 -0.0107 -0.5285 -0.3996
   18MOL   C24511839   7.844   5.679   5.377 -0.1203  0.4503 -0.0897
   18MOL   C24611840   7.741   5.619   5.451  0.1756 -0.3594 -0.3206
   18MOL   C24711841   7.706   5.676   5.586 -0.1634 -0.1835 -1.0513
   18MOL   O24811842   7.798   5.676   5.672 -0.1847  0.0303 -0.0962
   18MOL   C24911843   7.574   5.723   5.630  0.2139 -0.5515  0.1835
   18MOL   C25011844   7.549   5.743   5.768  0.3801  0.8398  0.5309
   18MOL   C25111845   7.426   5.797   5.812  0.9110  0.2273  0.3703
   18MOL   C25211846   7.317   5.810   5.726  0.5012  0.8696  0.3276
   18MOL   O25311847   7.192   5.840   5.777 -0.3084  0.1333 -0.0222
   18MOL   C25411848   7.179   5.964   5.829 -0.1616 -0.1089 -0.2834
   18MOL   C25511849   7.157   6.080   5.753  0.5249 -0.2308  0.5326
   18MOL   C25611850   7.152   6.208   5.815  0.2580 -0.7566  0.6073
   18MOL   C25711851   7.150   6.213   5.956 -0.6878 -0.0417 -0.2678
   18MOL   C25811852   7.160   6.096   6.037  0.0853 -0.2808 -0.7937
   18MOL   C25911853   7.171   5.976   5.971  0.3716  0.8709  0.3834
   18MOL   C26011854   7.336   5.787   5.583 -0.5991 -0.2312 -0.5686
   18MOL   C26111855   7.467   5.750   5.536 -0.3381  1.0987 -0.7626
   18MOL   H26211856   7.608   5.452   5.454  1.7214 -1.5816  0.5537
   18MOL   H26311857   7.700   5.336   5.251  2.3308 -0.9990  0.0381
   18MOL   H26411858   7.952   5.676   5.193  0.6544 -1.8638 -0.8124
   18MOL   H26511859   7.901   5.763   5.412  1.0801 -0.7544  0.9044
   18MOL   H26611860   7.626   5.729   5.843  0.7821  2.0566  0.3627
   18MOL   H26711861   7.410   5.804   5.918  1.7006 -0.0173  0.5067
   18MOL   H26811862   7.156   6.076   5.645  1.0653  4.6318  0.2125
   18MOL   H26911863   7.164   6.298   5.757 -0.7159 -1.3560 -0.5341
   18MOL   H27011864   7.160   6.087   6.144 -0.6994 -2.6846 -0.9585
   18MOL   H27111865   7.172   5.879   6.018  0.7408  1.2521  1.1560
   18MOL   H27211866   7.247   5.798   5.522  0.5537  0.0585 -2.2137
   18MOL   H27311867   7.478   5.740   5.429  1.9141  1.4322 -0.5786
   18MOL   C27411868   7.096   6.336   6.370 -0.2271 -0.5139  0.0786
   18MOL   C27511869   7.163   6.339   6.243  0.0832  0.2966  0.7555
   18MOL   C27611870   7.083   6.360   6.132 -1.0932 -0.2270  0.7630
   18MOL   O27711871   7.143   6.339   6.010  0.5329  0.0094  0.0216
   18MOL   C27811872   6.954   6.408   6.138  0.1749  0.4055 -0.1397
   18MOL   C27911873   6.891   6.424   6.272 -0.8331  0.0262 -0.1825
   18MOL   C28011874   6.968   6.385   6.386  0.0160 -0.3572  0.1035
   18MOL   C28111875   6.897   6.382   6.517  0.5074  0.3238  0.4664
   18MOL   O28211876   6.897   6.481   6.583 -0.0909 -0.1191 -0.0175
   18MOL   C28311877   6.807   6.264   6.552 -0.1258 -0.5334  0.5599
   18MOL   C28411878   6.793   6.152   6.465  0.2942 -0.3264  0.7872
   18MOL   C28511879   6.719   6.038   6.512  0.2135  0.0425 -0.0629
   18MOL   C28611880   6.670   6.037   6.646  0.4782 -0.3759  0.1846
   18MOL   O28711881   6.596   5.931   6.689 -0.6586  0.1133 -0.7802
   18MOL   C28811882   6.659   5.810   6.690  0.0060 -0.2180  0.1106
   18MOL   C28911883   6.756   5.777   6.789  0.5528  0.2359  0.1866
   18MOL   C29011884   6.830   5.657   6.779  0.0935 -0.5627 -0.6034
   18MOL   C29111885   6.814   5.573   6.669 -0.2298 -0.0306 -0.2384
   18MOL   C29211886   6.715   5.600   6.568 -0.0816  0.3429 -0.6579
   18MOL   C29311887   6.649   5.725   6.575  0.0535 -0.5676 -0.3421
   18MOL   C29411888   6.687   6.150   6.723  0.1759 -0.6427 -0.2928
   18MOL   C29511889   6.745   6.267   6.680 -0.6307 -0.3968  0.1459
   18MOL   H29611890   7.152   6.305   6.457  0.8787  1.8445  0.2579
   18MOL   H29711891   7.266   6.308   6.235  0.0792  0.6291 -0.6492
   18MOL   H29811892   6.889   6.426   6.054 -1.1397  0.4224  0.8627
   18MOL   H29911893   6.787   6.453   6.281 -0.8490  1.2417 -3.4749
   18MOL   H30011894   6.842   6.157   6.368 -2.0755  1.0526 -0.3825
   18MOL   H30111895   6.706   5.947   6.455 -0.7881 -0.5960  1.1665
   18MOL   H30211896   6.758   5.835   6.881  1.2279 -0.6559  0.7350
   18MOL   H30311897   6.901   5.636   6.858  0.7899  1.6154 -0.6184
   18MOL   H30411898   6.706   5.534   6.482 -2.3525 -2.0963  1.3694
   18MOL   H30511899   6.584   5.757   6.495 -0.6019 -0.8620  0.0676
   18MOL   H30611900   6.657   6.140   6.826  3.0007 -1.5220  0.5051
   18MOL   H30711901   6.760   6.344   6.754 -2.0001  0.0294 -0.0092
   18MOL   C30811902   7.199   5.470   6.484 -1.2735  0.1976  0.1302
   18MOL   C30911903   7.058   5.470   6.512 -0.6006 -0.2163  0.2017
   18MOL   C31011904   7.018   5.465   6.647 -0.0924  0.1517  0.1691
   18MOL   O31111905   6.884   5.453   6.674  0.7570  0.2142  0.1298
   18MOL   C31211906   7.112   5.448   6.753  0.6261 -0.5824  0.1245
   18MOL   C31311907   7.250   5.442   6.724 -0.0831 -0.4256  0.7196
   18MOL   C31411908   7.296   5.460   6.586 -0.4661 -0.0476  0.7181
   18MOL   C31511909   7.438   5.447   6.548  0.1539 -0.5513  0.3622
   18MOL   O31611910   7.474   5.345   6.487  0.5091 -0.2141  0.2692
   18MOL   C31711911   7.543   5.546   6.580 -0.1977  0.2540  0.5992
   18MOL   C31811912   7.516   5.663   6.650  0.1790 -0.0923 -0.1240
   18MOL   C31911913   7.613   5.752   6.697 -0.4542 -0.2147  0.2673
   18MOL   C32011914   7.741   5.742   6.646  0.2086  0.1506  0.2128
   18MOL   O32111915   7.847   5.826   6.673 -0.3755  0.1824  0.7691
   18MOL   C32211916   7.907   5.815   6.791  0.3759 -0.8481 -0.1624
   18MOL   C32311917   7.980   5.926   6.845  0.2874  0.6732  0.9046
   18MOL   C32411918   8.059   5.919   6.962  0.2751 -0.6928 -0.3623
   18MOL   C32511919   8.054   5.802   7.041 -0.2127 -0.7382 -0.2356
   18MOL   C32611920   7.979   5.693   6.988  0.2851  0.1085 -0.5916
   18MOL   C32711921   7.909   5.698   6.870  0.6863  0.0679  0.6928
   18MOL   C32811922   7.776   5.621   6.572 -0.4949  0.6085  0.1773
   18MOL   C32911923   7.676   5.526   6.535  1.2068 -0.2140  0.0176
   18MOL   H33011924   7.227   5.481   6.380 -0.4099  0.8289  0.4227
   18MOL   H33111925   6.989   5.461   6.429 -0.7393 -1.2179  0.4195
   18MOL   H33211926   7.069   5.432   6.851  0.7614 -4.1318 -0.3232
   18MOL   H33311927   7.319   5.423   6.806  1.2543  1.6325  0.1002
   18MOL   H33411928   7.415   5.689   6.676 -1.0778 -0.0465 -4.6169
   18MOL   H33511929   7.588   5.833   6.764  0.5238  0.1595  0.1837
   18MOL   H33611930   7.968   6.020   6.792  0.7572 -0.3471 -1.0528
   18MOL   H33711931   8.130   5.997   6.983 -1.2440 -0.0900  2.7638
   18MOL   H33811932   7.986   5.596   7.035 -0.6981  1.1220  1.7318
   18MOL   H33911933   7.859   5.606   6.846 -0.9057  1.2535 -0.6547
   18MOL   H34011934   7.875   5.592   6.541 -0.6707 -0.0789  0.2504
   18MOL   H34111935   7.711   5.440   6.481  1.4736  0.5569 -1.0405
   18MOL   C34211936   7.937   5.666   7.443  0.2446  0.6957 -0.0906
   18MOL   C34311937   7.988   5.752   7.342  0.4250 -0.5683 -1.0176
   18MOL   C34411938   8.086   5.708   7.250 -0.0737 -0.3031  0.2356
   18MOL   O34511939   8.138   5.791   7.155 -0.2587  0.1583  0.0559
   18MOL   C34611940   8.127   5.579   7.255 -0.0315  0.1067  0.2743
   18MOL   C34711941   8.078   5.488   7.352 -0.0273 -0.5737  0.0676
   18MOL   C34811942   7.985   5.533   7.449  0.6184  0.9322  0.0312
   18MOL   C34911943   7.937   5.446   7.566 -0.8462 -0.8133 -0.2257
   18MOL   O35011944   7.832   5.473   7.632  0.2688 -0.2758 -0.4006
   18MOL   C35111945   8.025   5.333   7.611 -0.5656  0.5257 -0.3615
   18MOL   C35211946   7.960   5.231   7.681  0.6904  0.0632  0.3242
   18MOL   C35311947   8.031   5.119   7.732  0.1048  0.5957 -0.1574
   18MOL   C35411948   8.168   5.115   7.730  0.4748 -0.2165 -0.0971
   18MOL   O35511949   8.231   5.014   7.799  0.2368 -0.0204 -0.1355
   18MOL   C35611950   0.033   4.947   7.754 -0.0297  0.8688  0.5860
   18MOL   C35711951   0.133   4.918   7.843 -0.2658  0.2583 -0.1617
   18MOL   C35811952   0.240   4.835   7.809 -1.0670  0.3084 -0.3782
   18MOL   C35911953   0.272   4.795   7.678  0.6053 -0.5701  0.2487
   18MOL   C36011954   0.166   4.820   7.588  0.7432 -0.3392 -0.5919
   18MOL   C36111955   0.051   4.894   7.626  0.1089 -0.0916 -0.4657
   18MOL   C36211956   8.237   5.225   7.668 -0.0733  0.4456  0.0355
   18MOL   C36311957   8.170   5.336   7.608  0.3926  0.6438  0.2153
   18MOL   H36411958   7.866   5.702   7.515 -1.4285 -1.7410 -0.4624
   18MOL   H36511959   7.957   5.856   7.344 -1.6715 -1.1825  0.7486
   18MOL   H36611960   8.195   5.547   7.177  1.8601  1.0819  1.4761
   18MOL   H36711961   8.105   5.385   7.338 -1.0502 -0.6985 -1.0901
   18MOL   H36811962   7.852   5.233   7.688  0.7645 -0.0267  1.6033
   18MOL   H36911963   7.974   5.048   7.790 -0.3203  0.1605 -1.1015
   18MOL   H37011964   0.128   4.957   7.944  0.5115  0.6474 -0.2721
   18MOL   H37111965   0.310   4.805   7.886  0.2649  0.9033 -1.3391
   18MOL   H37211966   0.176   4.779   7.488 -2.0959 -1.6775 -0.3520
   18MOL   H37311967   8.291   4.896   7.547 -0.1870 -0.9263 -0.2193
   18MOL   H37411968   0.031   5.244   7.671 -0.0856  0.4059  0.6803
   18MOL   H37511969   8.220   5.422   7.565 -2.1514  1.6667 -0.8673
   18MOL   C37611970   0.650   4.903   7.452  0.1183 -0.0757  0.1674
   18MOL   C37711971   0.572   4.857   7.558 -0.3267  0.4109  0.0774
   18MOL   C37811972   0.462   4.768   7.539 -0.0599 -0.2869  0.7629
   18MOL   O37911973   0.385   4.728   7.645 -0.4231  0.0009  0.2131
   18MOL   C38011974   0.438   4.714   7.406 -0.0692  1.0322 -0.4409
   18MOL   C38111975   0.524   4.747   7.305 -0.4569 -0.4873  0.9281
   18MOL   C38211976   0.626   4.848   7.323 -0.3996  0.1831 -0.0582
   18MOL   C38311977   0.699   4.883   7.194 -0.0198 -1.0356  0.7517
   18MOL   O38411978   0.645   4.855   7.090  0.4128 -0.1808  0.6413
   18MOL   C38511979   0.827   4.961   7.196  0.0127  0.0024 -0.1539
   18MOL   C38611980   0.846   5.084   7.268  0.2416  0.4365 -0.0797
   18MOL   C38711981   0.968   5.151   7.266  0.1608  0.0764 -0.2372
   18MOL   C38811982   1.074   5.103   7.186 -0.6388 -0.4348 -0.2714
   18MOL   O38911983   1.199   5.167   7.173 -0.8458 -0.4675 -0.6605
   18MOL   C39011984   1.289   5.162   7.277  0.2061 -0.0765 -0.9811
   18MOL   C39111985   1.354   5.042   7.317 -0.2120 -1.4498  0.4625
   18MOL   C39211986   1.457   5.050   7.417  0.2794  0.2554 -0.3807
   18MOL   C39311987   1.498   5.171   7.469  0.1854  0.3303  0.2809
   18MOL   C39411988   1.425   5.287   7.443 -0.1368  0.3992 -0.6939
   18MOL   C39511989   1.329   5.278   7.337  0.2914  0.7964  0.3231
   18MOL   C39611990   1.052   4.991   7.105  0.0581 -0.0408 -0.2575
   18MOL   C39711991   0.933   4.916   7.111 -0.6841 -0.1458  0.2609
   18MOL   H39811992   0.728   4.977   7.462 -1.6873  1.7164  1.1723
   18MOL   H39911993   0.570   4.907   7.654 -1.1487  1.7944 -0.6419
   18MOL   H40011994   0.358   4.646   7.381  0.4112  0.3862 -0.2357
   18MOL   H40111995   0.515   4.696   7.210  2.3392 -1.7147  1.2767
   18MOL   H40211996   0.763   5.133   7.317  0.1899  0.9085 -0.6409
   18MOL   H40311997   0.981   5.239   7.326 -0.6601  0.4058 -0.5329
   18MOL   H40411998   1.316   4.951   7.272 -1.3253 -0.5872 -0.3700
   18MOL   H40511999   1.508   4.958   7.442 -0.0509  0.1052 -0.2592
   18MOL   H40612000   1.441   5.381   7.493 -1.2780  0.3863 -0.2806
   18MOL   H40712001   1.291   5.374   7.303  1.4260  1.5452  1.1104
   18MOL   H40812002   1.130   4.949   7.043 -0.5992  0.4840 -1.4536
   18MOL   H40912003   0.911   4.826   7.054  1.3628 -0.4195 -0.1446
   18MOL   C41012004   1.478   4.974   7.872  0.1733 -0.0238  0.1713
   18MOL   C41112005   1.537   5.008   7.747  0.3860 -0.1947  0.3773
   18MOL   C41212006   1.522   5.143   7.697 -0.2682  0.2135  0.6767
   18MOL   O41312007   1.585   5.176   7.577  0.2043 -0.2908  0.2196
   18MOL   C41412008   1.440   5.229   7.767  0.1471 -0.3925 -0.0650
   18MOL   C41512009   1.380   5.193   7.887 -0.8255 -0.0852  0.0321
   18MOL   C41612010   1.405   5.067   7.943  0.5842  0.1025 -0.6743
   18MOL   C41712011   1.338   5.032   8.070 -0.0228  0.2436 -0.1170
   18MOL   O41812012   1.227   5.070   8.104  0.4753 -0.8033 -0.6042
   18MOL   C41912013   1.413   4.934   8.154 -0.2828 -0.1280  0.7931
   18MOL   C42012014   1.545   4.966   8.195 -0.1421  0.6366  0.1297
   18MOL   C42112015   1.616   4.882   8.283  0.2084  0.9395 -0.4063
   18MOL   C42212016   1.557   4.762   0.009 -0.6242  0.2068 -0.0205
   18MOL   O42312017   1.635   4.669   0.074 -0.0707  0.4891  0.0112
   18MOL   C42412018   1.680   4.569   8.304  0.0550 -1.0571  0.0366
   18MOL   C42512019   1.754   4.604   8.192 -0.6631 -0.1662 -0.0807
   18MOL   C42612020   1.788   4.511   8.087 -0.7017 -0.3892 -0.5088
   18MOL   C42712021   1.737   4.375   8.106 -0.7043 -0.5654 -0.1992
   18MOL   C42812022   1.672   4.342   8.226 -0.0981 -0.3381 -0.2567
   18MOL   C42912023   1.652   4.435   0.018 -0.8421  0.5149 -0.2996
   18MOL   C43012024   1.421   4.731   8.281 -0.3292 -0.5569 -0.1426
   18MOL   C43112025   1.352   4.816   8.196 -0.0955 -0.2739 -1.1501
   18MOL   H43212026   1.500   4.873   7.903 -0.5356 -0.9069 -2.0519
   18MOL   H43312027   1.589   4.936   7.687 -1.6754 -0.8899 -0.6090
   18MOL   H43412028   1.439   5.327   7.722  1.5832  0.1820  1.1255
   18MOL   H43512029   1.309   5.256   7.940  0.9049  1.8395  0.1293
   18MOL   H43612030   1.580   5.064   8.166 -0.2091  0.5133 -0.3717
   18MOL   H43712031   1.719   4.900   8.310 -0.3041  1.3719  1.4040
   18MOL   H43812032   1.780   4.705   8.164 -0.1258 -0.7936 -1.9262
   18MOL   H43912033   1.839   4.537   7.996 -0.0846  1.2955  0.2995
   18MOL   H44012034   1.636   4.243   8.247  0.4745 -0.7745 -1.3100
   18MOL   H44112035   1.602   4.406   0.109  0.1880  1.7891  0.7030
   18MOL   H44212036   1.386   4.630   8.302 -1.3809  0.2164  2.0115
   18MOL   H44312037   1.250   4.789   8.171 -0.7678 -0.6601  1.8295
   18MOL   C44412038   1.895   3.959   7.908 -1.1782 -0.4782 -0.0014
   18MOL   C44512039   1.820   4.084   7.906  0.0039  0.4103 -0.5442
   18MOL   C44612040   1.819   4.165   8.020  0.0224  0.4609  0.5366
   18MOL   O44712041   1.754   4.284   8.004  0.1748  0.1777  0.3426
   18MOL   C44812042   1.901   4.139   8.130  0.1728  0.0417  0.8654
   18MOL   C44912043   1.956   4.011   8.139  0.4960 -0.4982  0.1788
   18MOL   C45012044   1.949   3.920   8.030  0.5811  0.4624 -0.2386
   18MOL   C45112045   1.987   3.781   8.048 -0.5352 -0.2315 -0.7236
   18MOL   O45212046   1.948   3.689   7.973  0.0238  0.5076  0.6074
   18MOL   C45312047   2.079   3.754   8.163 -0.0224 -0.1480  0.1599
   18MOL   C45412048   2.046   3.655   8.263 -0.5516 -0.1539  0.4522
   18MOL   C45512049   2.138   3.618   0.047 -0.2475 -0.1198 -0.2578
   18MOL   C45612050   2.262   3.685   0.049  0.0278  0.2408 -1.3898
   18MOL   O45712051   2.346   3.648   0.153 -0.2344  0.0747  0.1939
   18MOL   C45812052   2.483   3.657   0.158  0.3004  0.6465 -0.0552
   18MOL   C45912053   2.571   3.552   0.130  0.1782 -0.2186 -0.6613
   18MOL   C46012054   2.713   3.566   0.151 -0.4330  0.1096  0.5621
   18MOL   C46112055   2.764   3.688   0.200  0.6442  0.6623 -0.0048
   18MOL   C46212056   2.675   3.792   0.228  0.7518 -0.1679  0.1827
   18MOL   C46312057   2.539   3.775   0.206 -0.4058 -0.3106 -0.0372
   18MOL   C46412058   2.294   3.784   8.267 -0.6639  0.5023  1.0263
   18MOL   C46512059   2.199   3.822   8.171 -0.7801 -0.1326 -0.0914
   18MOL   H46612060   1.891   3.883   7.832  1.3265 -1.2578  0.5953
   18MOL   H46712061   1.763   4.108   7.818 -1.7246  0.5158  0.5680
   18MOL   H46812062   1.901   4.210   8.211 -1.0970  0.2297  0.7003
   18MOL   H46912063   2.004   3.981   8.231 -1.4359 -2.4784  0.5856
   18MOL   H47012064   1.945   3.616   8.265  0.0200 -1.6625  0.0409
   18MOL   H47112065   2.123   3.551   0.130 -2.0889  2.2904  1.4597
   18MOL   H47212066   2.524   3.458   0.106  0.2104  0.0393 -1.7659
   18MOL   H47312067   2.778   3.481   0.138 -1.4246 -0.7034  0.7965
   18MOL   H47412068   2.711   3.880   0.280 -0.2727 -0.9382  2.2396
   18MOL   H47512069   2.471   3.856   0.230 -2.8684 -2.1359 -0.5804
   18MOL   H47612070   2.389   3.835   8.275 -0.5604  0.7420 -1.3160
   18MOL   H47712071   2.224   3.904   8.105  0.2606  1.0305  1.7081
   18MOL   C47812072   3.063   3.700   8.205 -0.3272  0.5558 -0.4581
   18MOL   C47912073   2.989   3.746   0.004  0.1709 -0.3471 -0.4978
   18MOL   C48012074   2.975   3.669   0.118 -0.2139  0.9199 -0.4874
   18MOL   O48112075   2.895   3.704   0.221  0.1494 -0.2829 -0.0636
   18MOL   C48212076   3.041   3.546   0.124 -0.2634 -0.0081 -0.2241
   18MOL   C48312077   3.119   3.504   0.015  0.1452 -0.6304  0.4479
   18MOL   C48412078   3.126   3.575   8.205 -0.5160  0.2620 -0.8727
   18MOL   C48512079   3.233   3.528   8.112  0.6217 -0.1203 -0.1552
   18MOL   O48612080   3.338   3.494   8.161  0.0089  0.2119  0.1205
   18MOL   C48712081   3.206   3.539   7.966 -0.5325 -0.0335  0.1388
   18MOL   C48812082   3.312   3.578   7.872 -0.5034 -0.2772 -0.2842
   18MOL   C48912083   3.278   3.604   7.738 -1.0864  0.3053  0.9229
   18MOL   C49012084   3.138   3.591   7.694  0.1508 -1.0807  0.5239
   18MOL   O49112085   3.106   3.603   7.563  0.1688  0.3961  0.1447
   18MOL   C49212086   3.038   3.720   7.538 -0.6213  0.4190  0.1142
   18MOL   C49312087   2.905   3.713   7.500  0.4643  0.3340  0.3572
   18MOL   C49412088   2.838   3.829   7.468 -0.4574  0.3611  1.2386
   18MOL   C49512089   2.902   3.958   7.479 -0.1039  0.1458  0.3804
   18MOL   C49612090   3.041   3.964   7.514 -0.2585  0.7639  0.3805
   18MOL   C49712091   3.104   3.846   7.551  0.2843 -0.3446  0.1901
   18MOL   C49812092   3.047   3.541   7.788  0.2450 -0.2223  0.5567
   18MOL   C49912093   3.077   3.514   7.919  0.4549  0.1566 -0.2048
   18MOL   H50012094   3.055   3.757   8.113 -1.6513  4.0038  1.6694
   18MOL   H50112095   2.944   3.844   0.002 -1.3991 -0.9255  2.9447
   18MOL   H50212096   3.040   3.493   0.218 -0.6917 -3.1005 -1.9051
   18MOL   H50312097   3.200   3.439   0.046  0.5880 -1.3541 -2.1229
   18MOL   H50412098   3.409   3.609   7.908 -1.4292  0.8751  1.2725
   18MOL   H50512099   3.361   3.634   7.677 -1.7454 -1.1512 -0.7270
   18MOL   H50612100   2.860   3.616   7.481  0.2948  0.2840  1.0291
   18MOL   H50712101   2.734   3.818   7.441 -0.2664  1.5318 -0.0162
   18MOL   H50812102   3.077   4.063   7.538  1.7539  0.2377 -0.4063
   18MOL   H50912103   3.209   3.840   7.577  1.1752 -2.6624 -3.5816
   18MOL   H51012104   2.944   3.529   7.755 -0.2926  3.0303  0.8594
   18MOL   H51112105   2.995   3.477   7.978 -1.2041  1.4547 -1.6487
   18MOL   C51212106   2.471   4.060   7.535 -0.1866 -0.0857  0.6421
   18MOL   C51312107   2.610   4.059   7.554 -0.0616  0.2821  0.0760
   18MOL   C51412108   2.699   4.083   7.443  0.1839 -0.0864  0.5231
   18MOL   O51512109   2.833   4.079   7.455  0.1795 -0.0663  0.4139
   18MOL   C51612110   2.642   4.120   7.317  0.4027 -0.2450 -0.9428
   18MOL   C51712111   2.503   4.107   7.298 -0.1443  0.0788 -0.0494
   18MOL   C51812112   2.418   4.095   7.413 -0.1199  0.1744  0.8314
   18MOL   C51912113   2.265   4.101   7.396 -0.4520 -0.1717  0.4008
   18MOL   O52012114   2.193   4.021   7.452 -0.4231 -0.3815 -0.0992
   18MOL   C52112115   2.206   4.192   7.293 -0.3214 -0.2343 -0.2450
   18MOL   C52212116   2.227   4.329   7.296  0.0565  0.6510  0.3579
   18MOL   C52312117   2.182   4.405   7.191 -0.9984 -0.3456 -0.0862
   18MOL   C52412118   2.103   4.351   7.090 -0.2715 -0.3736 -0.5905
   18MOL   O52512119   2.043   4.430   6.994 -0.4213 -0.3112 -0.3699
   18MOL   C52612120   2.113   4.491   6.893  0.4907 -0.2267 -0.1828
   18MOL   C52712121   2.036   4.542   6.787  0.0451  0.4769  0.1270
   18MOL   C52812122   2.097   4.613   6.682  0.1474  0.0658  0.5759
   18MOL   C52912123   2.237   4.611   6.672 -0.3203  0.4113  0.5449
   18MOL   C53012124   2.315   4.540   6.768  0.2821  0.3323  0.5557
   18MOL   C53112125   2.251   4.493   6.884 -0.2786 -0.6092  0.1386
   18MOL   C53212126   2.085   4.217   7.082 -0.6122  0.0513  0.1473
   18MOL   C53312127   2.136   4.135   7.184  0.2541 -0.5750 -0.2887
   18MOL   H53412128   2.404   4.023   7.611  0.7284  0.2077  1.5934
   18MOL   H53512129   2.648   4.033   7.651  0.8712  0.6116 -0.1998
   18MOL   H53612130   2.706   4.166   7.243  0.6576  0.9587  0.0067
   18MOL   H53712131   2.458   4.126   7.202  2.1103 -0.3448 -1.2144
   18MOL   H53812132   2.273   4.374   7.382 -1.4388  3.6830 -0.3405
   18MOL   H53912133   2.195   4.511   7.209  0.5893 -0.9180  2.3727
   18MOL   H54012134   1.929   4.526   6.786 -0.0916  1.3386  0.0200
   18MOL   H54112135   2.031   4.657   6.609 -0.7466 -2.1138  0.0250
   18MOL   H54212136   2.422   4.545   6.758  0.0958  0.5287 -1.5821
   18MOL   H54312137   2.313   4.457   6.964  2.3871 -0.6412 -1.8676
   18MOL   H54412138   2.035   4.182   6.993 -0.7245 -0.7900  0.5381
   18MOL   H54512139   2.123   4.027   7.185 -0.2335 -0.5175  0.5811
   18MOL   C54612140   2.092   4.739   6.255 -0.1636 -0.0787 -0.3576
   18MOL   C54712141   2.159   4.761   6.372  0.2119 -0.3921  0.0083
   18MOL   C54812142   2.228   4.653   6.436  0.6673  0.1542 -0.0912
   18MOL   O54912143   2.289   4.674   6.558 -0.5140 -0.2703 -0.5517
   18MOL   C55012144   2.217   4.524   6.387 -0.7370  0.5898  0.2038
   18MOL   C55112145   2.150   4.498   6.270 -0.4616  0.0295  0.1836
   18MOL   C55212146   2.088   4.606   6.201 -0.0372 -0.0926 -0.2267
   18MOL   C55312147   2.014   4.577   6.076 -0.1220  0.0168 -0.3981
   18MOL   O55412148   2.000   4.657   5.983  0.1189 -0.5424  0.0594
   18MOL   C55512149   1.981   4.438   6.052 -0.3951  0.4846 -0.6837
   18MOL   C55612150   2.015   4.378   5.929 -0.0014 -0.2062 -0.1345
   18MOL   C55712151   1.985   4.249   5.908  0.2223 -0.1701 -0.3910
   18MOL   C55812152   1.929   4.168   6.007  0.5504 -0.4045 -0.3128
   18MOL   O55912153   1.904   4.030   5.977 -0.4332 -0.0000  0.0104
   18MOL   C56012154   1.780   4.005   5.924 -0.7819 -0.0932  1.2308
   18MOL   C56112155   1.756   4.038   5.791 -0.3889 -0.6535 -0.1763
   18MOL   C56212156   1.636   3.987   5.731  0.3696  0.2883 -0.7523
   18MOL   C56312157   1.545   3.910   5.799 -0.1729  0.1888 -0.4997
   18MOL   C56412158   1.565   3.884   5.937  0.0061 -0.0684 -0.0239
   18MOL   C56512159   1.682   3.935   5.998  0.4117 -0.6200 -0.0902
   18MOL   C56612160   1.907   4.224   6.128  0.2566  0.1088 -0.1983
   18MOL   C56712161   1.916   4.359   6.148 -0.4707  0.7519 -0.0118
   18MOL   H56812162   2.033   4.823   6.220  1.2619  0.3266 -1.8196
   18MOL   H56912163   2.169   4.862   6.406  3.1455 -0.0574 -1.6363
   18MOL   H57012164   2.248   4.438   6.444 -1.3016 -0.6172 -1.2459
   18MOL   H57112165   2.147   4.396   6.236 -0.8492  0.9108 -2.5162
   18MOL   H57212166   2.064   4.434   5.850  2.5184 -1.0243  0.8184
   18MOL   H57312167   2.009   4.203   5.814  1.0890 -1.2578  0.3430
   18MOL   H57412168   1.821   4.104   5.737  0.8422 -2.1717 -0.5691
   18MOL   H57512169   1.613   4.013   5.628 -1.3557 -1.3952 -0.8249
   18MOL   H57612170   1.495   3.834   6.001 -0.1758  0.2444  0.0222
   18MOL   H57712171   1.704   3.914   6.102 -1.1118 -2.5417 -0.1309
   18MOL   H57812172   1.871   4.156   6.205 -2.0154  0.3615 -1.0014
   18MOL   H57912173   1.886   4.399   6.244 -1.9135  0.2414 -0.2495
   18MOL   C58012174   1.170   4.121   5.673  0.1888 -0.2151  0.0264
   18MOL   C58112175   1.262   4.042   5.741 -0.1280  0.0862 -0.1441
   18MOL   C58212176   1.348   3.953   5.669 -0.0354  0.4078 -0.1461
   18MOL   O58312177   1.431   3.864   5.738  0.5769 -0.3071 -0.4933
   18MOL   C58412178   1.340   3.947   5.532 -0.5755  0.4430 -0.3737
   18MOL   C58512179   1.272   4.043   5.463 -0.2400 -0.4967  0.1932
   18MOL   C58612180   1.178   4.126   5.527 -0.2029  0.6413  0.4649
   18MOL   C58712181   1.087   4.218   5.442  0.0799 -0.0604  0.2324
   18MOL   O58812182   1.033   4.172   5.341  0.1796  0.2443 -0.3524
   18MOL   C58912183   1.059   4.359   5.489  0.0541 -0.2894 -0.2399
   18MOL   C59012184   0.938   4.416   5.464 -0.2593  0.1838  0.5674
   18MOL   C59112185   0.906   4.546   5.497 -0.1394 -0.5604  0.1296
   18MOL   C59212186   1.002   4.633   5.563  0.6408 -0.5794 -0.9173
   18MOL   O59312187   0.969   4.766   5.587  0.0340 -0.2722  0.0349
   18MOL   C59412188   1.013   4.817   5.706 -0.5389 -0.8233 -0.6292
   18MOL   C59512189   1.006   4.751   5.834 -0.6591 -0.2478 -0.6913
   18MOL   C59612190   1.052   4.808   5.950 -0.3315  0.0660  0.0963
   18MOL   C59712191   1.110   4.936   5.947 -0.2187 -0.5538 -0.1384
   18MOL   C59812192   1.103   5.013   5.828 -0.0657 -0.0496  0.0167
   18MOL   C59912193   1.051   4.955   5.706  0.3743  0.5867 -0.1510
   18MOL   C60012194   1.131   4.573   5.585 -0.1373  0.2160  0.0999
   18MOL   C60112195   1.158   4.441   5.550 -0.1761  0.2897 -0.0329
   18MOL   H60212196   1.103   4.192   5.721  0.2455 -1.6133  2.2422
   18MOL   H60312197   1.267   4.052   5.849  3.2491  2.5270 -0.4621
   18MOL   H60412198   1.399   3.878   5.474 -0.2535 -1.1380  1.7705
   18MOL   H60512199   1.272   4.048   5.355 -0.7113 -0.9975  0.1661
   18MOL   H60612200   0.864   4.356   5.413 -0.8411  0.8595  0.6044
   18MOL   H60712201   0.810   4.575   5.457 -0.1532 -1.0948 -0.2256
   18MOL   H60812202   0.963   4.652   5.841  1.5947 -1.3218 -1.5982
   18MOL   H60912203   1.032   4.752   6.041  0.3843  1.0742  0.8891
   18MOL   H61012204   1.149   5.110   5.831  0.5232 -0.3355  0.2130
   18MOL   H61112205   1.079   5.004   5.614  0.6290  1.8801  0.5982
   18MOL   H61212206   1.206   4.643   5.619  2.0325 -0.5320 -2.9169
   18MOL   H61312207   1.257   4.402   5.566 -0.6205 -0.2861  1.3451
   18MOL   C61412208   1.523   4.901   6.042 -0.3268  0.2049  0.2446
   18MOL   C61512209   1.392   4.941   5.995 -0.3045 -0.0833  0.0165
   18MOL   C61612210   1.289   4.942   6.094  0.8871 -0.4860  0.6335
   18MOL   O61712211   1.165   4.985   6.063  0.1232 -0.4478  0.4293
   18MOL   C61812212   1.307   4.897   6.222  0.0092 -0.7122 -0.6177
   18MOL   C61912213   1.432   4.853   6.262 -0.1824 -0.3160 -0.3664
   18MOL   C62012214   1.539   4.849   6.170  0.5291  0.4978  0.1548
   18MOL   C62112215   1.673   4.798   6.206 -0.7088  0.7327 -1.1784
   18MOL   O62212216   1.778   4.840   6.155  0.1515  0.4216  0.1394
   18MOL   C62312217   1.673   4.697   6.312 -0.0770  0.2953 -0.4382
   18MOL   C62412218   1.705   4.712   6.449 -0.2815 -0.3276  0.1301
   18MOL   C62512219   1.701   4.611   6.544 -0.3270  0.1315 -0.0643
   18MOL   C62612220   1.656   4.484   6.504  0.2992  0.1782  0.6028
   18MOL   O62712221   1.653   4.382   6.593 -0.1231  0.6418 -0.4044
   18MOL   C62812222   1.722   4.265   6.554  0.4243  0.5259  0.4288
   18MOL   C62912223   1.856   4.261   6.549  0.0194 -0.1471 -0.5893
   18MOL   C63012224   1.924   4.153   6.501  0.1257  0.3134 -0.2709
   18MOL   C63112225   1.857   4.043   6.442 -0.5026 -0.0888  0.4842
   18MOL   C63212226   1.714   4.041   6.446 -0.1307  0.1322 -0.1806
   18MOL   C63312227   1.651   4.148   6.515  0.0199 -0.2810  0.0623
   18MOL   C63412228   1.625   4.463   6.365  0.9071  0.8628 -0.1082
   18MOL   C63512229   1.631   4.565   6.270  0.4523  0.1423 -0.0538
   18MOL   H63612230   1.609   4.908   5.976 -0.5370  0.6316  0.0104
   18MOL   H63712231   1.382   4.991   5.900  1.4703  2.8442  1.3063
   18MOL   H63812232   1.225   4.899   6.291  0.0575  3.4334 -0.5625
   18MOL   H63912233   1.435   4.812   6.362  0.2520 -1.9283 -1.0179
   18MOL   H64012234   1.737   4.809   6.485 -2.6915  0.8021 -0.6188
   18MOL   H64112235   1.739   4.613   6.645  1.7653 -0.9559 -0.7949
   18MOL   H64212236   1.909   4.354   6.566 -1.1062  0.3850  0.0959
   18MOL   H64312237   2.030   4.159   6.481  0.3371 -0.2929  0.6359
   18MOL   H64412238   1.660   3.960   6.400  1.2709  1.0145 -3.5632
   18MOL   H64512239   1.546   4.176   6.519  0.7214  2.3033  1.5717
   18MOL   H64612240   1.589   4.364   6.341  1.8923  0.6325 -0.6973
   18MOL   H64712241   1.613   4.538   6.167 -0.4046 -0.8447  0.3472
   18MOL   C64812242   1.975   3.658   6.591 -0.6492  0.2326 -0.2868
   18MOL   C64912243   1.930   3.783   6.556  0.5382 -0.6235 -0.3849
   18MOL   C65012244   1.956   3.826   6.419 -0.3762  0.1720  0.5472
   18MOL   O65112245   1.933   3.953   6.373 -0.4308  0.2146  0.3650
   18MOL   C65212246   2.009   3.728   6.329 -0.4561  0.0506  0.6486
   18MOL   C65312247   2.049   3.602   6.371  0.1040 -0.4982  0.4714
   18MOL   C65412248   2.036   3.567   6.506 -0.4422  0.8759  0.1536
   18MOL   C65512249   2.089   3.434   6.547 -0.9314  0.2969  0.4180
   18MOL   O65612250   2.099   3.350   6.461  0.5781 -0.2612  0.1166
   18MOL   C65712251   2.151   3.406   6.687  0.0264 -0.1121 -0.4551
   18MOL   C65812252   2.142   3.274   6.742  0.6383 -0.2179  0.0335
   18MOL   C65912253   2.211   3.241   6.862  0.5836  0.3764 -0.4949
   18MOL   C66012254   2.282   3.341   6.938 -0.0522 -0.3425 -0.0792
   18MOL   O66112255   2.348   3.306   7.054  0.5540  0.4362 -0.4910
   18MOL   C66212256   2.449   3.213   7.038  0.3922 -0.1177  0.0053
   18MOL   C66312257   2.540   3.226   6.933  0.4067  0.1757  0.0973
   18MOL   C66412258   2.638   3.131   6.905 -0.5017 -0.0457  0.2320
   18MOL   C66512259   2.639   3.019   6.991  0.2224  0.4977 -0.3557
   18MOL   C66612260   2.550   3.008   7.103 -0.2376 -0.8259  0.3415
   18MOL   C66712261   2.454   3.106   7.126  0.0204 -0.6035 -0.1267
   18MOL   C66812262   2.278   3.475   6.884  0.4264  0.8552  1.0862
   18MOL   C66912263   2.223   3.504   6.756  0.3400  0.3767  0.7613
   18MOL   H67012264   1.981   3.623   6.693 -0.3645  0.5771 -0.1835
   18MOL   H67112265   1.889   3.850   6.630  1.2529 -0.6298  0.0326
   18MOL   H67212266   2.027   3.762   6.228 -0.2509 -0.1236  0.6283
   18MOL   H67312267   2.105   3.539   6.304 -0.7356 -0.9197  0.1624
   18MOL   H67412268   2.084   3.194   6.698 -1.5713 -1.3984  4.7787
   18MOL   H67512269   2.204   3.139   6.898  1.5396  0.5868  0.3085
   18MOL   H67612270   2.532   3.313   6.870 -1.7667  1.0412  1.4979
   18MOL   H67712271   2.690   3.137   6.811  2.0440  0.9713  1.6765
   18MOL   H67812272   2.565   2.924   7.169  1.2630 -1.3681 -0.6432
   18MOL   H67912273   2.387   3.095   7.210 -1.4195 -0.7627 -1.2855
   18MOL   H68012274   2.328   3.555   6.937  1.5208  0.9818 -0.1158
   18MOL   H68112275   2.227   3.605   6.717 -2.2005  0.0095 -0.5292
   18MOL   H68212276   2.718   2.949   6.969  1.4949  1.9369 -0.4928
   19MOL     C112277   6.674   0.713   3.815  0.0740 -0.5366 -0.3472
   19MOL     C212278   6.722   0.844   3.782  0.1640  0.7126  0.2955
   19MOL     C312279   6.693   0.912   3.661 -0.0390 -0.5109 -0.0311
   19MOL     O412280   6.749   1.032   3.635 -0.0365  0.3524 -0.0100
   19MOL     C512281   6.619   0.838   3.560 -0.1701 -0.1368 -0.6822
   19MOL     C612282   6.578   0.706   3.589  0.0731 -0.1934  0.0597
   19MOL     C712283   6.608   0.647   3.708  0.2159 -0.7593  0.2217
   19MOL     C812284   6.588   0.498   3.737 -0.3090 -0.5023  0.2882
   19MOL     O912285   6.532   0.462   3.844  0.1227  0.2259  0.3338
   19MOL    C1012286   6.623   0.394   3.634 -0.4537  0.1568  0.5441
   19MOL    C1112287   6.727   0.425   3.546 -0.1546 -0.6482  0.0609
   19MOL    C1212288   6.774   0.330   3.452  0.7594 -0.3181  0.4029
   19MOL    C1312289   6.714   0.204   3.436 -0.6181 -0.4686 -0.8677
   19MOL    O1412290   6.755   0.117   3.336  0.1723 -0.2195 -0.2165
   19MOL    C1512291   6.852   0.025   3.365  0.6275  0.2581  0.7304
   19MOL    C1612292   6.978   0.042   3.305  0.9143 -0.5487  0.0471
   19MOL    C1712293   7.084   8.274   3.346 -0.3461 -0.0952  0.1702
   19MOL    C1812294   7.066   8.170   3.441  0.5840 -0.6482  0.2123
   19MOL    C1912295   6.937   8.156   3.493  0.7789  0.6572 -0.1019
   19MOL    C2012296   6.830   8.244   3.461 -0.1586 -0.1534  0.8109
   19MOL    C2112297   6.612   0.169   3.522 -0.1811  0.0370 -0.2485
   19MOL    C2212298   6.568   0.266   3.622  0.3720  0.5655  0.2548
   19MOL    H2312299   6.687   0.678   3.916 -0.5854 -0.5387 -0.2578
   19MOL    H2412300   6.784   0.891   3.857 -1.1193  3.0509 -0.0717
   19MOL    H2512301   6.600   0.894   3.469 -0.4162 -0.1722 -0.6530
   19MOL    H2612302   6.537   0.647   3.508 -2.3184  2.4134 -0.6931
   19MOL    H2712303   6.784   0.516   3.549 -0.4270 -0.4422 -0.9369
   19MOL    H2812304   6.853   0.344   3.381  2.5829 -2.7495  1.8639
   19MOL    H2912305   7.006   0.116   3.231 -1.8748  0.2233 -0.2727
   19MOL    H3012306   7.181   8.290   3.301 -1.3214  0.1288 -1.9048
   19MOL    H3112307   6.916   8.081   3.568  0.1908  1.5339  0.6086
   19MOL    H3212308   6.735   8.241   3.513 -0.1106  2.1442  1.0950
   19MOL    H3312309   6.563   0.074   3.512 -0.4196  0.0238  0.9755
   19MOL    H3412310   6.493   0.232   3.692 -0.4692  0.4587 -0.6774
   19MOL    H3512311   6.695   1.099   3.674  3.7422  2.6560  1.6440
   19MOL    C3612312   7.391   8.297   3.697 -0.1414  0.3040  0.2707
   19MOL    C3712313   7.332   8.245   3.578 -0.2482 -0.1379 -0.0771
   19MOL    C3812314   7.242   8.137   3.593 -0.1702 -0.0704  0.8281
   19MOL    O3912315   7.164   8.086   3.489  0.0317 -0.1424  0.5544
   19MOL    C4012316   7.226   8.072   3.718  0.5381 -0.1741 -0.6567
   19MOL    C4112317   7.295   8.112   3.828  0.7023  0.3107 -0.2260
   19MOL    C4212318   7.380   8.226   3.818 -0.5752  0.8121  0.5064
   19MOL    C4312319   7.468   8.255   3.937  0.3805  0.4941  0.1014
   19MOL    O4412320   7.423   8.253   4.052  0.5964  0.1403 -0.0569
   19MOL    C4512321   7.611   8.288   3.906  0.0397 -0.3719  0.2619
   19MOL    C4612322   7.671   0.080   3.975  0.0470  0.2562 -0.9279
   19MOL    C4712323   7.800   0.124   3.950  0.5747  0.3541 -0.0800
   19MOL    C4812324   7.878   0.060   3.852 -0.2752  0.3811 -0.3666
   19MOL    O4912325   8.005   0.100   3.839 -0.0090 -0.3232  0.1735
   19MOL    C5012326   8.055   0.120   3.707  0.5062 -0.6974 -0.4148
   19MOL    C5112327   7.997   0.218   3.625 -0.6231 -0.0659  0.4489
   19MOL    C5212328   8.055   0.254   3.505  0.4285  0.2912 -0.5021
   19MOL    C5312329   8.160   0.175   3.452 -0.0453 -0.3080 -0.0793
   19MOL    C5412330   8.208   0.061   3.527 -0.4683  0.4432 -0.1224
   19MOL    C5512331   8.156   0.035   3.658  0.1160 -0.0011  0.6053
   19MOL    C5612332   7.811   8.272   3.778  0.0751 -0.6776 -0.3565
   19MOL    C5712333   7.677   8.234   3.796  0.2354 -0.1583 -0.0498
   19MOL    H5812334   7.453   0.072   3.700  1.4542 -0.7329 -1.3665
   19MOL    H5912335   7.340   8.288   3.479  1.6782  0.0733  0.1537
   19MOL    H6012336   7.158   7.989   3.733 -1.6810  1.5787 -0.9167
   19MOL    H6112337   7.271   8.071   3.924 -1.6871  1.7085 -0.1872
   19MOL    H6212338   7.616   0.118   4.060  0.6101 -1.7406  0.3555
   19MOL    H6312339   7.845   0.187   4.025 -2.3271  0.9767  1.2012
   19MOL    H6412340   7.914   0.276   3.665 -0.9885 -0.4083  0.1876
   19MOL    H6512341   8.024   0.337   3.443  2.0657  0.8869 -0.5355
   19MOL    H6612342   8.286   0.003   3.480  0.5534  1.6931  0.0043
   19MOL    H6712343   8.210   8.274   3.716  1.4074  1.7937  1.6950
   19MOL    H6812344   7.856   8.225   3.691  0.4023 -2.8449  0.9578
   19MOL    H6912345   7.634   8.154   3.738  0.1323  1.2651 -2.0148
   19MOL    C7012346   7.999   0.087   3.050  0.2625 -0.2471  0.0784
   19MOL    C7112347   8.076   0.081   3.169  0.7582 -0.1267 -0.2303
   19MOL    C7212348   8.147   0.195   3.215 -0.0114  0.0096 -0.2568
   19MOL    O7312349   8.220   0.197   3.330  0.6348 -0.1813 -0.2227
   19MOL    C7412350   8.143   0.312   3.139 -0.2180 -0.1381 -0.0500
   19MOL    C7512351   8.067   0.314   3.014 -0.2697  0.7619 -0.4699
   19MOL    C7612352   7.991   0.205   2.971 -0.1861  0.2840 -0.1919
   19MOL    C7712353   7.884   0.199   2.860 -0.2683  0.4833 -0.0718
   19MOL    O7812354   7.874   0.102   2.781 -0.0952 -0.3830  0.3012
   19MOL    C7912355   7.787   0.316   2.850  0.3873 -0.2947  1.1707
   19MOL    C8012356   7.739   0.368   2.721  0.1751  0.7898  0.3942
   19MOL    C8112357   7.664   0.482   2.715  0.6374 -0.1511 -0.1567
   19MOL    C8212358   7.626   0.550   2.834  0.0619  0.0261  0.1683
   19MOL    O8312359   7.547   0.658   2.840  0.3100  0.5101 -0.7434
   19MOL    C8412360   7.540   0.751   2.737 -0.4835 -0.2615 -0.3480
   19MOL    C8512361   7.414   0.796   2.709  0.8917 -0.2922  0.1286
   19MOL    C8612362   7.397   0.903   2.615 -0.0487 -0.1410  0.6505
   19MOL    C8712363   7.503   0.966   2.550 -0.4304  0.7585  0.0640
   19MOL    C8812364   7.627   0.911   2.575  0.1428 -0.1590 -0.6900
   19MOL    C8912365   7.652   0.807   2.668  0.6485  0.6254  0.2806
   19MOL    C9012366   7.669   0.495   2.962  0.8889  0.2851  0.3374
   19MOL    C9112367   7.755   0.382   2.970 -0.1662  0.2281  0.1908
   19MOL    H9212368   7.944   8.311   3.022  1.6848 -0.9752 -0.4582
   19MOL    H9312369   8.081   8.301   3.224 -1.3606  0.4358  0.9781
   19MOL    H9412370   8.205   0.390   3.180 -0.3695 -1.2059  2.2689
   19MOL    H9512371   8.067   0.398   2.946  0.9867 -0.4230 -1.9612
   19MOL    H9612372   7.770   0.334   2.624 -0.9705 -0.9895  0.6096
   19MOL    H9712373   7.646   0.524   2.617  0.7685 -0.6789 -0.4097
   19MOL    H9812374   7.324   0.770   2.763 -1.4932  1.6654 -2.7394
   19MOL    H9912375   7.299   0.947   2.604  1.3065  2.5507 -1.2459
   19MOL   H10012376   7.719   0.950   2.534  1.1042 -4.2432 -2.6053
   19MOL   H10112377   7.745   0.753   2.679  0.1321 -0.0040  1.7442
   19MOL   H10212378   7.635   0.558   3.044 -1.6322  2.0828 -1.9979
   19MOL   H10312379   7.781   0.340   3.066  1.4067 -2.0621 -1.1959
   19MOL   C10412380   7.408   0.971   2.122 -0.3123 -0.9351 -0.0061
   19MOL   C10512381   7.478   0.991   2.247 -0.1184  0.0288 -0.8469
   19MOL   C10612382   7.409   1.044   2.351  0.0657 -0.2566 -0.1093
   19MOL   O10712383   7.488   1.074   2.464  0.1107  0.2757 -0.3753
   19MOL   C10812384   7.270   1.071   2.341 -0.3481 -0.5951 -0.6885
   19MOL   C10912385   7.199   1.032   2.227  0.4196 -0.5684  0.6922
   19MOL   C11012386   7.270   0.982   2.115  0.1305 -0.6059  0.2619
   19MOL   C11112387   7.198   0.947   1.987 -0.4101 -0.1297 -0.6341
   19MOL   O11212388   7.121   1.028   1.943 -0.5569 -0.6683  0.2793
   19MOL   C11312389   7.227   0.817   1.918 -0.3866 -0.5307  0.0448
   19MOL   C11412390   7.171   0.784   1.791 -0.5297 -0.7576  0.0572
   19MOL   C11512391   7.197   0.664   1.720 -0.0565 -0.0381  0.3189
   19MOL   C11612392   7.286   0.575   1.775  0.0700 -0.2654  1.3386
   19MOL   O11712393   7.326   0.458   1.716  0.5567  0.3539 -0.1484
   19MOL   C11812394   7.241   0.388   1.633 -0.4579  0.0540  0.6562
   19MOL   C11912395   7.281   0.378   1.501  0.0457  0.1282 -0.2494
   19MOL   C12012396   7.188   0.316   1.410  0.7592 -0.7150 -0.6408
   19MOL   C12112397   7.066   0.262   1.447 -0.3476  0.4341 -0.3744
   19MOL   C12212398   7.032   0.271   1.580 -0.3549 -0.5316 -0.6137
   19MOL   C12312399   7.112   0.333   1.671 -0.0937 -0.3110  0.1089
   19MOL   C12412400   7.334   0.600   1.907 -0.0108  0.5922  0.6760
   19MOL   C12512401   7.310   0.718   1.977 -0.1401 -0.9815 -0.2332
   19MOL   H12612402   7.474   0.941   2.042 -0.2443 -0.3972 -0.1564
   19MOL   H12712403   7.583   0.966   2.253 -0.1154  0.5394  2.9799
   19MOL   H12812404   7.224   1.128   2.419 -0.1427 -0.4101 -0.7025
   19MOL   H12912405   7.091   1.036   2.230  0.4334  1.5503 -0.8756
   19MOL   H13012406   7.107   0.855   1.741 -1.2885 -2.5967 -1.6419
   19MOL   H13112407   7.146   0.648   1.626  0.0498  0.9022  0.0956
   19MOL   H13212408   7.372   0.429   1.475  0.5548 -1.9824 -2.7790
   19MOL   H13312409   7.210   0.342   1.307  0.6224  2.2362  0.0482
   19MOL   H13412410   6.945   0.217   1.614 -0.5745  0.6500  0.7581
   19MOL   H13512411   7.072   0.338   1.771 -1.2761 -0.8872 -0.3355
   19MOL   H13612412   7.396   0.520   1.944 -0.5671 -0.6577 -0.9985
   19MOL   H13712413   7.341   0.723   2.080 -2.4133  0.5722  0.4202
   19MOL   C13812414   6.993   0.246   0.996  0.2793 -0.1561  0.1324
   19MOL   C13912415   7.011   0.189   1.124 -0.6991 -0.1249 -0.0665
   19MOL   C14012416   6.956   0.254   1.239  0.0475 -0.8149 -0.1999
   19MOL   O14112417   6.974   0.201   1.363 -0.2397 -0.5158 -0.4031
   19MOL   C14212418   6.880   0.376   1.222 -0.1291  0.3518 -0.0015
   19MOL   C14312419   6.864   0.427   1.089 -0.7762  0.4044 -0.4702
   19MOL   C14412420   6.920   0.364   0.979  0.1581 -0.2946 -0.1862
   19MOL   C14512421   6.903   0.416   0.844 -0.2817 -0.5576  0.4287
   19MOL   O14612422   6.937   0.354   0.742  0.0704 -1.1631 -0.1357
   19MOL   C14712423   6.832   0.545   0.823 -0.6011 -0.6419  0.7657
   19MOL   C14812424   6.857   0.676   0.881  0.2277  0.0703 -1.1363
   19MOL   C14912425   6.788   0.791   0.834  0.1730 -0.5364  0.3594
   19MOL   C15012426   6.677   0.783   0.746  0.2857  0.1482  0.0755
   19MOL   O15112427   6.604   0.895   0.707 -0.0358  0.5077 -0.1751
   19MOL   C15212428   6.527   0.969   0.798 -0.2811  0.6179  0.2684
   19MOL   C15312429   6.388   0.955   0.791  0.3190 -0.2184 -0.4993
   19MOL   C15412430   6.302   1.036   0.872  0.1544 -0.3347  0.2294
   19MOL   C15512431   6.363   1.117   0.970 -0.8511  0.5039 -0.3035
   19MOL   C15612432   6.505   1.131   0.977  0.0363 -0.5366  0.7329
   19MOL   C15712433   6.589   1.057   0.889  1.4292 -0.3730  0.3129
   19MOL   C15812434   6.639   0.655   0.696 -0.2207 -0.1689  0.1953
   19MOL   C15912435   6.713   0.539   0.741 -0.0813  0.6946  0.3895
   19MOL   H16012436   7.036   0.191   0.914 -0.2716 -0.7416  0.2307
   19MOL   H16112437   7.074   0.102   1.132  0.0469  0.2518 -1.7125
   19MOL   H16212438   6.829   0.428   1.302  1.1141  1.1163  0.3023
   19MOL   H16312439   6.809   0.519   1.079  0.4544  1.2076 -0.0237
   19MOL   H16412440   6.939   0.680   0.950 -1.2099  1.6323  0.5371
   19MOL   H16512441   6.813   0.889   0.870 -0.1338 -0.3570  0.0866
   19MOL   H16612442   6.342   0.890   0.718 -2.4086  1.6988 -0.5504
   19MOL   H16712443   6.195   1.047   0.867  0.2315  0.2576 -0.2067
   19MOL   H16812444   6.546   1.197   1.052 -1.7398 -1.4764  2.5474
   19MOL   H16912445   6.697   1.064   0.892  1.3173  0.7810  2.0335
   19MOL   H17012446   6.557   0.646   0.626 -0.9435  1.0229  0.8823
   19MOL   H17112447   6.690   0.435   0.722  0.4906  0.7695 -0.7218
   19MOL   C17212448   5.975   1.337   0.966 -0.3303  0.6347 -0.9500
   19MOL   C17312449   6.065   1.234   1.009  0.5460 -0.0344  0.3456
   19MOL   C17412450   6.201   1.270   1.029 -0.3330 -1.0917 -0.5471
   19MOL   O17512451   6.295   1.180   1.069 -0.0353 -0.2386 -0.9492
   19MOL   C17612452   6.248   1.403   1.010  0.1598  0.3653  0.2286
   19MOL   C17712453   6.162   1.502   0.977 -0.2183  0.7042 -0.2090
   19MOL   C17812454   6.030   1.466   0.959  0.3502  0.2974 -0.0177
   19MOL   C17912455   5.940   1.580   0.930  0.8684 -0.3820  0.4575
   19MOL   O18012456   5.897   1.661   1.019 -0.5565 -0.3503  0.5839
   19MOL   C18112457   5.912   1.601   0.782 -1.0568 -0.1020  0.1022
   19MOL   C18212458   5.820   1.706   0.745  0.5768  0.5247 -0.2272
   19MOL   C18312459   5.798   1.735   0.607 -0.0233 -0.0083 -1.0160
   19MOL   C18412460   5.867   1.667   0.508  0.2416 -0.5172 -0.2802
   19MOL   O18512461   5.850   1.702   0.375 -0.2327  0.1226 -0.2354
   19MOL   C18612462   5.947   1.679   0.275  0.0755 -0.2063  0.3027
   19MOL   C18712463   5.934   1.571   0.187 -0.1786  0.0565 -0.3058
   19MOL   C18812464   6.034   1.539   0.087  0.2961 -0.2813 -0.4971
   19MOL   C18912465   6.146   1.623   0.083 -0.7443  0.1162  0.4083
   19MOL   C19012466   6.155   1.737   0.169 -0.0588  0.9813  0.2999
   19MOL   C19112467   6.064   1.760   0.272  0.7223 -0.0250  0.6040
   19MOL   C19212468   5.942   1.554   0.545  0.6380 -0.3743 -0.2758
   19MOL   C19312469   5.967   1.524   0.681 -0.4626  0.0829  0.7467
   19MOL   H19412470   5.868   1.327   0.954 -0.8510  2.8055  1.4232
   19MOL   H19512471   6.034   1.135   1.037 -2.0817  0.4195 -0.8380
   19MOL   H19612472   6.352   1.427   1.030  0.4793 -1.1356  0.4861
   19MOL   H19712473   6.198   1.603   0.965 -0.6429  0.7351 -1.2446
   19MOL   H19812474   5.773   1.773   0.816 -0.6814  0.0983 -0.6432
   19MOL   H19912475   5.737   1.822   0.590 -0.8420  0.3284  3.0115
   19MOL   H20012476   5.849   1.506   0.200  0.7824 -0.7177  2.7135
   19MOL   H20112477   6.022   1.448   0.031 -0.5024 -0.1227 -0.5927
   19MOL   H20212478   6.242   1.800   0.170  0.6037  0.0786 -0.1537
   19MOL   H20312479   6.085   1.841   0.340  1.2026 -0.3224  0.8138
   19MOL   H20412480   5.997   1.500   0.469  1.1722  0.0839 -0.2129
   19MOL   H20512481   6.021   1.434   0.703  1.3946  0.9034 -0.2912
   19MOL   C20612482   6.252   1.325   8.072 -0.4692 -0.2089 -0.0774
   19MOL   C20712483   6.244   1.454   8.129 -0.5394  0.0103 -0.6578
   19MOL   C20812484   6.276   1.482   8.263 -0.2041 -0.0985  0.9333
   19MOL   O20912485   6.254   1.604   0.001  0.4102  0.0381  0.0134
   19MOL   C21012486   6.327   1.376   0.024  0.3968 -1.0014  0.1454
   19MOL   C21112487   6.353   1.250   8.276  0.2405 -0.3284  0.4655
   19MOL   C21212488   6.300   1.223   8.147 -0.3497 -0.3564  0.1413
   19MOL   C21312489   6.314   1.083   8.081 -0.6817  0.0692 -0.5763
   19MOL   O21412490   6.230   1.040   8.005  0.3746 -0.6459  0.0031
   19MOL   C21512491   6.439   0.999   8.113 -0.4544  0.4346 -0.5389
   19MOL   C21612492   6.427   0.865   8.153  0.0456 -0.5602 -0.4870
   19MOL   C21712493   6.547   0.793   8.183 -0.3517  0.1623  0.5479
   19MOL   C21812494   6.675   0.848   8.171 -0.3403 -0.3407 -0.8078
   19MOL   O21912495   6.785   0.767   8.189 -0.3163  0.2199 -0.2460
   19MOL   C22012496   6.794   0.648   8.124 -0.8381 -0.5730  1.2048
   19MOL   C22112497   6.763   0.526   8.191 -0.2328  0.7157  0.2985
   19MOL   C22212498   6.785   0.401   8.135 -0.1936  0.1813 -0.5172
   19MOL   C22312499   6.832   0.397   8.000  0.0457 -0.6715  0.2961
   19MOL   C22412500   6.862   0.516   7.935  1.0856  1.0733 -0.1231
   19MOL   C22512501   6.851   0.638   7.996  0.1425  0.7658  0.0498
   19MOL   C22612502   6.687   0.983   8.129 -0.4611  0.3665 -0.0639
   19MOL   C22712503   6.569   1.059   8.095  0.1469  0.2815 -0.2301
   19MOL   H22812504   6.226   1.307   7.968  2.6344 -3.1111 -0.4665
   19MOL   H22912505   6.211   1.535   8.065 -1.2869  0.1651 -0.0848
   19MOL   H23012506   6.367   1.395   0.122  1.0479  2.7459 -0.7808
   19MOL   H23112507   6.405   1.172   0.017  1.6221  0.9627  1.0207
   19MOL   H23212508   6.323   0.837   8.161 -1.3497  4.8327  2.6325
   19MOL   H23312509   6.543   0.687   8.205  2.8266 -0.1313  0.0316
   19MOL   H23412510   6.715   0.535   8.287 -0.5297 -0.5771  0.2757
   19MOL   H23512511   6.754   0.311   8.185  0.1585  1.2371  1.6489
   19MOL   H23612512   6.875   0.517   7.828  0.1637 -1.3295 -0.2878
   19MOL   H23712513   6.871   0.730   7.943 -2.8867  2.0180  0.9580
   19MOL   H23812514   6.784   1.028   8.120 -0.3038  0.2420  0.9342
   19MOL   H23912515   6.568   1.161   8.060 -1.4424 -0.0845 -1.3263
   19MOL   C24012516   7.164   0.122   7.987  0.0573  0.1449  0.5854
   19MOL   C24112517   7.061   0.211   7.942  0.2765 -0.8467  0.4878
   19MOL   C24212518   6.928   0.179   7.972  0.3221  0.7547  0.0547
   19MOL   O24312519   6.835   0.272   7.935  0.0244 -0.2124  0.5916
   19MOL   C24412520   6.897   0.058   8.040 -0.1535  0.4953  0.2188
   19MOL   C24512521   7.000   8.290   8.099 -0.0072 -0.3842 -0.8527
   19MOL   C24612522   7.135   0.005   8.070 -0.0251  0.5450 -0.6532
   19MOL   C24712523   7.236   8.219   8.123  0.7986 -0.4193 -0.3992
   19MOL   O24812524   7.210   8.098   8.128 -0.1659 -0.1088 -0.5694
   19MOL   C24912525   7.364   8.266   8.179  0.1011  0.1898 -0.3629
   19MOL   C25012526   7.465   8.174   8.219 -0.3923 -0.2278  0.1732
   19MOL   C25112527   7.581   8.220   8.282  0.0324  0.0222 -0.2927
   19MOL   C25212528   7.606   0.041   8.295 -0.1449 -0.2392  0.2257
   19MOL   O25312529   7.730   0.078   0.031 -0.0094  0.0969  0.1534
   19MOL   C25412530   7.742   0.176   0.122 -0.1497  0.1550  0.1173
   19MOL   C25512531   7.648   0.201   0.223 -0.0568 -0.0385  0.0978
   19MOL   C25612532   7.658   0.320   0.300 -0.4700 -0.2158 -0.3728
   19MOL   C25712533   7.764   0.409   0.287  0.3404  0.0146 -0.0316
   19MOL   C25812534   7.854   0.380   0.185  0.6764  0.0450  0.1463
   19MOL   C25912535   7.842   0.269   0.100  0.1766 -0.2376 -0.0995
   19MOL   C26012536   7.517   0.129   8.253 -0.5977 -0.4428  0.1802
   19MOL   C26112537   7.393   0.089   8.198  0.2766 -0.7294 -0.3125
   19MOL   H26212538   7.265   0.134   7.950 -0.0795  1.4038  0.5712
   19MOL   H26312539   7.082   0.298   7.881 -0.6027 -1.4921 -0.7654
   19MOL   H26412540   6.794   0.036   8.065  0.7603 -2.0509  1.8985
   19MOL   H26512541   6.974   8.204   8.159 -0.5663 -0.1438 -0.7450
   19MOL   H26612542   7.459   8.070   8.191  2.3110  0.2652 -2.5522
   19MOL   H26712543   7.656   8.145   8.304 -0.1747 -0.1702 -0.2366
   19MOL   H26812544   7.560   0.140   0.239 -0.6520  1.2235  1.7315
   19MOL   H26912545   7.579   0.333   0.372 -1.4283 -0.4159 -1.3733
   19MOL   H27012546   7.935   0.444   0.154  2.3680 -2.2384 -0.2860
   19MOL   H27112547   7.911   0.243   0.021 -0.3522  0.3786 -0.7644
   19MOL   H27212548   7.539   0.235   8.258 -0.9575 -0.2553 -1.7690
   19MOL   H27312549   7.322   0.168   8.176 -0.2222 -1.1462 -0.1995
   19MOL   C27412550   7.825   0.846   0.185 -1.0953  0.5969  0.1005
   19MOL   C27512551   7.851   0.726   0.254 -0.5005  0.5112  1.2575
   19MOL   C27612552   7.743   0.637   0.278  0.2622  0.3176  0.7234
   19MOL   O27712553   7.768   0.524   0.355 -0.2690 -0.2380  0.4685
   19MOL   C27812554   7.611   0.673   0.238 -0.0699 -0.2311  0.5924
   19MOL   C27912555   7.594   0.787   0.166  0.1735  0.3807  0.8988
   19MOL   C28012556   7.696   0.882   0.142  0.9588  0.1846 -0.3268
   19MOL   C28112557   7.678   1.014   0.076  0.2042  0.0039  0.2560
   19MOL   O28212558   7.663   1.119   0.137 -0.0004  0.0757  0.5634
   19MOL   C28312559   7.670   1.003   8.248  0.0646 -1.4358 -1.0623
   19MOL   C28412560   7.626   1.130   8.192 -0.6511 -0.1152  0.2266
   19MOL   C28512561   7.604   1.130   8.057  0.2037 -0.1911 -0.7236
   19MOL   C28612562   7.627   1.025   7.974  0.6235  0.5882  0.1010
   19MOL   O28712563   7.612   1.043   7.843  0.3086  0.1278 -0.3254
   19MOL   C28812564   7.723   1.098   7.784 -0.2302 -0.2048 -0.5406
   19MOL   C28912565   7.732   1.232   7.761 -0.1805 -0.8485  0.4183
   19MOL   C29012566   7.849   1.278   7.684 -0.1935  0.0782  0.3398
   19MOL   C29112567   7.950   1.186   7.641 -0.2907 -0.1124 -0.2014
   19MOL   C29212568   7.946   1.052   7.683  0.2002 -0.0252 -0.5651
   19MOL   C29312569   7.833   1.008   7.756  0.0347 -0.9383  0.6752
   19MOL   C29412570   7.660   0.902   8.028 -0.1430  0.0922 -0.6243
   19MOL   C29512571   7.677   0.888   8.171  0.1011 -0.4241  0.0970
   19MOL   H29612572   7.897   0.927   0.181 -0.2305 -0.2279 -1.2839
   19MOL   H29712573   7.949   0.693   0.286 -0.8416 -0.4295  1.3463
   19MOL   H29812574   7.523   0.615   0.261 -0.4320  1.0174  2.4694
   19MOL   H29912575   7.492   0.808   0.138 -0.4907 -1.4618  1.9028
   19MOL   H30012576   7.613   1.222   8.247 -0.0549  1.4327 -2.1091
   19MOL   H30112577   7.553   1.215   8.014 -1.7100 -1.4308 -0.9676
   19MOL   H30212578   7.660   1.307   7.789  0.1535 -0.7266  0.9567
   19MOL   H30312579   7.864   1.382   7.659  0.2452 -0.1902 -0.5184
   19MOL   H30412580   8.024   0.986   7.647 -0.4713 -1.1857  0.0927
   19MOL   H30512581   7.817   0.904   7.779 -1.1010 -1.1831 -1.1627
   19MOL   H30612582   7.664   0.812   7.967 -1.3650 -0.5109  0.1715
   19MOL   H30712583   7.698   0.788   8.207 -2.7667 -1.1583 -0.2221
   19MOL   C30812584   8.137   1.113   7.234  0.3704  0.6937  0.2544
   19MOL   C30912585   8.155   1.160   7.365  0.0522  0.5502 -0.2995
   19MOL   C31012586   8.049   1.215   7.431  0.2473 -0.6876 -0.1919
   19MOL   O31112587   8.057   1.235   7.566  0.7887 -0.0405 -0.5647
   19MOL   C31212588   7.925   1.233   7.366 -0.0053 -0.3911  0.1748
   19MOL   C31312589   7.909   1.214   7.227 -0.7732 -0.8401  0.9713
   19MOL   C31412590   8.018   1.158   7.158 -0.5063  0.3609 -0.4624
   19MOL   C31512591   7.990   1.113   7.017 -0.8040  0.3218 -0.2094
   19MOL   O31612592   7.934   1.188   6.938 -0.2858 -0.0944 -0.0196
   19MOL   C31712593   8.025   0.976   6.966  0.2310  0.1033  0.3386
   19MOL   C31812594   8.095   0.964   6.840  0.8687  0.5997 -0.5607
   19MOL   C31912595   8.125   0.833   6.792 -0.3962 -0.4020 -0.2731
   19MOL   C32012596   8.110   0.724   6.884  0.5430  0.2064 -0.0884
   19MOL   O32112597   8.170   0.599   6.847 -0.5983 -0.3276  0.0682
   19MOL   C32212598   8.100   0.528   6.754 -0.4165 -0.3590  0.4447
   19MOL   C32312599   7.981   0.463   6.786 -0.2000 -0.5597  0.6274
   19MOL   C32412600   7.904   0.394   6.688  0.4906  0.2879  0.3181
   19MOL   C32512601   7.957   0.400   6.554 -0.3834  0.4224 -0.0641
   19MOL   C32612602   8.075   0.469   6.526  0.7521  0.4726  0.8775
   19MOL   C32712603   8.143   0.533   6.622 -0.1395  0.0207  0.2952
   19MOL   C32812604   8.051   0.740   7.005 -0.4307  0.2885 -0.1660
   19MOL   C32912605   8.000   0.865   7.046 -0.7435  0.4253 -0.0884
   19MOL   H33012606   8.220   1.066   7.183  0.2970 -0.1414  0.9052
   19MOL   H33112607   8.254   1.148   7.408 -0.9411 -0.3240  1.8097
   19MOL   H33212608   7.843   1.282   7.415  1.1254  1.3590  0.3421
   19MOL   H33312609   7.821   1.242   7.171  0.1485  0.2444  0.0268
   19MOL   H33412610   8.124   1.055   6.789 -0.6003  1.2642 -0.2404
   19MOL   H33512611   8.177   0.823   6.698 -0.9813 -2.4280 -0.3975
   19MOL   H33612612   7.960   0.465   6.892  2.6766 -0.9513  1.2500
   19MOL   H33712613   7.815   0.337   6.712 -1.6243  2.3021 -2.4062
   19MOL   H33812614   8.112   0.470   6.425 -0.7828 -2.0600  0.2387
   19MOL   H33912615   8.224   0.605   6.611  1.3997 -1.7265 -0.0950
   19MOL   H34012616   8.048   0.656   7.072  2.5001 -0.6220 -1.0634
   19MOL   H34112617   7.949   0.886   7.139  1.4725 -0.6572  1.4023
   19MOL   C34212618   8.134   0.059   6.428  0.2794  0.4915  0.6655
   19MOL   C34312619   8.042   0.144   6.481  0.8404  0.3144  0.1831
   19MOL   C34412620   7.965   0.227   6.398 -0.1947  0.0316 -0.6955
   19MOL   O34512621   7.892   0.329   6.453  0.6347  0.1832 -0.0567
   19MOL   C34612622   7.980   0.216   6.259 -0.1619  0.5458 -0.0357
   19MOL   C34712623   8.061   0.118   6.198 -0.0512  0.2880 -0.0508
   19MOL   C34812624   8.144   0.044   6.284  0.0311  0.4204 -0.0608
   19MOL   C34912625   8.250   8.259   6.230 -0.1555 -0.0685 -0.7971
   19MOL   O35012626   0.002   8.279   6.127  0.0222 -0.3526 -0.3693
   19MOL   C35112627   8.259   8.129   6.304 -0.1796  0.2394 -0.2443
   19MOL   C35212628   0.074   8.068   6.316 -0.2396  0.3709 -0.5752
   19MOL   C35312629   0.094   7.941   6.377 -0.0956  0.6796 -0.4458
   19MOL   C35412630   8.301   7.877   6.425  0.3403  0.6479 -0.0631
   19MOL   O35512631   0.008   7.743   6.461  0.0275  0.2621  0.1172
   19MOL   C35612632   8.246   7.649   6.399  0.4529  0.1977 -0.1778
   19MOL   C35712633   8.197   7.548   6.477 -0.3989 -0.4162  0.6410
   19MOL   C35812634   8.114   7.444   6.429 -0.0529  0.0336  0.3487
   19MOL   C35912635   8.081   7.446   6.289  0.3969 -0.2502 -0.2596
   19MOL   C36012636   8.131   7.547   6.207  0.8767 -0.4866 -0.6557
   19MOL   C36112637   8.209   7.650   6.264 -0.3802  0.5447  0.1829
   19MOL   C36212638   8.171   7.931   6.421  0.2459 -0.8103  0.4775
   19MOL   C36312639   8.149   8.056   6.359 -1.4063  0.2600 -0.6031
   19MOL   H36412640   8.198   8.306   6.484  2.0347 -0.1415 -1.9574
   19MOL   H36512641   8.031   0.154   6.588 -0.5507 -2.5098  0.3630
   19MOL   H36612642   7.925   0.282   6.194 -1.0226 -0.5872 -0.4742
   19MOL   H36712643   8.063   0.122   6.090  0.2688  2.6496  0.0156
   19MOL   H36812644   0.161   8.105   6.264 -0.6108  0.4736 -1.1194
   19MOL   H36912645   0.195   7.902   6.375 -0.3297 -0.0304  0.8563
   19MOL   H37012646   8.216   7.564   6.582 -1.4975  2.0827  0.4726
   19MOL   H37112647   8.081   7.364   6.494 -2.6582  0.8332  0.0532
   19MOL   H37212648   8.105   7.537   6.103 -1.8133  0.0502 -0.0871
   19MOL   H37312649   8.246   7.730   6.201 -2.0964  1.0391 -0.2236
   19MOL   H37412650   8.088   7.870   6.454 -0.3630  0.5038  1.3895
   19MOL   H37512651   8.048   8.093   6.343 -1.4641 -0.7086 -2.6196
   19MOL   C37612652   8.148   7.017   6.357 -0.1913  0.6861 -0.0591
   19MOL   C37712653   8.139   7.137   6.287  0.0785  0.6169 -0.1661
   19MOL   C37812654   8.017   7.215   6.287 -0.3231 -0.1507  0.2623
   19MOL   O37912655   8.014   7.341   6.228 -0.4930  0.1322  0.0925
   19MOL   C38012656   7.900   7.157   6.342  0.4953 -0.4000 -0.1386
   19MOL   C38112657   7.908   7.036   6.413  0.0385 -0.6192 -0.4650
   19MOL   C38212658   8.032   6.964   6.419  0.5653  0.0171 -0.6717
   19MOL   C38312659   8.035   6.830   6.486  0.7076  0.2821 -0.1207
   19MOL   O38412660   8.085   6.732   6.420  0.4334  0.0762 -0.5563
   19MOL   C38512661   7.985   6.811   6.626 -0.3915  0.4628 -0.3317
   19MOL   C38612662   7.952   6.681   6.673  0.1263 -0.0510 -0.5544
   19MOL   C38712663   7.921   6.661   6.812  0.4562 -0.2952  0.2414
   19MOL   C38812664   7.905   6.770   6.901  0.1619 -0.0706  0.0729
   19MOL   O38912665   7.867   6.737   7.030 -0.0313 -0.4101  0.1334
   19MOL   C39012666   7.970   6.732   7.123 -0.4896 -0.1849  0.2170
   19MOL   C39112667   7.998   6.609   7.183 -0.6395  0.6412  0.0556
   19MOL   C39212668   8.112   6.597   7.266  0.9048 -0.5369 -0.1918
   19MOL   C39312669   8.195   6.713   7.285 -0.4519 -0.0042 -0.8224
   19MOL   C39412670   8.163   6.836   7.224  0.0733 -0.0681 -0.0025
   19MOL   C39512671   8.047   6.849   7.142 -0.2685 -0.2796 -0.2112
   19MOL   C39612672   7.913   6.902   6.838 -0.0535  0.4617  0.7739
   19MOL   C39712673   7.967   6.923   6.710 -0.1032  0.2677 -0.1532
   19MOL   H39812674   8.244   6.969   6.372  0.0277  1.9251  3.0860
   19MOL   H39912675   8.224   7.179   6.237 -1.5863  1.9057 -2.0069
   19MOL   H40012676   7.810   7.217   6.347 -0.8094 -2.4919  2.8265
   19MOL   H40112677   7.817   6.998   6.458  0.2169  1.1649  1.5039
   19MOL   H40212678   7.973   6.608   6.597  0.8993 -0.1485 -0.2519
   19MOL   H40312679   7.904   6.559   6.843 -1.9712 -1.1012 -3.4247
   19MOL   H40412680   7.946   6.522   7.146  0.2818 -0.0545  0.3826
   19MOL   H40512681   8.132   6.509   7.326 -0.5818 -1.3216 -0.8107
   19MOL   H40612682   8.222   6.926   7.241 -1.1395  0.7515 -0.0670
   19MOL   H40712683   8.015   6.941   7.095  1.5902  0.2878 -0.4092
   19MOL   H40812684   7.892   6.995   6.889  0.1775  1.1478 -0.3482
   19MOL   H40912685   7.991   7.023   6.676  1.3671 -0.3111 -0.8692
   19MOL   C41012686   0.287   6.484   7.353  0.7888 -0.1875 -0.1784
   19MOL   C41112687   0.175   6.555   7.401 -0.1263  0.4115  0.0897
   19MOL   C41212688   0.107   6.644   7.315  0.0763 -0.3108 -0.3244
   19MOL   O41312689   8.308   6.706   7.363 -0.8477  0.2657  0.7338
   19MOL   C41412690   0.144   6.655   7.179 -0.3215  0.6669  0.1417
   19MOL   C41512691   0.248   6.574   7.130  0.2317 -0.5090 -0.1304
   19MOL   C41612692   0.320   6.491   7.214  0.0054  0.2556  0.3574
   19MOL   C41712693   0.429   6.407   7.157  0.1146  0.1678  0.3719
   19MOL   O41812694   0.539   6.457   7.151  0.1013 -0.0303 -0.4304
   19MOL   C41912695   0.389   6.273   7.115  0.4330 -0.2831  1.2141
   19MOL   C42012696   0.486   6.169   7.115  0.1550  0.0703 -0.6010
   19MOL   C42112697   0.458   6.041   7.060 -0.4136 -0.0287 -0.6958
   19MOL   C42212698   0.335   6.018   6.997  0.5836  0.0883  1.1285
   19MOL   O42312699   0.326   5.900   6.924  0.3243 -0.4175  0.1861
   19MOL   C42412700   0.233   5.880   6.832  0.2002  0.4668 -0.0934
   19MOL   C42512701   0.108   5.820   6.857 -0.1242  0.6351  0.2562
   19MOL   C42612702   0.011   5.793   6.757 -0.1768 -0.1030  0.3272
   19MOL   C42712703   0.039   5.841   6.629  0.4239  0.3245  0.4410
   19MOL   C42812704   0.161   5.911   6.602  0.4653  0.4779 -1.0962
   19MOL   C42912705   0.258   5.929   6.702  0.1250  0.2903  0.1201
   19MOL   C43012706   0.232   6.114   7.006  0.0380  0.3159 -0.7163
   19MOL   C43112707   0.257   6.245   7.063  0.0398  0.0936  0.1467
   19MOL   H43212708   0.344   6.420   7.419 -0.6332 -3.3199 -1.9100
   19MOL   H43312709   0.158   6.554   7.508  2.5240  1.3812  0.5574
   19MOL   H43412710   0.105   6.728   7.110  1.2554  0.9383 -0.4924
   19MOL   H43512711   0.275   6.584   7.026  3.4936 -1.0956  0.5848
   19MOL   H43612712   0.585   6.187   7.153  0.9801 -2.0168 -1.7231
   19MOL   H43712713   0.539   5.970   7.061 -0.3614  0.0376  0.0411
   19MOL   H43812714   0.091   5.789   6.958 -0.4626  0.5985  0.1873
   19MOL   H43912715   8.230   5.746   6.787  0.3470 -0.6698  1.0989
   19MOL   H44012716   0.179   5.946   6.501 -0.2127  0.2544 -1.3040
   19MOL   H44112717   0.351   5.984   6.691 -0.2100  0.8820  0.2392
   19MOL   H44212718   0.138   6.098   6.957  0.3892 -1.0201 -0.9777
   19MOL   H44312719   0.171   6.307   7.077 -0.2907 -0.3464  0.0743
   19MOL   C44412720   8.169   5.496   6.369 -0.0670 -0.7808  0.0258
   19MOL   C44512721   8.161   5.625   6.428 -0.4341 -0.5710 -0.2282
   19MOL   C44612722   8.279   5.691   6.468 -0.1938 -0.5920  0.0598
   19MOL   O44712723   8.265   5.818   6.525  0.4069  0.0638 -0.0638
   19MOL   C44812724   0.097   5.625   6.451 -0.1161  0.2720  1.0891
   19MOL   C44912725   0.105   5.501   6.384  0.3524  0.1139 -0.4874
   19MOL   C45012726   8.293   5.434   6.341  0.1871  0.1065  0.5885
   19MOL   C45112727   8.301   5.293   6.298  0.7391  0.5355 -0.6772
   19MOL   O45212728   8.275   5.201   6.374  0.5116 -0.3539 -0.3352
   19MOL   C45312729   0.036   5.267   6.162 -0.3611  0.1859  0.0556
   19MOL   C45412730   0.092   5.366   6.081 -0.2336 -0.4624  0.2329
   19MOL   C45512731   0.153   5.339   5.957  0.2782 -0.1443  0.0705
   19MOL   C45612732   0.157   5.205   5.909  0.3509  0.2498  0.4473
   19MOL   O45712733   0.219   5.173   5.789  0.4639  0.1490  0.4471
   19MOL   C45812734   0.347   5.223   5.764 -0.1250 -0.1965  1.0595
   19MOL   C45912735   0.364   5.342   5.698 -0.4767  0.4175  0.2589
   19MOL   C46012736   0.494   5.384   5.662  0.5562 -0.2308 -0.0374
   19MOL   C46112737   0.603   5.303   5.709 -0.0979 -0.1631  0.3841
   19MOL   C46212738   0.591   5.196   5.790  0.3380  0.2796 -0.0867
   19MOL   C46312739   0.464   5.148   5.800  0.6270  0.4645 -0.4359
   19MOL   C46412740   0.098   5.102   5.986 -0.6840  0.4367 -0.0007
   19MOL   C46512741   0.048   5.130   6.116  0.7091 -0.1259 -0.5802
   19MOL   H46612742   8.079   5.442   6.346 -1.5384  0.4269  2.6702
   19MOL   H46712743   8.064   5.674   6.426  1.2033  2.8117 -2.1949
   19MOL   H46812744   0.190   5.669   6.486  1.4400  0.6217 -3.2537
   19MOL   H46912745   0.203   5.457   6.377  0.1394 -0.0403 -3.1374
   19MOL   H47012746   0.106   5.469   6.112 -2.1303 -0.0688 -0.1605
   19MOL   H47112747   0.195   5.426   5.908 -2.4491  0.1503 -1.8162
   19MOL   H47212748   0.277   5.396   5.662  0.2444  0.9325 -0.7527
   19MOL   H47312749   0.509   5.473   5.603 -2.4717 -0.5793 -1.4275
   19MOL   H47412750   0.678   5.135   5.809 -0.7382 -2.1005 -2.4496
   19MOL   H47512751   0.454   5.054   5.853  1.6281  1.1210  0.9487
   19MOL   H47612752   0.127   5.003   5.953  0.7985  1.0512 -0.6029
   19MOL   H47712753   0.017   5.045   6.175  0.4424 -0.3457 -1.0314
   19MOL   C47812754   0.834   5.651   5.867  0.0440 -0.4353  0.2527
   19MOL   C47912755   0.749   5.563   5.793 -0.8809 -0.1811 -0.0793
   19MOL   C48012756   0.794   5.428   5.769  0.2271 -0.4805  0.0409
   19MOL   O48112757   0.732   5.350   5.674  0.1678  0.4857 -0.3550
   19MOL   C48212758   0.913   5.385   5.827 -0.0193 -0.7297  0.0326
   19MOL   C48312759   0.984   5.468   5.910 -0.3805  0.2965 -1.0793
   19MOL   C48412760   0.952   5.603   5.936 -0.6670  0.0656 -0.0328
   19MOL   C48512761   1.046   5.697   6.007  0.1053 -0.2841  0.4137
   19MOL   O48612762   1.169   5.675   6.004 -0.3657 -0.1509  0.2055
   19MOL   C48712763   0.988   5.815   6.083  0.4210 -0.1516  0.3934
   19MOL   C48812764   0.854   5.820   6.125 -0.0632  0.0957 -0.2791
   19MOL   C48912765   0.807   5.943   6.187  0.0346  0.1100  0.0853
   19MOL   C49012766   0.896   6.038   6.232 -0.0078  0.8890 -0.0805
   19MOL   O49112767   0.855   6.145   6.308  0.0788 -0.3882 -0.2428
   19MOL   C49212768   0.941   6.188   6.402 -0.7124 -0.4070  0.9254
   19MOL   C49312769   0.966   6.325   6.413 -0.0850  0.4274 -0.3175
   19MOL   C49412770   1.048   6.377   6.514 -0.1495 -0.6128  0.2375
   19MOL   C49512771   1.110   6.293   6.602 -0.0169  0.4108  0.2326
   19MOL   C49612772   1.087   6.156   6.592  0.0411  0.0705  0.0624
   19MOL   C49712773   0.994   6.101   6.501 -0.0956  0.5743 -0.6750
   19MOL   C49812774   1.028   6.034   6.183 -0.8902 -0.4830 -0.0541
   19MOL   C49912775   1.070   5.926   6.107  0.0671 -0.5916 -0.4927
   19MOL   H50012776   0.814   5.757   5.873 -0.2980 -0.3670 -1.6933
   19MOL   H50112777   0.666   5.609   5.740  0.5715  0.1551 -2.1058
   19MOL   H50212778   0.944   5.287   5.794  1.0293 -0.6824  0.8603
   19MOL   H50312779   1.076   5.425   5.948 -0.5780  1.6220  0.9692
   19MOL   H50412780   0.782   5.741   6.108  2.0674 -1.3264 -3.1501
   19MOL   H50512781   0.702   5.943   6.210  0.5777  3.1624  2.8011
   19MOL   H50612782   0.914   6.397   6.352 -0.7488  0.7307  0.5993
   19MOL   H50712783   1.063   6.483   6.503  1.1839 -1.0740 -2.6600
   19MOL   H50812784   1.137   6.087   6.659 -0.1893 -0.0214  0.1392
   19MOL   H50912785   0.974   5.996   6.511  2.1382  0.1423 -0.6178
   19MOL   H51012786   1.106   6.106   6.203  0.4693 -2.0746  0.5261
   19MOL   H51112787   1.174   5.921   6.077  0.8708 -0.6204  2.1972
   19MOL   C51212788   1.532   6.165   6.729  0.4296 -0.2345  0.0462
   19MOL   C51312789   1.397   6.203   6.740 -0.1360 -0.0258 -0.4884
   19MOL   C51412790   1.338   6.302   6.661  0.3346 -0.3652 -0.0934
   19MOL   O51512791   1.210   6.345   6.678  0.4959 -0.0874 -0.0060
   19MOL   C51612792   1.419   6.364   6.564 -0.0262  0.0301 -0.1136
   19MOL   C51712793   1.554   6.328   6.550 -0.1290  0.1907  0.2403
   19MOL   C51812794   1.611   6.227   6.632 -0.0096  0.8208 -0.2570
   19MOL   C51912795   1.752   6.192   6.606  0.8046  0.6304 -0.7185
   19MOL   O52012796   1.824   6.255   6.531  0.0618  0.3665 -0.5259
   19MOL   C52112797   1.801   6.076   6.672 -0.0086 -0.1305 -0.3935
   19MOL   C52212798   1.831   6.084   6.808 -0.0770  0.2692  0.2633
   19MOL   C52312799   1.894   5.974   6.872 -0.7150  0.1338  0.3799
   19MOL   C52412800   1.915   5.855   6.804 -0.2862  0.0130  0.4801
   19MOL   O52512801   1.967   5.747   6.864  0.4462  0.2058 -0.3391
   19MOL   C52612802   2.086   5.704   6.828  0.3724 -0.1203 -0.5196
   19MOL   C52712803   2.108   5.568   6.819  0.1763  0.6431  0.0129
   19MOL   C52812804   2.235   5.517   6.798 -0.4002  0.1711 -0.2504
   19MOL   C52912805   2.341   5.601   6.771 -1.1299  0.5971 -0.4727
   19MOL   C53012806   2.318   5.739   6.765 -0.6257  0.9532 -0.2147
   19MOL   C53112807   2.191   5.792   6.792  0.9764  0.5163 -0.0004
   19MOL   C53212808   1.876   5.845   6.669 -0.1757 -0.0494 -0.3514
   19MOL   C53312809   1.830   5.959   6.599 -0.5641  0.8219 -0.3302
   19MOL   H53412810   1.562   6.091   6.803  1.3057  0.5175  0.4470
   19MOL   H53512811   1.342   6.152   6.818  0.3812 -0.8676 -0.6657
   19MOL   H53612812   1.374   6.437   6.498 -0.0248 -0.1667 -0.3349
   19MOL   H53712813   1.614   6.382   6.478 -0.1655  0.0568  0.1121
   19MOL   H53812814   1.813   6.183   6.845 -0.0962  0.2384  0.3366
   19MOL   H53912815   1.921   5.983   6.976 -0.7485 -0.5627  0.4488
   19MOL   H54012816   2.031   5.500   6.852 -0.0489  1.4137  1.1156
   19MOL   H54112817   2.257   5.412   6.794 -0.4200  0.2166 -1.5941
   19MOL   H54212818   2.392   5.808   6.728  0.7209  0.4884  1.5826
   19MOL   H54312819   2.192   5.900   6.793 -2.2865  0.6163 -1.3112
   19MOL   H54412820   1.890   5.749   6.621  0.4767 -0.0833 -0.0928
   19MOL   H54512821   1.808   5.965   6.493  1.9582 -1.0092 -1.0383
   19MOL   C54612822   2.594   5.562   6.408  0.1672  0.2035  0.1572
   19MOL   C54712823   2.516   5.531   6.519 -0.0512  1.4419  0.0893
   19MOL   C54812824   2.537   5.594   6.639 -0.8477 -0.5615 -0.3347
   19MOL   O54912825   2.467   5.558   6.750  0.2477 -0.1876 -0.3733
   19MOL   C55012826   2.626   5.701   6.643 -0.4461  0.2951  0.0673
   19MOL   C55112827   2.705   5.739   6.528 -0.4899  0.1061 -0.9923
   19MOL   C55212828   2.689   5.665   6.405  0.5980 -0.7310 -0.0135
   19MOL   C55312829   2.769   5.699   6.282  0.0206  0.2253 -0.2586
   19MOL   O55412830   2.885   5.731   6.290 -0.0501 -0.2858 -0.5321
   19MOL   C55512831   2.708   5.688   6.146  0.3255  0.1852  0.1511
   19MOL   C55612832   2.792   5.684   6.031 -0.2895 -0.4135 -0.2006
   19MOL   C55712833   2.736   5.696   5.904  0.2828  0.1808  0.4814
   19MOL   C55812834   2.598   5.698   5.892  0.5131  0.3529 -0.5311
   19MOL   O55912835   2.544   5.718   5.771 -0.0887  0.6189  0.1178
   19MOL   C56012836   2.490   5.618   5.695 -0.2426 -0.2713 -1.1201
   19MOL   C56112837   2.404   5.639   5.586 -0.7161 -0.2782 -0.3350
   19MOL   C56212838   2.381   5.541   5.493  0.8655  0.5153  0.3036
   19MOL   C56312839   2.436   5.410   5.513 -0.7066 -0.7510 -0.7619
   19MOL   C56412840   2.505   5.380   5.626 -0.1298 -0.3175  0.1812
   19MOL   C56512841   2.544   5.489   5.708 -0.2844 -0.3923  0.4909
   19MOL   C56612842   2.512   5.687   6.005 -0.6380  0.1305 -0.2016
   19MOL   C56712843   2.571   5.696   6.128  0.7734  0.2829  0.1539
   19MOL   H56812844   2.586   5.506   6.316  1.3388 -0.3386  0.3766
   19MOL   H56912845   2.437   5.458   6.503  1.4613  0.0177 -1.1173
   19MOL   H57012846   2.649   5.755   6.733 -1.1289 -0.4594  0.7014
   19MOL   H57112847   2.771   5.825   6.528 -1.7772  1.1433  1.1556
   19MOL   H57212848   2.900   5.690   6.036 -0.5006  2.1708  2.0258
   19MOL   H57312849   2.794   5.707   5.814 -1.0442  0.2132 -0.3781
   19MOL   H57412850   2.376   5.738   5.554 -2.0272 -0.9178 -1.1758
   19MOL   H57512851   2.312   5.561   5.413  0.3313 -1.9560  0.1069
   19MOL   H57612852   2.542   5.279   5.636  2.4912  0.6247  0.1872
   19MOL   H57712853   2.599   5.469   5.799  0.4321  0.0626  0.1576
   19MOL   H57812854   2.404   5.689   5.995 -0.6884  0.6423  0.4561
   19MOL   H57912855   2.498   5.710   6.207  1.2250 -1.3103  0.8690
   19MOL   C58012856   2.524   5.153   5.113 -0.1083  0.1548  0.6158
   19MOL   C58112857   2.472   5.170   5.237 -0.0319 -0.5756  0.3060
   19MOL   C58212858   2.469   5.298   5.306  1.4419  0.1231 -0.9213
   19MOL   O58312859   2.403   5.309   5.425  0.1445 -0.0523  0.3857
   19MOL   C58412860   2.515   5.414   5.238 -0.3061 -0.1152 -0.1305
   19MOL   C58512861   2.568   5.397   5.108  0.7181  0.4025  0.0689
   19MOL   C58612862   2.568   5.269   5.046 -0.1111  0.1446  0.4539
   19MOL   C58712863   2.624   5.263   4.910  0.5339  0.4339  0.1401
   19MOL   O58812864   2.616   5.359   4.833  0.2893  1.0320  0.0419
   19MOL   C58912865   2.731   5.157   4.877  0.0469  1.0981 -0.7546
   19MOL   C59012866   2.806   5.094   4.975  0.3496 -0.3523 -0.6079
   19MOL   C59112867   2.911   5.000   4.941 -0.0133  0.2213 -0.1435
   19MOL   C59212868   2.933   4.959   4.806  0.4095 -0.4597  0.0789
   19MOL   O59312869   3.026   4.867   4.760 -0.6329  0.1220  0.4474
   19MOL   C59412870   3.167   4.894   4.783 -0.5747 -0.4912 -0.3531
   19MOL   C59512871   3.235   4.983   4.693 -0.0319  0.5074 -0.1786
   19MOL   C59612872   3.381   5.002   4.715 -0.0178 -0.0583 -0.2953
   19MOL   C59712873   3.451   4.941   4.820 -0.5108  0.4016 -0.0868
   19MOL   C59812874   3.371   4.862   4.909  0.1260  0.0952 -0.3101
   19MOL   C59912875   3.234   4.838   4.896 -0.8512 -0.0442  0.2532
   19MOL   C60012876   2.859   5.031   4.706  0.4549  0.5775 -0.1814
   19MOL   C60112877   2.765   5.127   4.742 -0.5992 -0.0130 -0.3971
   19MOL   H60212878   2.516   5.060   5.058  1.8524  1.7968 -2.6048
   19MOL   H60312879   2.422   5.090   5.290 -1.0864 -0.5104 -0.5539
   19MOL   H60412880   2.514   5.514   5.278  0.3893  0.7968 -2.2690
   19MOL   H60512881   2.595   5.483   5.049 -0.6745  1.1106  0.4546
   19MOL   H60612882   2.786   5.114   5.079  0.3234 -1.3962 -0.4072
   19MOL   H60712883   2.964   4.953   5.023 -1.0838 -0.6304  0.0649
   19MOL   H60812884   3.185   5.030   4.610 -1.1403 -0.0265  0.1780
   19MOL   H60912885   3.439   5.068   4.651  0.2774 -0.6210 -0.6072
   19MOL   H61012886   3.418   4.813   4.993 -1.3415 -1.8585 -0.5922
   19MOL   H61112887   3.170   4.784   4.963 -2.8578  0.3850 -1.2736
   19MOL   H61212888   2.877   4.995   4.605  0.0260  0.2004 -0.1284
   19MOL   H61312889   2.712   5.183   4.667  0.3756  0.7643 -0.5110
   19MOL   C61412890   3.745   5.273   4.734  0.2240  0.1056  0.4719
   19MOL   C61512891   3.676   5.178   4.812 -0.7334  0.1238 -0.4242
   19MOL   C61612892   3.648   5.046   4.762 -0.4697 -0.7652  0.1904
   19MOL   O61712893   3.584   4.969   4.848  0.1108  0.4030 -0.0448
   19MOL   C61812894   3.708   5.011   4.640  0.2209 -0.0747  0.0217
   19MOL   C61912895   3.776   5.108   4.562  0.1503  0.8985 -0.2501
   19MOL   C62012896   3.785   5.243   4.600 -0.3367 -0.1169  0.1618
   19MOL   C62112897   3.856   5.339   4.514 -0.1947 -0.6194 -0.1359
   19MOL   O62212898   3.945   5.411   4.566  0.1892  0.0551  0.1456
   19MOL   C62312899   3.806   5.375   4.381 -0.0125 -0.4547  0.5543
   19MOL   C62412900   3.722   5.297   4.303 -0.3086 -0.0614  0.1671
   19MOL   C62512901   3.682   5.325   4.174  0.8377  0.1434  0.4558
   19MOL   C62612902   3.722   5.452   4.122  0.1657  0.0810 -0.3314
   19MOL   O62712903   3.667   5.498   4.004 -0.0069  0.0524 -0.0055
   19MOL   C62812904   3.551   5.570   4.015 -0.8011  1.0398 -0.2062
   19MOL   C62912905   3.431   5.507   4.050  0.1516  0.3730  0.0602
   19MOL   C63012906   3.315   5.587   4.066  0.0889  1.0843 -0.1054
   19MOL   C63112907   3.318   5.724   4.034  0.2312  0.5624 -1.0317
   19MOL   C63212908   3.435   5.784   3.986  0.4130  0.0652 -0.1717
   19MOL   C63312909   3.556   5.707   3.981 -0.4845  0.4517 -0.2577
   19MOL   C63412910   3.819   5.529   4.193 -0.4239  0.6057 -0.5001
   19MOL   C63512911   3.857   5.495   4.325  0.4275  0.1036  0.1332
   19MOL   H63612912   3.762   5.370   4.777 -0.2777  0.7589 -0.7982
   19MOL   H63712913   3.642   5.203   4.912  1.8293  1.1684  0.2291
   19MOL   H63812914   3.684   4.911   4.606  0.7492  0.1418 -1.0249
   19MOL   H63912915   3.824   5.093   4.466  0.8034  1.8234 -0.0793
   19MOL   H64012916   3.691   5.210   4.359  3.6083 -2.4216 -1.1629
   19MOL   H64112917   3.610   5.261   4.125  1.9991  0.4045 -1.6604
   19MOL   H64212918   3.435   5.401   4.074 -0.4728  0.3331  0.0125
   19MOL   H64312919   3.222   5.538   4.088 -0.2441  1.8406  0.1725
   19MOL   H64412920   3.424   5.888   3.957 -3.0205 -0.1571  0.2317
   19MOL   H64512921   3.644   5.755   3.940  0.4828 -2.0620 -1.2244
   19MOL   H64612922   3.852   5.623   4.151 -0.6692  1.6423  1.5791
   19MOL   H64712923   3.927   5.566   4.365 -0.3551  2.2638 -2.2010
   19MOL   C64812924   3.174   5.827   4.409  0.0824 -0.1334 -1.2323
   19MOL   C64912925   3.226   5.806   4.282  1.0647 -0.1723  0.3493
   19MOL   C65012926   3.146   5.804   4.169 -0.0473  0.5988  0.8951
   19MOL   O65112927   3.197   5.789   4.043  0.2052  0.5259  0.4057
   19MOL   C65212928   3.007   5.813   4.182  0.2545  1.0157 -0.2623
   19MOL   C65312929   2.950   5.826   4.312 -0.5023  0.0952  0.3625
   19MOL   C65412930   3.034   5.836   4.426  0.4220 -0.8895  0.0587
   19MOL   C65512931   2.966   5.866   4.561 -0.3518 -0.5104  0.4679
   19MOL   O65612932   2.873   5.953   4.571 -0.0036  0.4285  0.2628
   19MOL   C65712933   3.023   5.794   4.678 -0.1064  0.1819 -0.5804
   19MOL   C65812934   3.089   5.673   4.665 -0.0624  0.1644  0.3273
   19MOL   C65912935   3.156   5.618   4.777 -0.9291 -0.6188 -0.1081
   19MOL   C66012936   3.129   5.673   4.910 -0.5285 -0.3181  0.6111
   19MOL   O66112937   3.168   5.609   5.026 -0.2004  0.2997  0.5172
   19MOL   C66212938   3.244   5.498   5.017  0.9096 -0.0567  0.0774
   19MOL   C66312939   3.381   5.502   4.999  0.4284  0.2542  0.0140
   19MOL   C66412940   3.453   5.380   4.987  1.0258  0.1120 -0.3442
   19MOL   C66512941   3.383   5.260   4.985  0.2969  0.7355  0.0151
   19MOL   C66612942   3.240   5.251   4.984  0.6670 -0.5992  0.2897
   19MOL   C66712943   3.175   5.372   5.013  0.0417  0.0255  0.4362
   19MOL   C66812944   3.056   5.787   4.921  0.3538 -0.5100 -0.1534
   19MOL   C66912945   3.012   5.856   4.805 -0.2773 -0.0331  0.1435
   19MOL   H67012946   3.243   5.841   4.491 -0.7841  0.5854 -0.6208
   19MOL   H67112947   3.331   5.823   4.264  0.5269  2.7791 -0.3352
   19MOL   H67212948   2.943   5.814   4.095 -0.3186  0.4517  0.1520
   19MOL   H67312949   2.842   5.831   4.319 -0.4033 -1.5113  3.9780
   19MOL   H67412950   3.107   5.621   4.572 -0.7433 -1.6582  1.1782
   19MOL   H67512951   3.213   5.528   4.767  0.1289 -0.1824  1.8353
   19MOL   H67612952   3.433   5.596   5.012  0.9849  0.1181 -1.1609
   19MOL   H67712953   3.561   5.378   4.984  1.1184 -0.8303  2.3258
   19MOL   H67812954   3.188   5.158   4.968  1.2993 -1.0015  0.5711
   19MOL   H67912955   3.067   5.363   5.019  0.1884 -0.9488  1.7401
   19MOL   H68012956   3.025   5.831   5.014 -0.9572  0.9988 -1.2640
   19MOL   H68112957   2.962   5.952   4.806 -2.0981 -0.9608  0.0992
   19MOL   H68212958   3.442   5.170   4.974 -0.8323  0.2185 -2.0216
   20MOL     C112959   3.977   3.684   6.026  0.3209 -0.5109 -0.3268
   20MOL     C212960   4.071   3.591   6.080 -0.0553 -0.2425  0.8496
   20MOL     C312961   4.194   3.634   6.119 -0.1915 -0.0113 -0.6445
   20MOL     O412962   4.288   3.543   6.166  0.1979 -0.0671  0.0736
   20MOL     C512963   4.231   3.770   6.109 -0.1566 -0.0470  0.3250
   20MOL     C612964   4.138   3.860   6.057 -0.6090  0.4186 -0.4170
   20MOL     C712965   4.013   3.817   6.005 -0.1062  0.3159 -0.4597
   20MOL     C812966   3.917   3.926   5.957  0.3125 -0.2207  0.1926
   20MOL     O912967   3.942   4.049   5.968 -0.8674  0.1072  0.0172
   20MOL    C1012968   3.788   3.896   5.895 -0.7154 -0.5844  0.2267
   20MOL    C1112969   3.779   3.866   5.756 -0.4428 -0.2631 -0.7116
   20MOL    C1212970   3.652   3.861   5.703  0.4647  0.7252  0.0492
   20MOL    C1312971   3.534   3.874   5.781 -0.4246  0.0660  0.4697
   20MOL    O1412972   3.410   3.855   5.721 -0.4761 -0.3338  0.2343
   20MOL    C1512973   3.303   3.797   5.784 -0.0792  0.2885  0.6132
   20MOL    C1612974   3.313   3.685   5.870 -0.4476  0.4478  0.9340
   20MOL    C1712975   3.195   3.626   5.920 -0.0180  0.1741 -0.0144
   20MOL    C1812976   3.068   3.669   5.882  0.3115  0.6941  0.4712
   20MOL    C1912977   3.061   3.777   5.794  0.1729 -0.3802  0.5430
   20MOL    C2012978   3.177   3.845   5.745 -0.7835 -0.0106  0.1091
   20MOL    C2112979   3.546   3.904   5.919 -0.3455 -0.2240 -0.3319
   20MOL    C2212980   3.674   3.913   5.977 -0.1404 -0.7411 -0.6313
   20MOL    H2312981   3.882   3.645   5.994  0.3703 -0.5367 -0.4406
   20MOL    H2412982   4.040   3.487   6.078 -2.3678  0.4374 -1.9836
   20MOL    H2512983   4.321   3.806   6.156 -0.5398  1.7508 -0.2794
   20MOL    H2612984   4.174   3.962   6.051  0.7191 -0.1261 -2.4918
   20MOL    H2712985   3.868   3.850   5.698  0.8382  0.1027  1.1303
   20MOL    H2812986   3.648   3.835   5.598 -3.8266  1.5961 -0.0623
   20MOL    H2912987   3.406   3.656   5.918 -1.1077 -0.5166  1.6440
   20MOL    H3012988   3.197   3.548   5.994 -0.4343 -0.9101 -1.1243
   20MOL    H3112989   2.968   3.823   5.764  0.4604 -0.8315 -1.0354
   20MOL    H3212990   3.169   3.928   5.678 -0.8673  0.0330  0.1723
   20MOL    H3312991   3.462   3.922   5.984 -0.2451 -0.5950 -0.1000
   20MOL    H3412992   3.688   3.924   6.083 -1.5368 -0.7603 -0.4390
   20MOL    H3512993   4.261   3.456   6.190 -2.6479  0.2346 -1.8026
   20MOL    C3612994   2.977   3.254   5.842  0.0622  0.0631  0.3333
   20MOL    C3712995   2.992   3.391   5.831  0.2315 -0.7759  0.4841
   20MOL    C3812996   2.938   3.478   5.931 -0.1085  0.1699  0.4337
   20MOL    O3912997   2.950   3.612   5.932 -0.5288  0.2223  0.3455
   20MOL    C4012998   2.876   3.422   6.040 -0.5020 -0.0162  0.2632
   20MOL    C4112999   2.858   3.283   6.056  0.0569 -0.7086  0.0377
   20MOL    C4213000   2.916   3.200   5.961 -0.4703  0.0174  0.1764
   20MOL    C4313001   2.896   3.058   5.988  0.4840  0.2480  0.5842
   20MOL    O4413002   2.994   2.978   5.978 -0.0933 -0.5205  0.3120
   20MOL    C4513003   2.759   3.006   6.022  0.0458  0.3358  0.1824
   20MOL    C4613004   2.641   3.083   6.012 -0.3836  0.1435  0.2631
   20MOL    C4713005   2.511   3.024   6.012 -0.6167 -0.0996  0.1574
   20MOL    C4813006   2.504   2.889   6.044  0.5658 -0.3027 -0.0813
   20MOL    O4913007   2.374   2.826   6.064  0.0503 -0.0845  0.0652
   20MOL    C5013008   2.309   2.799   5.951 -0.2025  0.1607 -0.0963
   20MOL    C5113009   2.208   2.879   5.903 -0.3872 -0.2357  0.2705
   20MOL    C5213010   2.139   2.848   5.783  0.1563  0.0518 -0.3648
   20MOL    C5313011   2.190   2.737   5.706 -0.3828  0.0259  0.1451
   20MOL    C5413012   2.296   2.662   5.756  0.0331  0.3654  0.5110
   20MOL    C5513013   2.351   2.690   5.882  0.5989 -1.0443 -0.3887
   20MOL    C5613014   2.622   2.811   6.051 -0.1587  0.5182 -0.4264
   20MOL    C5713015   2.748   2.869   6.036  0.0951 -0.5104 -0.6604
   20MOL    H5813016   3.028   3.189   5.772 -0.5449 -0.8673  0.7457
   20MOL    H5913017   3.040   3.436   5.745 -0.6499 -1.0639 -0.1671
   20MOL    H6013018   2.846   3.498   6.110  2.1520 -0.0742  1.4983
   20MOL    H6113019   2.814   3.249   6.149  0.4271  2.4812  1.4434
   20MOL    H6213020   2.649   3.189   5.994 -1.8054  0.0745 -0.8607
   20MOL    H6313021   2.431   3.096   6.004 -0.7969 -0.1070  1.7307
   20MOL    H6413022   2.184   2.971   5.954  0.1565 -0.9402  1.8428
   20MOL    H6513023   2.055   2.912   5.762 -1.1071 -1.4608 -0.0694
   20MOL    H6613024   2.321   2.581   5.689 -0.6367  0.7193 -0.1897
   20MOL    H6713025   2.437   2.633   5.914  0.3478 -0.8245  0.6837
   20MOL    H6813026   2.610   2.704   6.064 -1.4070  0.8350  1.2716
   20MOL    H6913027   2.836   2.807   6.043  0.5256 -0.1074 -2.2438
   20MOL    C7013028   1.939   2.400   5.551 -0.5088 -0.2668 -0.0763
   20MOL    C7113029   2.050   2.488   5.537 -0.5094  0.1792 -0.6349
   20MOL    C7213030   2.028   2.619   5.582 -0.6578 -0.1195  1.2063
   20MOL    O7313031   2.133   2.707   5.583 -0.1567 -0.0997 -0.4063
   20MOL    C7413032   1.901   2.667   5.631  0.1117 -0.2902 -0.5575
   20MOL    C7513033   1.794   2.577   5.633 -0.2754 -0.0853  0.4572
   20MOL    C7613034   1.812   2.442   5.595  0.5095  0.1564  0.2125
   20MOL    C7713035   1.697   2.348   5.603  0.8148 -0.2259  0.1746
   20MOL    O7813036   1.602   2.362   5.519  0.5459 -0.0113  0.1191
   20MOL    C7913037   1.710   2.233   5.701  0.0945  0.7312 -0.5276
   20MOL    C8013038   1.819   2.227   5.794 -0.0102  0.0562  0.2544
   20MOL    C8113039   1.825   2.123   5.887 -0.3242  0.2780  0.6080
   20MOL    C8213040   1.730   2.031   5.910 -0.2341  0.0249 -0.2788
   20MOL    O8313041   1.736   1.927   5.999  0.0137  0.2006 -0.2736
   20MOL    C8413042   1.741   1.803   5.952 -0.6281 -0.6018  0.0605
   20MOL    C8513043   1.628   1.722   5.955 -0.3701  0.1433  0.0047
   20MOL    C8613044   1.631   1.596   5.894  0.6673 -0.1134  0.4502
   20MOL    C8713045   1.747   1.546   5.835 -0.1159  0.1780 -1.0970
   20MOL    C8813046   1.862   1.624   5.834 -0.0176 -0.4031 -0.3551
   20MOL    C8913047   1.858   1.751   5.891 -0.1690  0.9476  0.4055
   20MOL    C9013048   1.623   2.033   5.818  0.4178  0.8593 -0.0186
   20MOL    C9113049   1.614   2.131   5.714  0.2072  0.3801 -0.2949
   20MOL    H9213050   1.967   2.299   5.525  1.2822  0.4502 -1.0256
   20MOL    H9313051   2.150   2.456   5.514 -0.0336  1.3527 -0.2301
   20MOL    H9413052   1.895   2.759   5.687  1.4930 -1.8061  2.2007
   20MOL    H9513053   1.698   2.609   5.672 -0.2830  0.6766 -0.1617
   20MOL    H9613054   1.894   2.304   5.786  0.9034 -0.4536  3.2321
   20MOL    H9713055   1.917   2.118   5.944  0.1762  1.2896 -0.0999
   20MOL    H9813056   1.540   1.764   5.999 -0.1926 -0.6794  1.1519
   20MOL    H9913057   1.548   1.528   5.877  0.4593  0.2358  0.0492
   20MOL   H10013058   1.958   1.598   5.793 -0.6833  0.0247 -2.2181
   20MOL   H10113059   1.938   1.823   5.888 -0.3601  1.1233 -0.6132
   20MOL   H10213060   1.543   1.966   5.843  0.5988  0.7254  0.2079
   20MOL   H10313061   1.530   2.130   5.646 -0.4811  1.3218  0.5330
   20MOL   C10413062   1.752   1.443   5.409 -0.4862  0.1333 -0.2678
   20MOL   C10513063   1.801   1.433   5.545 -0.2455  0.1154  0.2696
   20MOL   C10613064   1.709   1.428   5.649 -0.3588  0.7029 -0.2494
   20MOL   O10713065   1.756   1.427   5.776  0.1317 -0.5248 -0.0384
   20MOL   C10813066   1.568   1.422   5.631 -0.1079 -0.0835 -0.1796
   20MOL   C10913067   1.523   1.433   5.493 -0.1779  0.0443  0.0798
   20MOL   C11013068   1.613   1.447   5.383  0.1461 -0.1818 -0.8797
   20MOL   C11113069   1.552   1.461   5.242  0.1111 -0.0024 -0.1722
   20MOL   O11213070   1.432   1.448   5.217  0.7095  0.0541  0.5821
   20MOL   C11313071   1.647   1.484   5.125  0.3719  0.5827 -0.6386
   20MOL   C11413072   1.713   1.608   5.122  0.1967 -0.4762 -0.8235
   20MOL   C11513073   1.816   1.634   5.027  0.1340  0.6305  0.1519
   20MOL   C11613074   1.860   1.529   4.939 -0.6397  1.3458  0.3258
   20MOL   O11713075   1.963   1.542   4.843  0.4293  0.3521  0.1322
   20MOL   C11813076   2.018   1.663   4.824  0.1859  0.0211  0.1396
   20MOL   C11913077   2.138   1.693   4.896  0.1700  0.3248 -0.3354
   20MOL   C12013078   2.191   1.825   4.901  0.3144 -0.1383 -0.0322
   20MOL   C12113079   2.143   1.923   4.808 -0.1007  0.0546 -0.1015
   20MOL   C12213080   2.035   1.894   4.734  0.6528  0.3152 -0.0359
   20MOL   C12313081   1.961   1.771   4.750 -0.2729  1.1286  0.0855
   20MOL   C12413082   1.775   1.414   4.926  0.0851 -0.2910  0.2781
   20MOL   C12513083   1.676   1.384   5.021  1.0398 -0.2649 -0.5345
   20MOL   H12613084   1.823   1.448   5.329 -1.6371 -0.8943 -1.3867
   20MOL   H12713085   1.908   1.426   5.558 -0.3454  0.7697  1.5314
   20MOL   H12813086   1.498   1.404   5.712 -1.0402 -0.6252 -1.0856
   20MOL   H12913087   1.417   1.427   5.471 -0.4044 -0.5341  1.3193
   20MOL   H13013088   1.707   1.685   5.197 -0.4285 -0.4295 -0.9190
   20MOL   H13113089   1.867   1.729   5.026  1.7927 -0.2447  1.0565
   20MOL   H13213090   2.168   1.618   4.968 -0.7091 -1.1167 -1.4371
   20MOL   H13313091   2.277   1.850   4.961  1.7838  0.1926 -2.2007
   20MOL   H13413092   2.003   1.970   4.664 -2.0584  0.1862  0.9955
   20MOL   H13513093   1.867   1.758   4.699  0.1649 -0.9209 -0.2415
   20MOL   H13613094   1.806   1.345   4.849  1.1651  1.5494 -0.9904
   20MOL   H13713095   1.618   1.294   5.010  2.5891 -1.3795  0.1357
   20MOL   C13813096   2.173   2.200   5.137  0.0139 -0.5652  0.4839
   20MOL   C13913097   2.147   2.119   5.027  0.1500 -0.1345  0.4286
   20MOL   C14013098   2.232   2.123   4.910  0.3224 -0.5439  0.7169
   20MOL   O14113099   2.209   2.044   4.800  0.0336 -0.4197 -0.3207
   20MOL   C14213100   2.343   2.204   4.910  0.0252 -0.5152 -0.3701
   20MOL   C14313101   2.358   2.297   5.013 -0.5968  0.4492 -0.4282
   20MOL   C14413102   2.280   2.292   5.134 -0.5400  0.5732 -0.0278
   20MOL   C14513103   2.305   2.379   5.250  0.5031 -0.1041 -0.6033
   20MOL   O14613104   2.346   2.328   5.351  0.4606  0.4175 -0.8673
   20MOL   C14713105   2.274   2.528   5.244 -0.0299 -0.1007 -0.5658
   20MOL   C14813106   2.190   2.575   5.135  0.2688  0.4441 -0.0506
   20MOL   C14913107   2.158   2.714   5.125  0.2240  0.4903 -0.7097
   20MOL   C15013108   2.213   2.807   5.212 -0.4959 -0.2743 -0.3531
   20MOL   O15113109   2.175   2.938   5.201 -0.7873  0.0414 -0.6061
   20MOL   C15213110   2.113   2.999   5.309 -0.2836  0.5820  0.1239
   20MOL   C15313111   1.982   2.967   5.332  0.0849  0.6903  1.0013
   20MOL   C15413112   1.921   3.021   5.442  0.0375 -0.2836  0.1645
   20MOL   C15513113   1.991   3.100   5.536  0.4497  0.3177  0.1297
   20MOL   C15613114   2.125   3.131   5.513 -0.4373  0.2210  0.5392
   20MOL   C15713115   2.185   3.080   5.398 -0.0317 -0.3981 -0.4654
   20MOL   C15813116   2.294   2.762   5.317  0.2016 -0.6220  0.2616
   20MOL   C15913117   2.321   2.623   5.336 -0.0576 -0.6200 -0.5497
   20MOL   H16013118   2.117   2.185   5.228  1.6563  0.8444  1.7643
   20MOL   H16113119   2.063   2.055   5.052 -0.8364  2.2880  3.6065
   20MOL   H16213120   2.400   2.214   4.819  0.4877  2.1674  0.1745
   20MOL   H16313121   2.434   2.374   5.015 -0.2988  0.1380  1.2801
   20MOL   H16413122   2.150   2.506   5.062  2.5313 -0.3402 -0.5741
   20MOL   H16513123   2.090   2.740   5.045  0.4429  2.7873 -0.1699
   20MOL   H16613124   1.937   2.893   5.268  1.7034 -1.1425  1.8995
   20MOL   H16713125   1.818   2.999   5.467  0.5465 -2.5833  0.3133
   20MOL   H16813126   2.187   3.184   5.584 -0.6646  0.1102  0.8209
   20MOL   H16913127   2.288   3.110   5.381  0.2824 -0.3726  1.4182
   20MOL   H17013128   2.328   2.833   5.391  0.4567 -0.0300 -0.4093
   20MOL   H17113129   2.396   2.595   5.409  1.1156  0.2614 -1.3761
   20MOL   C17213130   1.685   3.407   5.572 -0.3933 -0.3300 -0.2887
   20MOL   C17313131   1.806   3.336   5.578 -0.4759 -0.5736 -0.7984
   20MOL   C17413132   1.818   3.217   5.652  0.4667  0.1033 -0.1486
   20MOL   O17513133   1.937   3.147   5.655 -0.8004 -0.2055  0.5773
   20MOL   C17613134   1.711   3.172   5.730 -0.3256  0.6251  1.1431
   20MOL   C17713135   1.590   3.248   5.730 -0.3796  0.3663  0.3802
   20MOL   C17813136   1.577   3.365   5.653  0.6831 -0.0466  0.2015
   20MOL   C17913137   1.444   3.446   5.656  0.1270  0.0280  0.2454
   20MOL   O18013138   1.420   3.526   5.565  0.1583  0.2178 -0.2508
   20MOL   C18113139   1.347   3.428   5.768 -0.6249  0.2468  0.1833
   20MOL   C18213140   1.388   3.440   5.899  0.2003 -0.0680  0.0099
   20MOL   C18313141   1.300   3.426   6.005  0.2447  0.2497 -0.2117
   20MOL   C18413142   1.172   3.374   5.989  0.3005 -0.4459  0.8700
   20MOL   O18513143   1.093   3.362   6.098 -0.1357  0.4024 -0.2067
   20MOL   C18613144   1.030   3.243   6.114 -0.6704 -0.5029 -0.3029
   20MOL   C18713145   1.109   3.130   6.157  0.0724  0.2993 -0.0023
   20MOL   C18813146   1.054   3.006   6.187 -0.1697  0.2840  0.6974
   20MOL   C18913147   0.911   2.992   6.194 -0.0127  0.1201 -0.4976
   20MOL   C19013148   0.835   3.097   6.132  0.2268 -0.4246 -0.0562
   20MOL   C19113149   0.893   3.220   6.097 -0.2169  0.0411  0.4771
   20MOL   C19213150   1.126   3.358   5.851 -0.0939  0.3199 -0.2695
   20MOL   C19313151   1.215   3.389   5.744  0.5162  0.2786 -0.0566
   20MOL   H19413152   1.661   3.485   5.501 -1.0332 -0.2369  0.0258
   20MOL   H19513153   1.886   3.372   5.515 -0.7073 -0.4704 -1.0352
   20MOL   H19613154   1.734   3.076   5.776  0.8858  0.2088 -0.2843
   20MOL   H19713155   1.503   3.229   5.791  0.2355  1.4852  1.6421
   20MOL   H19813156   1.488   3.477   5.916 -0.0373  0.9268 -0.7058
   20MOL   H19913157   1.323   3.455   6.106 -0.9047  1.1414 -0.1982
   20MOL   H20013158   1.215   3.149   6.167  0.0157  0.5413  0.1317
   20MOL   H20113159   1.124   2.928   6.211 -1.2641 -0.2808  2.1406
   20MOL   H20213160   0.727   3.092   6.130  0.0713  1.5793  1.6808
   20MOL   H20313161   0.827   3.301   6.069  0.1811  0.0207 -0.5708
   20MOL   H20413162   1.023   3.340   5.824 -0.1083  2.4929 -1.8109
   20MOL   H20513163   1.180   3.392   5.642  0.0290  1.0290  0.1318
   20MOL   C20613164   0.598   2.928   6.505 -0.0836  0.5280  0.2263
   20MOL   C20713165   0.723   2.936   6.439 -0.3914 -0.2757 -0.2401
   20MOL   C20813166   0.735   2.885   6.306  0.2965 -0.4227  0.0078
   20MOL   O20913167   0.858   2.876   6.244 -0.5660  0.1833 -0.1637
   20MOL   C21013168   0.625   2.840   6.238 -0.2275 -0.3264  0.6996
   20MOL   C21113169   0.501   2.826   6.296  0.3362 -0.4193  0.3297
   20MOL   C21213170   0.491   2.864   6.434 -0.3024  0.1502 -0.4482
   20MOL   C21313171   0.363   2.837   6.500 -0.1976 -0.9795  0.0224
   20MOL   O21413172   0.254   2.872   6.448 -0.2865 -0.4870  0.0698
   20MOL   C21513173   0.365   2.754   6.624 -0.5213 -0.0074  0.0307
   20MOL   C21613174   0.474   2.664   6.647  0.8081  0.0784 -0.2825
   20MOL   C21713175   0.475   2.601   6.775 -0.1130  0.5173 -0.2129
   20MOL   C21813176   0.374   2.621   6.872  0.5137 -0.1110  0.1655
   20MOL   O21913177   0.394   2.578   6.999 -0.3260 -0.3637  0.1885
   20MOL   C22013178   0.512   2.599   7.062 -0.8504 -0.3457  0.1885
   20MOL   C22113179   0.565   2.727   7.093  0.2584 -0.2114 -0.6549
   20MOL   C22213180   0.685   2.743   7.164  0.0421 -0.0497 -0.4353
   20MOL   C22313181   0.755   2.626   7.203  0.5415 -0.0941 -0.1631
   20MOL   C22413182   0.706   2.500   7.158 -0.5928 -0.0287  0.0135
   20MOL   C22513183   0.582   2.483   7.096 -0.3153 -0.2070 -0.4683
   20MOL   C22613184   0.261   2.693   6.835  0.5811  0.2772 -0.2269
   20MOL   C22713185   0.255   2.765   6.714  0.2674 -0.1046 -0.1343
   20MOL   H22813186   0.584   2.954   6.608 -0.4178  0.1625  0.2768
   20MOL   H22913187   0.806   2.980   6.493 -2.9163  1.3717  2.4306
   20MOL   H23013188   0.635   2.811   6.135 -0.7470 -0.5617  0.7093
   20MOL   H23113189   0.418   2.783   6.242  0.5606  0.5513 -0.8219
   20MOL   H23213190   0.561   2.647   6.585  0.1242  0.8593 -1.5028
   20MOL   H23313191   0.566   2.548   6.799 -1.1907 -0.8037  1.0411
   20MOL   H23413192   0.506   2.812   7.063 -0.1083 -0.3645 -0.3659
   20MOL   H23513193   0.732   2.840   7.174 -0.1373  0.0667 -0.7169
   20MOL   H23613194   0.771   2.416   7.173 -0.6679 -0.0446  0.2495
   20MOL   H23713195   0.559   2.383   7.061  0.7616 -0.2038 -1.2218
   20MOL   H23813196   0.176   2.704   6.901 -0.3797 -1.1008 -1.2065
   20MOL   H23913197   0.171   2.828   6.689  0.9828  1.2239  0.7811
   20MOL   C24013198   1.095   2.405   7.448  0.1773  0.2279 -0.1849
   20MOL   C24113199   1.046   2.487   7.344  0.2126  0.7923 -0.3128
   20MOL   C24213200   0.920   2.551   7.350  0.5536 -0.3367 -0.0176
   20MOL   O24313201   0.880   2.640   7.253 -0.3252 -0.0049  0.0179
   20MOL   C24413202   0.842   2.538   7.468  0.0098  0.0867  0.0175
   20MOL   C24513203   0.875   2.441   7.562 -0.1049 -0.5911  0.3243
   20MOL   C24613204   0.999   2.377   7.554 -0.3955  1.3072  0.0655
   20MOL   C24713205   1.037   2.279   7.661  0.2249  0.0662  0.0138
   20MOL   O24813206   0.963   2.269   7.763 -0.5459 -0.0228 -0.1611
   20MOL   C24913207   1.160   2.190   7.650 -0.0842  0.7419 -0.3235
   20MOL   C25013208   1.195   2.112   7.540  0.0959 -0.1482 -0.3521
   20MOL   C25113209   1.309   2.031   7.536  0.4847 -0.2349 -0.5209
   20MOL   C25213210   1.403   2.041   7.640  0.1378  0.0108 -0.4463
   20MOL   O25313211   1.522   1.986   7.636 -0.2019  0.2989  0.1993
   20MOL   C25413212   1.615   2.056   7.571  0.0050  0.2671 -0.3662
   20MOL   C25513213   1.629   2.042   7.426  0.3035  0.2997  0.2756
   20MOL   C25613214   1.737   2.103   7.357  0.3893  0.0570 -0.2232
   20MOL   C25713215   1.821   2.194   7.426  0.8279  0.1885  0.5584
   20MOL   C25813216   1.807   2.207   7.564 -0.5834  0.3879 -0.5623
   20MOL   C25913217   1.709   2.136   7.642  0.0356 -0.7000  0.5388
   20MOL   C26013218   1.377   2.118   7.750 -0.5602 -0.1236 -0.1466
   20MOL   C26113219   1.254   2.183   7.761 -0.1759 -0.2051 -0.3247
   20MOL   H26213220   1.185   2.346   7.439  1.5737  2.0614  1.3452
   20MOL   H26313221   1.117   2.497   7.263  1.6364 -3.0021  0.3504
   20MOL   H26413222   0.756   2.602   7.475 -2.3437 -2.9096 -0.4652
   20MOL   H26513223   0.808   2.425   7.645 -1.2079 -0.1340 -0.4704
   20MOL   H26613224   1.126   2.120   7.457 -0.9502 -1.8448  0.3384
   20MOL   H26713225   1.322   1.972   7.446  1.4154 -1.2180  0.2304
   20MOL   H26813226   1.561   1.976   7.373  0.0927 -0.0997  1.0329
   20MOL   H26913227   1.751   2.086   7.252 -1.4344 -0.8791 -0.3343
   20MOL   H27013228   1.877   2.270   7.616  0.0573 -0.4425 -0.3958
   20MOL   H27113229   1.715   2.145   7.749  0.8100  0.3640  0.4148
   20MOL   H27213230   1.438   2.123   7.839 -0.6227 -3.1651  0.1144
   20MOL   H27313231   1.231   2.246   7.846  1.8527  1.7352 -1.1633
   20MOL   C27413232   2.029   2.173   7.015  0.2727  0.1324  0.3396
   20MOL   C27513233   1.961   2.235   7.119  0.2366 -0.4559  0.0457
   20MOL   C27613234   1.983   2.198   7.252  0.3906  0.5281 -0.1313
   20MOL   O27713235   1.915   2.267   7.350  0.1003  0.2781 -0.4203
   20MOL   C27813236   2.077   2.096   7.278  0.2016 -0.6639  0.2709
   20MOL   C27913237   2.134   2.023   7.173 -0.2269  0.6811 -0.0221
   20MOL   C28013238   2.109   2.055   7.040 -0.0685  0.5517 -0.3796
   20MOL   C28113239   2.169   1.977   6.924  0.0215 -0.5225  0.4814
   20MOL   O28213240   2.177   2.023   6.810  0.7182  0.0596 -0.3362
   20MOL   C28313241   2.201   1.833   6.949  0.3189  0.0736 -0.0058
   20MOL   C28413242   2.118   1.740   7.009  0.2336  0.1138  0.1260
   20MOL   C28513243   2.155   1.604   7.017 -0.4126  0.7638 -0.2692
   20MOL   C28613244   2.278   1.561   6.958 -0.0625 -0.2113 -0.0124
   20MOL   O28713245   2.308   1.428   6.951  0.7986 -0.2418  0.7512
   20MOL   C28813246   2.288   1.354   6.835  0.3209  0.2315 -0.0438
   20MOL   C28913247   2.257   1.408   6.708  0.6430  0.3057 -0.5162
   20MOL   C29013248   2.246   1.325   6.595 -0.4217  0.0865 -0.4378
   20MOL   C29113249   2.263   1.186   6.607 -0.3686 -0.9030  0.1612
   20MOL   C29213250   2.306   1.134   6.729  0.8580  0.3097 -0.2089
   20MOL   C29313251   2.307   1.215   6.844  0.2472  0.2813  0.0212
   20MOL   C29413252   2.366   1.651   6.897 -0.7534  0.0784  1.0098
   20MOL   C29513253   2.325   1.790   6.895  0.6703  0.1046  0.2224
   20MOL   H29613254   2.033   2.212   6.915  2.4415 -0.5143  0.1470
   20MOL   H29713255   1.897   2.320   7.101  0.7948  0.0570  0.4593
   20MOL   H29813256   2.099   2.062   7.378  1.4434  0.1125  0.2687
   20MOL   H29913257   2.193   1.942   7.213 -0.0864  1.2910  1.0314
   20MOL   H30013258   2.019   1.771   7.039 -1.0954 -0.6174 -3.2894
   20MOL   H30113259   2.095   1.526   7.061 -1.2526 -0.7140 -3.8273
   20MOL   H30213260   2.250   1.515   6.709 -2.3463  0.1690 -0.3131
   20MOL   H30313261   2.217   1.368   6.500 -0.6956  1.0163  0.0677
   20MOL   H30413262   2.325   1.030   6.751 -1.3179 -0.0978 -0.1669
   20MOL   H30513263   2.342   1.168   6.935  1.7837 -0.6715 -1.0390
   20MOL   H30613264   2.459   1.611   6.859 -0.2792  1.6788  0.4553
   20MOL   H30713265   2.390   1.868   6.859  0.4743  0.3664  0.4359
   20MOL   C30813266   1.979   1.094   6.262  0.3558 -0.0524  0.6991
   20MOL   C30913267   2.110   1.106   6.313 -0.2672 -0.1482  0.4518
   20MOL   C31013268   2.131   1.084   6.449 -1.3795 -0.3106 -0.6798
   20MOL   O31113269   2.253   1.104   6.498  0.1880 -0.0027  0.2136
   20MOL   C31213270   2.026   1.060   6.538 -0.8924 -0.4676 -0.1808
   20MOL   C31313271   1.887   1.057   6.490  0.3548 -0.2868  0.9920
   20MOL   C31413272   1.863   1.072   6.350 -0.0855 -0.4502  0.1896
   20MOL   C31513273   1.719   1.060   6.299 -0.1078  0.1899 -0.4302
   20MOL   O31613274   1.626   1.091   6.373  0.4064 -0.6796  0.4471
   20MOL   C31713275   1.689   0.999   6.166 -0.2687 -0.3014  0.2784
   20MOL   C31813276   1.584   1.049   6.083 -0.0412  0.4829 -0.7373
   20MOL   C31913277   1.557   1.002   5.952 -0.1238 -0.1194  0.5946
   20MOL   C32013278   1.635   0.890   5.913 -0.2558  0.2138  0.3722
   20MOL   O32113279   1.611   0.820   5.793  0.4608  0.1921  0.3406
   20MOL   C32213280   1.562   0.888   5.686 -0.0028 -0.2704  0.4960
   20MOL   C32313281   1.616   1.010   5.645 -0.3974  0.9716  0.0458
   20MOL   C32413282   1.572   1.072   5.527 -0.2500 -0.2138  0.3215
   20MOL   C32513283   1.463   1.021   5.457  0.0278 -0.3286  0.2688
   20MOL   C32613284   1.403   0.901   5.502  0.0553  0.2507  0.2481
   20MOL   C32713285   1.454   0.831   5.616  0.2378  0.3026 -0.1219
   20MOL   C32813286   1.735   0.834   6.000 -0.8612  0.2350 -0.5570
   20MOL   C32913287   1.765   0.891   6.124  0.1945 -0.3696 -0.3588
   20MOL   H33013288   1.965   1.109   6.156  1.7884 -1.8195  0.2474
   20MOL   H33113289   2.200   1.128   6.257 -0.5588  0.4773  0.2298
   20MOL   H33213290   2.049   1.049   6.643  1.0338  3.6208 -0.0798
   20MOL   H33313291   1.802   1.046   6.555  0.6838 -1.7142  1.2012
   20MOL   H33413292   1.531   1.132   6.125 -1.4742 -0.1767 -1.1962
   20MOL   H33513293   1.483   1.040   5.883 -0.9364  0.3339  1.7006
   20MOL   H33613294   1.701   1.052   5.697  0.2720 -0.2042 -0.0920
   20MOL   H33713295   1.605   1.171   5.500  0.5882 -0.8383 -1.0065
   20MOL   H33813296   1.319   0.870   5.441 -0.7995  2.1881  0.3974
   20MOL   H33913297   1.409   0.736   5.639 -3.0658  1.5700 -1.0449
   20MOL   H34013298   1.788   0.745   5.970 -1.7110 -0.1662 -0.8672
   20MOL   H34113299   1.842   0.846   6.184 -0.9693 -0.2892  1.2355
   20MOL   C34213300   1.566   0.927   5.054 -0.0074  0.4937 -0.2048
   20MOL   C34313301   1.543   0.960   5.191 -0.7815 -0.1476  0.6913
   20MOL   C34413302   1.442   1.058   5.225  0.4370  0.1171 -0.2535
   20MOL   O34513303   1.410   1.091   5.352  0.4208 -0.4108 -0.0050
   20MOL   C34613304   1.382   1.126   5.123 -0.0524 -0.1227 -0.4219
   20MOL   C34713305   1.398   1.100   4.986 -0.6830  0.8825 -0.2164
   20MOL   C34813306   1.486   0.994   4.952 -0.9849 -0.4183 -0.8031
   20MOL   C34913307   1.499   0.966   4.812  0.3626 -0.5358  0.4982
   20MOL   O35013308   1.399   0.950   4.743 -0.1727  0.2684 -0.1693
   20MOL   C35113309   1.633   0.993   4.743  0.1045  0.1074  0.0463
   20MOL   C35213310   1.743   1.047   4.821  0.1540  0.3017 -0.0442
   20MOL   C35313311   1.869   1.062   4.756  0.4328  0.1175  0.4016
   20MOL   C35413312   1.872   1.036   4.612  0.7783  0.8657  0.1558
   20MOL   O35513313   1.990   1.049   4.541  0.0477  0.3929 -0.3341
   20MOL   C35613314   2.048   1.169   4.545  0.5175  0.5779 -0.6668
   20MOL   C35713315   2.190   1.174   4.543 -0.4496  0.3180  0.0818
   20MOL   C35813316   2.255   1.297   4.558 -0.4287 -0.5258  0.1833
   20MOL   C35913317   2.185   1.413   4.575  0.6748 -0.1360 -0.2846
   20MOL   C36013318   2.046   1.412   4.562 -0.1990 -0.3619 -0.0554
   20MOL   C36113319   1.976   1.291   4.550  0.0743 -0.2167  0.7893
   20MOL   C36213320   1.756   1.003   4.536 -0.2628 -0.2596 -0.0664
   20MOL   C36313321   1.636   0.975   4.605  0.1994 -0.0978  0.1879
   20MOL   H36413322   1.637   0.850   5.028  0.3214  1.0335 -0.9025
   20MOL   H36513323   1.596   0.906   5.269  0.3585 -0.8565 -0.5414
   20MOL   H36613324   1.310   1.202   5.150  0.8899  0.5205  0.3128
   20MOL   H36713325   1.343   1.153   4.910  0.3206  1.3363 -0.6388
   20MOL   H36813326   1.734   1.075   4.925 -2.0409 -2.0809  0.4768
   20MOL   H36913327   1.958   1.081   4.813 -1.2166  1.6948  2.5347
   20MOL   H37013328   2.251   1.084   4.544  0.9491  1.2608  1.7398
   20MOL   H37113329   2.362   1.309   4.566 -0.3142 -2.6981  2.6231
   20MOL   H37213330   2.005   1.511   4.553  2.0146  0.4709 -1.4239
   20MOL   H37313331   1.869   1.281   4.537  0.1852 -2.8526  1.6619
   20MOL   H37413332   1.763   0.996   4.429 -0.2614 -2.0835  0.0234
   20MOL   H37513333   1.550   0.947   4.545 -0.5850  3.1573 -0.3242
   20MOL   C37613334   2.373   1.836   4.462 -0.3955 -0.5088 -0.6435
   20MOL   C37713335   2.325   1.742   4.561 -0.1216  1.1488 -0.0038
   20MOL   C37813336   2.279   1.618   4.522  0.2956 -0.0789 -0.5131
   20MOL   O37913337   2.243   1.531   4.614  0.2641  0.9152  0.5047
   20MOL   C38013338   2.278   1.589   4.383  0.1389 -0.3468 -0.1535
   20MOL   C38113339   2.335   1.671   4.288  0.2635 -0.1616  0.4234
   20MOL   C38213340   2.395   1.793   4.326  0.0873 -0.7956 -0.6475
   20MOL   C38313341   2.462   1.884   4.225 -0.3637 -0.5139 -0.3367
   20MOL   O38413342   2.483   2.003   4.250 -0.2226 -0.2374  0.1991
   20MOL   C38513343   2.515   1.824   4.096 -0.2255  0.4238  0.4201
   20MOL   C38613344   2.572   1.699   4.094 -0.1690 -0.4497  0.4780
   20MOL   C38713345   2.618   1.640   3.975 -0.2927  0.4376 -0.1284
   20MOL   C38813346   2.604   1.707   3.850  0.5854 -0.1662  0.2087
   20MOL   O38913347   2.634   1.648   3.734  0.1760 -0.2404  0.7152
   20MOL   C39013348   2.587   1.523   3.694  0.0123 -0.0921 -0.2322
   20MOL   C39113349   2.664   1.442   3.612  0.6636  0.2999  0.0584
   20MOL   C39213350   2.633   1.311   3.580  0.2861 -0.3094 -0.6215
   20MOL   C39313351   2.512   1.255   3.632 -0.2225 -0.3014 -1.2628
   20MOL   C39413352   2.434   1.330   3.721  0.3767 -0.0671  0.4725
   20MOL   C39513353   2.465   1.469   3.747  0.7307 -0.9980  0.3230
   20MOL   C39613354   2.545   1.837   3.851  0.2527 -0.1183  0.1667
   20MOL   C39713355   2.497   1.886   3.973  0.4026  0.7392  0.0551
   20MOL   H39813356   2.405   1.935   4.490 -1.1229 -1.1870  2.9234
   20MOL   H39913357   2.318   1.778   4.662  0.1178 -0.6264  0.6607
   20MOL   H40013358   2.246   1.493   4.345  0.4565 -1.4905  2.3209
   20MOL   H40113359   2.330   1.636   4.186 -0.3952 -0.3290  0.5139
   20MOL   H40213360   2.588   1.649   4.189 -1.8599  0.0261  1.0285
   20MOL   H40313361   2.675   1.548   3.976  1.3808  1.4515  2.2809
   20MOL   H40413362   2.760   1.481   3.580  0.9908  0.6596  1.4605
   20MOL   H40513363   2.698   1.245   3.524  2.3155 -0.6146  2.0279
   20MOL   H40613364   2.342   1.289   3.760 -0.7941 -0.3994 -2.4814
   20MOL   H40713365   2.410   1.529   3.818  0.8781 -0.1901 -0.2290
   20MOL   H40813366   2.538   1.896   3.761  2.3493  1.0794  0.7434
   20MOL   H40913367   2.459   1.987   3.974 -3.0486 -0.4802  1.7470
   20MOL   C41013368   2.169   0.941   3.669  0.8100  0.0901 -0.3550
   20MOL   C41113369   2.300   0.986   3.684 -0.4142 -0.1817  0.5164
   20MOL   C41213370   2.348   1.088   3.598 -0.7116 -0.5999 -0.6641
   20MOL   O41313371   2.479   1.129   3.601  0.1289 -0.3769  0.4275
   20MOL   C41413372   2.258   1.149   3.504  0.0547 -0.5534 -0.1933
   20MOL   C41513373   2.119   1.115   3.503 -0.4061  0.3323 -0.1925
   20MOL   C41613374   2.079   1.006   3.582  0.7013 -0.2662 -0.2278
   20MOL   C41713375   1.937   0.947   3.574 -0.4819 -0.4786  0.4413
   20MOL   O41813376   1.848   0.985   3.647 -0.3563 -0.0139 -0.0552
   20MOL   C41913377   1.925   0.837   3.474  0.2240  0.1644  0.0541
   20MOL   C42013378   2.033   0.782   3.398  0.2724 -0.0821  0.1054
   20MOL   C42113379   2.005   0.678   3.308 -0.0146  0.4358  0.1370
   20MOL   C42213380   1.877   0.642   3.267 -0.7248 -0.0720 -0.1279
   20MOL   O42313381   1.862   0.563   3.158 -0.5413 -0.0834 -0.0995
   20MOL   C42413382   1.895   0.428   3.177  0.5528 -0.4477  0.5460
   20MOL   C42513383   2.006   0.373   3.113  0.2137  0.4154  0.6413
   20MOL   C42613384   2.033   0.234   3.126 -0.3623 -0.6348  1.0068
   20MOL   C42713385   1.949   0.153   3.204 -0.7708 -0.7597 -0.0651
   20MOL   C42813386   1.835   0.215   3.274  0.0446 -0.0740 -0.2077
   20MOL   C42913387   1.808   0.354   3.254 -0.1910  0.5124  1.0757
   20MOL   C43013388   1.774   0.703   3.333  0.3134 -0.7642  0.0729
   20MOL   C43113389   1.788   0.796   3.440 -0.3269  0.1037 -0.2975
   20MOL   H43213390   2.140   0.853   3.725  0.9768  0.3913  0.2010
   20MOL   H43313391   2.368   0.933   3.749 -0.0744 -0.8067 -0.3372
   20MOL   H43413392   2.301   1.227   3.443 -0.9310 -0.6733 -1.0567
   20MOL   H43513393   2.041   1.172   3.454 -0.9000  0.0747  0.2901
   20MOL   H43613394   2.133   0.816   3.421  0.3812 -1.5441  1.9961
   20MOL   H43713395   2.089   0.647   3.247  0.7543  0.2910  1.2518
   20MOL   H43813396   2.071   0.428   3.047 -0.6311  0.2835 -0.3113
   20MOL   H43913397   2.123   0.201   3.075  0.5494  0.8996  1.5795
   20MOL   H44013398   1.767   0.157   3.334 -0.2413  0.7574  0.2813
   20MOL   H44113399   1.729   0.396   3.314  0.0395  0.5944  1.3209
   20MOL   H44213400   1.680   0.672   3.290  0.9543  1.0146 -2.8036
   20MOL   H44313401   1.700   0.836   3.487 -0.4187  0.8885 -1.1185
   20MOL   C44413402   2.110   8.081   3.455  0.4815  0.2170  0.6068
   20MOL   C44513403   2.028   8.148   3.366  0.1496 -0.4306 -0.1111
   20MOL   C44613404   2.057   8.279   3.316 -0.5395 -1.0125  0.6224
   20MOL   O44713405   1.979   0.017   3.211  0.3012 -0.5898  0.4530
   20MOL   C44813406   2.173   0.027   3.368  0.0846  0.4172 -0.1090
   20MOL   C44913407   2.254   8.276   3.470  0.1705 -0.3394  0.0908
   20MOL   C45013408   2.216   8.147   3.522  0.1484 -0.9900 -0.3979
   20MOL   C45113409   2.293   8.076   3.626 -0.1615 -0.1029 -0.2439
   20MOL   O45213410   2.243   7.991   3.697  0.2655 -0.0544 -0.1712
   20MOL   C45313411   2.430   8.119   3.639  0.2309  0.5784  0.4100
   20MOL   C45413412   2.475   8.160   3.768 -0.8327 -0.0176  0.6098
   20MOL   C45513413   2.612   8.197   3.791  0.0979 -0.3240 -0.1642
   20MOL   C45613414   2.704   8.190   3.683  0.0734 -0.1262  0.7810
   20MOL   O45713415   2.840   8.216   3.700  0.0419 -0.5479 -0.1804
   20MOL   C45813416   2.886   8.282   3.811 -0.3440  1.0580  0.4627
   20MOL   C45913417   3.008   8.225   3.863 -0.8191  0.9929  0.1973
   20MOL   C46013418   3.079   8.280   3.969 -0.8312  0.5297  0.5313
   20MOL   C46113419   3.036   0.097   4.018  0.1616  0.3858 -1.3493
   20MOL   C46213420   2.920   0.158   3.962 -0.1703  0.6443  0.5553
   20MOL   C46313421   2.845   0.094   3.859  0.1725 -0.1728 -0.3224
   20MOL   C46413422   2.659   8.159   3.555  0.3857 -0.2800  1.0475
   20MOL   C46513423   2.525   8.119   3.533  0.3168 -0.1118 -0.5357
   20MOL   H46613424   2.088   7.978   3.480 -3.1250  0.8174  0.1796
   20MOL   H46713425   1.945   8.094   3.324 -0.2494 -0.5233  0.7835
   20MOL   H46813426   2.200   0.125   3.332 -2.0692  1.1992  0.2772
   20MOL   H46913427   2.329   0.026   3.515  1.0564 -0.0129 -1.8420
   20MOL   H47013428   2.411   8.159   3.855 -0.5270  0.2913  0.8394
   20MOL   H47113429   2.636   8.226   3.892  0.2135  3.0035 -1.0937
   20MOL   H47213430   3.027   8.122   3.837  0.7923  0.6655  2.5455
   20MOL   H47313431   3.157   8.226   4.021 -0.3024  2.5467  1.8657
   20MOL   H47413432   2.894   0.252   4.008  2.9256  1.3643  0.9094
   20MOL   H47513433   2.759   0.142   3.816 -0.8637  0.2102  2.1014
   20MOL   H47613434   2.728   8.148   3.472 -1.5980 -2.4033 -0.4015
   20MOL   H47713435   2.501   8.083   3.434 -0.7472 -3.0115  0.7357
   20MOL   C47813436   2.926   0.103   4.429 -0.3526  0.0156 -0.4173
   20MOL   C47913437   2.980   0.077   4.301  0.5022 -0.3671  0.1024
   20MOL   C48013438   3.055   0.184   4.239 -0.1398  0.3889 -0.0733
   20MOL   O48113439   3.109   0.161   4.114 -0.6782 -0.3770  0.3660
   20MOL   C48213440   3.060   0.311   4.297  0.1129 -0.2660  0.6216
   20MOL   C48313441   2.998   0.331   4.419  0.3738 -0.4108 -0.3250
   20MOL   C48413442   2.926   0.229   4.486 -0.5344 -0.1502  0.5345
   20MOL   C48513443   2.848   0.264   4.607  0.1182  0.1981  0.3557
   20MOL   O48613444   2.811   0.381   4.621  0.7957  0.7753 -0.0045
   20MOL   C48713445   2.794   0.148   4.690 -0.6087  0.5129  0.2098
   20MOL   C48813446   2.656   0.149   4.731 -0.2257 -0.1881 -0.0977
   20MOL   C48913447   2.609   0.064   4.830 -0.3749 -0.0832 -0.0051
   20MOL   C49013448   2.698   8.276   4.878  0.3071  0.6987  0.2869
   20MOL   O49113449   2.648   8.186   4.974  0.0249 -0.5331 -0.4392
   20MOL   C49213450   2.646   8.054   4.952  0.0889 -0.3490  0.1577
   20MOL   C49313451   2.559   8.003   4.856 -0.2348  0.1532  0.4614
   20MOL   C49413452   2.540   7.865   4.853  0.6737  0.1871 -0.1939
   20MOL   C49513453   2.611   7.781   4.944  0.3505  0.3022 -0.1234
   20MOL   C49613454   2.714   7.838   5.018 -0.1278 -0.0006 -0.1482
   20MOL   C49713455   2.732   7.976   5.029 -0.6343  0.7609  0.1542
   20MOL   C49813456   2.829   8.261   4.829  0.0185  0.6103  0.8456
   20MOL   C49913457   2.883   0.050   4.739 -0.1875 -0.0854 -0.0643
   20MOL   H50013458   2.877   0.021   4.480  0.1036  0.1329  0.2117
   20MOL   H50113459   2.960   8.297   4.249  4.0945 -0.6134 -0.9952
   20MOL   H50213460   3.107   0.393   4.245  0.7334 -2.9007 -3.1671
   20MOL   H50313461   3.001   0.431   4.460  0.8209 -0.0124 -1.3054
   20MOL   H50413462   2.588   0.223   4.692 -1.6073 -2.9893 -3.2042
   20MOL   H50513463   2.505   0.063   4.858  0.2264 -0.3873  2.3212
   20MOL   H50613464   2.508   8.073   4.792  0.0035  0.1968  0.3180
   20MOL   H50713465   2.476   7.820   4.779  2.2737 -1.0382 -0.8772
   20MOL   H50813466   2.777   7.775   5.079 -0.1493  1.7828  1.7517
   20MOL   H50913467   2.808   8.025   5.088  0.9542 -0.0485 -1.1596
   20MOL   H51013468   2.880   8.176   4.872 -0.0905  0.3717  0.5039
   20MOL   H51113469   2.989   0.048   4.721 -0.2083 -0.3704 -0.1601
   20MOL   C51213470   2.268   7.460   4.938  0.1838  0.4036  0.4658
   20MOL   C51313471   2.401   7.494   4.917 -0.5800 -0.9797 -0.8367
   20MOL   C51413472   2.455   7.610   4.977 -0.2599 -0.7463  0.2279
   20MOL   O51513473   2.585   7.650   4.959  0.1646  0.4290 -0.7178
   20MOL   C51613474   2.374   7.689   5.061 -0.3050 -0.2112 -0.1359
   20MOL   C51713475   2.238   7.666   5.068 -0.8986 -0.2707 -0.6219
   20MOL   C51813476   2.180   7.557   4.998  0.0227 -0.4908  0.3342
   20MOL   C51913477   2.035   7.530   4.984 -0.1721 -0.1139  0.7910
   20MOL   O52013478   1.989   7.420   5.008  0.9524  0.5636  0.0762
   20MOL   C52113479   1.946   7.656   4.951 -0.2019 -0.3300 -0.6329
   20MOL   C52213480   1.996   7.772   4.884 -0.3721 -0.6340  0.2251
   20MOL   C52313481   1.917   7.888   4.863  0.7842  0.7495 -0.5982
   20MOL   C52413482   1.786   7.889   4.915  0.3820  0.3391  0.1048
   20MOL   O52513483   1.707   8.000   4.895 -0.1310 -0.3598  0.3112
   20MOL   C52613484   1.706   8.100   4.982  0.1754 -0.6488 -0.0272
   20MOL   C52713485   1.585   8.153   5.025  0.5782 -0.4186  0.7132
   20MOL   C52813486   1.578   8.260   5.115 -0.4206  0.4729  0.1042
   20MOL   C52913487   1.694   8.302   5.181 -0.4515  0.2947  0.1421
   20MOL   C53013488   1.818   8.249   5.143 -0.6533  1.0840 -0.6171
   20MOL   C53113489   1.825   8.157   5.040  0.2860  0.3575 -0.1997
   20MOL   C53213490   1.731   7.773   4.968 -0.1136 -0.1380  0.2647
   20MOL   C53313491   1.814   7.661   4.998  0.5078 -0.8570  0.0402
   20MOL   H53413492   2.237   7.369   4.889  0.1925  0.4657  0.3421
   20MOL   H53513493   2.462   7.429   4.855  2.7789  0.3556  0.9097
   20MOL   H53613494   2.417   7.772   5.116  0.4694 -0.6685 -0.0422
   20MOL   H53713495   2.184   7.747   5.113  0.0687  0.1069 -0.1171
   20MOL   H53813496   2.096   7.773   4.842 -1.4349 -0.4942 -2.3988
   20MOL   H53913497   1.962   7.976   4.818 -0.1577  2.6972  2.1094
   20MOL   H54013498   1.499   8.123   4.968  1.2230  0.1337 -0.6021
   20MOL   H54113499   1.481   8.296   5.145 -0.4300  1.0119 -0.5659
   20MOL   H54213500   1.909   8.277   5.194 -0.8253  1.1680 -0.3559
   20MOL   H54313501   1.918   8.138   4.988  0.9230  0.6377  0.8099
   20MOL   H54413502   1.628   7.781   4.999 -0.6691 -1.6480 -1.1309
   20MOL   H54513503   1.772   7.581   5.057  0.2911  0.1772  1.3217
   20MOL   C54613504   1.965   0.303   5.396  1.1732  0.1700  0.1426
   20MOL   C54713505   1.875   0.193   5.373 -0.1578 -0.4508  0.7392
   20MOL   C54813506   1.776   0.188   5.275 -0.5130 -0.3910 -0.3315
   20MOL   O54913507   1.684   0.091   5.275  0.1385 -0.2212 -0.3702
   20MOL   C55013508   1.777   0.297   5.186 -0.2468 -0.1635  0.2878
   20MOL   C55113509   1.864   0.409   5.205  0.3474  1.0636 -0.2030
   20MOL   C55213510   1.959   0.415   5.303  0.0508  0.4852 -0.1030
   20MOL   C55313511   2.054   0.526   5.317 -0.5480 -1.2035 -0.2607
   20MOL   O55413512   2.092   0.587   5.213  1.0337  0.3490  0.4615
   20MOL   C55513513   2.107   0.576   5.451  0.2917 -0.8788  0.0602
   20MOL   C55613514   2.238   0.639   5.454 -0.1462 -0.2018  0.1108
   20MOL   C55713515   2.289   0.681   5.576  0.6054  0.2128 -0.3245
   20MOL   C55813516   2.225   0.661   5.704  0.4894 -0.6486 -0.1234
   20MOL   O55913517   2.271   0.712   5.824 -0.2336  0.2670 -0.3630
   20MOL   C56013518   2.405   0.738   5.840 -0.9770  0.1528 -0.3756
   20MOL   C56113519   2.489   0.635   5.883 -0.9376  0.4348  0.1417
   20MOL   C56213520   2.630   0.653   5.875  0.4754 -0.6206 -0.5027
   20MOL   C56313521   2.684   0.783   5.839 -0.5837  0.1646 -0.6887
   20MOL   C56413522   2.595   0.887   5.808  0.5385 -0.0222  0.4199
   20MOL   C56513523   2.459   0.863   5.808  1.0940 -0.1490  0.1660
   20MOL   C56613524   2.096   0.598   5.698 -0.1043 -0.2480 -0.0913
   20MOL   C56713525   2.044   0.553   5.574 -0.3597  0.9454 -0.5571
   20MOL   H56813526   2.035   0.299   5.478  1.9573  0.6156 -0.4990
   20MOL   H56913527   1.880   0.119   5.452 -0.7335  0.8814  2.0641
   20MOL   H57013528   1.696   0.306   5.115  0.2783  2.9331  0.0088
   20MOL   H57113529   1.866   0.492   5.136 -1.7354 -1.2149 -3.1520
   20MOL   H57213530   2.302   0.646   5.366  0.5761  0.4136  0.6762
   20MOL   H57313531   2.384   0.732   5.571  1.2563 -1.0121 -0.7905
   20MOL   H57413532   2.447   0.542   5.916  1.6573 -0.2194  1.7614
   20MOL   H57513533   2.694   0.568   5.894  0.2289 -0.7488 -0.2428
   20MOL   H57613534   2.633   0.986   5.788  0.5399 -0.1943 -0.4738
   20MOL   H57713535   2.388   0.939   5.780  1.1459 -0.0708  0.2484
   20MOL   H57813536   2.035   0.590   5.787  0.6689  0.4445  0.5034
   20MOL   H57913537   1.949   0.502   5.572 -0.2375  0.5156  2.4696
   20MOL   C58013538   2.965   0.746   6.188  0.0500  0.3626 -0.1323
   20MOL   C58113539   2.903   0.723   6.062  0.5759  0.0312  0.0009
   20MOL   C58213540   2.868   0.826   5.964 -0.0244  0.4992 -0.0948
   20MOL   O58313541   2.817   0.799   5.844  0.6008  0.0229 -0.3289
   20MOL   C58413542   2.895   0.959   6.011 -0.0222 -0.1308  0.3999
   20MOL   C58513543   2.950   0.987   6.138  0.0638  0.1441  0.2055
   20MOL   C58613544   2.996   0.881   6.224  0.3196 -0.2857 -0.0666
   20MOL   C58713545   3.028   0.910   6.368  0.6764 -0.3366  0.0280
   20MOL   O58813546   2.954   0.877   6.461 -0.3231  0.2182  0.2145
   20MOL   C58913547   3.158   0.985   6.394  0.3280  0.5466  0.4406
   20MOL   C59013548   3.174   1.039   6.525  0.0623  0.0619  0.0370
   20MOL   C59113549   3.285   1.116   6.557 -0.8697 -0.7789 -0.1470
   20MOL   C59213550   3.379   1.142   6.455  0.5869 -0.0783  0.0024
   20MOL   O59313551   3.483   1.223   6.487  0.4408 -0.3197 -0.7825
   20MOL   C59413552   3.592   1.242   6.410  0.1387  0.8646  0.0157
   20MOL   C59513553   3.600   1.338   6.311 -0.3770  0.5205  0.3577
   20MOL   C59613554   3.709   1.354   6.218 -0.1457  0.9048  0.1046
   20MOL   C59713555   3.828   1.279   6.250 -0.0761  0.3403  0.3005
   20MOL   C59813556   3.825   1.177   6.354 -0.6344 -0.3548 -0.2715
   20MOL   C59913557   3.709   1.157   6.432 -0.0235  0.5145  0.0969
   20MOL   C60013558   3.370   1.076   6.327  0.6352 -0.1923 -0.3414
   20MOL   C60113559   3.258   1.002   6.296  0.4191  0.5079 -0.1604
   20MOL   H60213560   2.966   0.663   6.258  0.1964  1.1160  0.7708
   20MOL   H60313561   2.873   0.621   6.040  0.6152  0.2116 -0.8989
   20MOL   H60413562   2.857   1.040   5.949  1.8273  0.3050 -0.1936
   20MOL   H60513563   2.975   1.084   6.177  0.6318  0.2469 -0.4077
   20MOL   H60613564   3.095   1.020   6.595 -0.0013 -1.8862 -0.5283
   20MOL   H60713565   3.295   1.157   6.657  1.6777  0.0316 -0.7030
   20MOL   H60813566   3.520   1.411   6.298 -0.5565  0.0295 -1.4289
   20MOL   H60913567   3.712   1.431   6.142  1.0439  1.9188  1.1598
   20MOL   H61013568   3.913   1.119   6.375 -0.0832 -0.7421 -3.4257
   20MOL   H61113569   3.706   1.088   6.515  1.1418  0.0274 -0.2641
   20MOL   H61213570   3.444   1.098   6.252  0.6797 -0.5642 -0.4066
   20MOL   H61313571   3.253   0.957   6.199  0.0614  1.6177 -0.6734
   20MOL   C61413572   4.192   1.521   6.297 -0.4278 -0.5230 -0.4575
   20MOL   C61513573   4.072   1.472   6.249 -0.4145 -0.3692  0.2363
   20MOL   C61613574   4.048   1.334   6.217 -0.5857 -0.0439  0.6663
   20MOL   O61713575   3.936   1.283   6.165 -0.1738 -0.3398  0.1738
   20MOL   C61813576   4.148   1.247   6.241  0.0629  0.0924 -0.5906
   20MOL   C61913577   4.273   1.286   6.287  0.3214 -0.4054  0.3034
   20MOL   C62013578   4.293   1.422   6.317 -0.6860 -0.1652 -0.4126
   20MOL   C62113579   4.416   1.468   6.378  0.4147 -0.0716 -1.1022
   20MOL   O62213580   4.413   1.544   6.477 -0.0560 -0.1013  0.3071
   20MOL   C62313581   4.547   1.417   6.330 -0.6932 -0.4128  0.1307
   20MOL   C62413582   4.570   1.387   6.195  0.5004  0.0350  0.5500
   20MOL   C62513583   4.705   1.348   6.157  0.2985 -0.0473  0.2902
   20MOL   C62613584   4.807   1.344   6.259 -0.1760 -0.0123  0.2392
   20MOL   O62713585   4.935   1.305   6.221  0.8044  0.4515  0.3363
   20MOL   C62813586   5.041   1.390   6.250  0.0149  0.6937  0.4248
   20MOL   C62913587   5.137   1.338   6.341  0.2272  0.4041  0.3664
   20MOL   C63013588   5.247   1.411   6.386  0.2925  0.2375  0.3530
   20MOL   C63113589   5.259   1.540   6.329  0.0500 -0.7479 -1.0689
   20MOL   C63213590   5.161   1.596   6.244  0.1217 -0.1257  0.0946
   20MOL   C63313591   5.054   1.525   6.197  0.6990 -0.2068  0.2669
   20MOL   C63413592   4.786   1.387   6.389  0.1782  0.1934 -0.8010
   20MOL   C63513593   4.654   1.422   6.427  0.4634  0.0216 -0.5213
   20MOL   H63613594   4.207   1.624   6.326  1.9629 -0.7569 -0.7119
   20MOL   H63713595   3.986   1.536   6.245 -0.2213 -0.2061 -2.2854
   20MOL   H63813596   4.134   1.146   6.204 -1.6389 -0.0959  0.5171
   20MOL   H63913597   4.356   1.216   6.291  0.8316  0.1746 -0.0756
   20MOL   H64013598   4.489   1.383   6.124  0.8524  0.2680  0.1346
   20MOL   H64113599   4.732   1.315   6.058 -0.7792 -0.5736  0.1642
   20MOL   H64213600   5.117   1.238   6.377 -0.9798  0.7941  0.7999
   20MOL   H64313601   5.316   1.371   6.459 -0.6040 -1.9583  0.0373
   20MOL   H64413602   5.172   1.696   6.203 -1.7714 -0.2782 -0.8485
   20MOL   H64513603   4.991   1.576   6.126 -0.1443  2.7073  2.9644
   20MOL   H64613604   4.864   1.392   6.464 -2.7187  1.6180  2.2677
   20MOL   H64713605   4.633   1.452   6.529  2.2773  0.7513 -0.3486
   20MOL   C64813606   5.256   1.959   6.470 -0.3042 -0.8444 -0.2192
   20MOL   C64913607   5.320   1.856   6.404  0.3111  0.3045 -0.2145
   20MOL   C65013608   5.327   1.723   6.458  0.2915 -0.0455 -0.0973
   20MOL   O65113609   5.358   1.620   6.380 -0.1647 -0.5519  0.2077
   20MOL   C65213610   5.289   1.707   6.593 -0.4186 -0.2690 -0.2568
   20MOL   C65313611   5.243   1.820   6.669 -0.3864  0.9409  0.4465
   20MOL   C65413612   5.218   1.945   6.605  0.5250  0.0444 -0.1454
   20MOL   C65513613   5.171   2.065   6.676  0.3845  0.0939 -0.3593
   20MOL   O65613614   5.212   2.176   6.644 -0.3539 -0.6849 -0.1258
   20MOL   C65713615   5.054   2.062   6.772  0.3055 -0.0884 -0.2985
   20MOL   C65813616   5.009   2.181   6.830  0.2227 -0.5001 -0.4791
   20MOL   C65913617   4.888   2.182   6.893  0.7205 -0.2143  0.4926
   20MOL   C66013618   4.815   2.060   6.918 -0.2355  0.1022  0.7033
   20MOL   O66113619   4.695   2.074   6.988 -0.0448  0.0580 -0.1049
   20MOL   C66213620   4.714   2.068   7.122 -0.1608  0.2278 -0.5805
   20MOL   C66313621   4.764   1.959   7.198  0.3914 -0.0481 -0.2368
   20MOL   C66413622   4.780   1.978   7.335  0.4274 -0.0072 -0.2740
   20MOL   C66513623   4.745   2.094   7.400 -0.3349  0.1745  0.0618
   20MOL   C66613624   4.694   2.198   7.327  0.5625 -0.9171 -0.2877
   20MOL   C66713625   4.682   2.192   7.185  0.2865 -0.2482 -1.0614
   20MOL   C66813626   4.861   1.940   6.854  0.0642  0.5776  0.3194
   20MOL   C66913627   4.983   1.944   6.787  0.3762  0.2927  0.3274
   20MOL   H67013628   5.248   2.052   6.417  1.2245  0.5027  1.8218
   20MOL   H67113629   5.351   1.878   6.303  4.4482 -1.6190  0.5260
   20MOL   H67213630   5.296   1.614   6.646  0.2117  0.2197  0.5278
   20MOL   H67313631   5.218   1.811   6.773  1.2793  0.7334  0.8404
   20MOL   H67413632   5.068   2.271   6.821 -1.7819  0.7653 -1.0552
   20MOL   H67513633   4.838   2.274   6.921  1.2119  0.0768  0.4358
   20MOL   H67613634   4.800   1.873   7.143  2.7850  0.9036 -0.1955
   20MOL   H67713635   4.828   1.898   7.388  1.2119 -1.1847 -2.6816
   20MOL   H67813636   4.657   2.283   7.382 -0.2202 -0.5684 -1.3316
   20MOL   H67913637   4.646   2.276   7.128 -0.9516 -1.1577 -1.6381
   20MOL   H68013638   4.808   1.847   6.869  0.9235 -0.1748 -1.1616
   20MOL   H68113639   5.019   1.856   6.735 -0.0151  3.2030 -5.3138
   20MOL   H68213640   4.755   2.102   7.508  1.4817  1.2266 -0.1686
   21MOL     C113641   7.067   2.863   2.607  0.4453 -0.0795  0.8706
   21MOL     C213642   7.000   2.896   2.726  0.1735  0.3578 -0.0012
   21MOL     C313643   6.881   2.825   2.761  0.2534 -0.2491  1.1966
   21MOL     O413644   6.808   2.858   2.868 -0.4394 -0.1651  0.1874
   21MOL     C513645   6.825   2.727   2.675  0.3376 -0.3253 -0.5989
   21MOL     C613646   6.890   2.704   2.545 -0.1889  0.3644  0.0066
   21MOL     C713647   7.013   2.769   2.515 -0.0149  0.9502  0.4831
   21MOL     C813648   7.074   2.742   2.379  0.1372  0.5076 -0.2999
   21MOL     O913649   7.112   2.834   2.309 -0.0271  0.3473  0.7623
   21MOL    C1013650   7.090   2.600   2.326 -0.3787  0.4346 -0.0988
   21MOL    C1113651   7.102   2.576   2.192  0.5036  0.5539  0.7434
   21MOL    C1213652   7.131   2.445   2.151  0.2196 -0.2106 -1.5956
   21MOL    C1313653   7.142   2.335   2.241 -0.3233  0.3699 -0.1759
   21MOL    O1413654   7.175   2.209   2.208  0.0141  0.3400 -0.3452
   21MOL    C1513655   7.299   2.173   2.187 -0.0687 -0.2566  0.0349
   21MOL    C1613656   7.364   2.213   2.063 -0.8113  0.1888 -0.6156
   21MOL    C1713657   7.499   2.172   2.039  0.1043 -0.0450  0.2436
   21MOL    C1813658   7.577   2.096   2.130  0.0881 -1.0866 -0.4552
   21MOL    C1913659   7.506   2.059   2.250 -0.5636  0.0242 -0.1419
   21MOL    C2013660   7.372   2.097   2.281 -0.1255  0.4734 -0.2497
   21MOL    C2113661   7.135   2.361   2.377 -0.1959 -0.1696  1.1018
   21MOL    C2213662   7.103   2.490   2.417  0.6180  0.1965 -0.1623
   21MOL    H2313663   7.162   2.913   2.593  0.2302  1.1002  3.4166
   21MOL    H2413664   7.048   2.959   2.800  1.9067 -0.1277 -0.6773
   21MOL    H2513665   6.744   2.664   2.708 -0.4879  1.7724  1.5605
   21MOL    H2613666   6.856   2.624   2.481 -1.5235 -1.3244  2.7190
   21MOL    H2713667   7.084   2.657   2.123 -1.1599 -1.9449 -1.8752
   21MOL    H2813668   7.138   2.414   2.048  0.4489 -1.1527 -1.2988
   21MOL    H2913669   7.309   2.277   1.995  0.2634  1.1546 -0.6002
   21MOL    H3013670   7.547   2.212   1.951 -0.0547  1.7861  0.9586
   21MOL    H3113671   7.557   2.009   2.331  0.8638  2.5396  0.5779
   21MOL    H3213672   7.329   2.071   2.377  2.5414  1.8377  1.3925
   21MOL    H3313673   7.152   2.279   2.445 -0.7392 -1.2224 -0.0094
   21MOL    H3413674   7.096   2.507   2.524 -0.3895 -1.0257 -0.0269
   21MOL    H3513675   6.825   2.948   2.894 -1.6192  0.5147 -1.2749
   21MOL    C3613676   7.902   2.132   1.806  0.1693 -0.0607  0.8400
   21MOL    C3713677   7.847   2.150   1.935 -0.7450 -0.0266  0.2589
   21MOL    C3813678   7.759   2.055   1.988 -0.4475  0.1119  0.7666
   21MOL    O3913679   7.707   2.058   2.118 -0.6366  0.1762 -1.0774
   21MOL    C4013680   7.723   1.943   1.910  0.4914 -0.2982  0.0647
   21MOL    C4113681   7.777   1.927   1.779 -0.6135  0.2241 -0.6683
   21MOL    C4213682   7.865   2.025   1.724 -0.0891 -0.7011 -0.2892
   21MOL    C4313683   7.900   2.029   1.577 -0.2616 -0.0490  0.2372
   21MOL    O4413684   7.888   2.129   1.503 -0.0121 -0.2306  0.7821
   21MOL    C4513685   7.950   1.903   1.513  0.2468 -0.0537 -0.6224
   21MOL    C4613686   7.935   1.872   1.377  0.1579  0.5251  0.3812
   21MOL    C4713687   7.988   1.752   1.323  0.0216 -0.1190  0.1149
   21MOL    C4813688   8.057   1.661   1.406  1.0681 -0.4391  0.5883
   21MOL    O4913689   8.107   1.548   1.349  0.1223  0.1957 -0.1483
   21MOL    C5013690   8.062   1.423   1.386 -1.0583 -0.2651  0.0945
   21MOL    C5113691   7.941   1.404   1.457 -0.0969 -0.2176  0.4599
   21MOL    C5213692   7.909   1.276   1.499 -0.1077 -0.4620  0.2633
   21MOL    C5313693   7.992   1.166   1.462  0.2750 -0.1113 -0.0870
   21MOL    C5413694   8.108   1.183   1.389  0.4200  0.0431  0.3362
   21MOL    C5513695   8.139   1.315   1.349 -0.0974 -0.8162 -0.7194
   21MOL    C5613696   8.081   1.697   1.544  0.0403  0.1276  1.1027
   21MOL    C5713697   8.031   1.815   1.595  0.1156 -0.7997  0.2295
   21MOL    H5813698   7.967   2.209   1.767 -0.5559  0.9381  1.5651
   21MOL    H5913699   7.871   2.229   2.004  1.1892  0.6698 -1.1862
   21MOL    H6013700   7.662   1.868   1.957  0.2908 -0.4407 -0.4282
   21MOL    H6113701   7.745   1.835   1.731 -0.1055  0.5617 -1.6558
   21MOL    H6213702   7.860   1.923   1.317  1.8206  0.6303 -1.6558
   21MOL    H6313703   7.981   1.734   1.217  0.6738  1.1050 -0.1369
   21MOL    H6413704   7.862   1.478   1.455 -0.3678 -0.5144  0.0953
   21MOL    H6513705   7.808   1.255   1.533 -0.4844  0.4034 -0.3085
   21MOL    H6613706   8.170   1.101   1.355  2.8131  1.9298 -0.0139
   21MOL    H6713707   8.232   1.334   1.298  0.9434 -0.2577  1.2965
   21MOL    H6813708   8.141   1.625   1.597 -1.0743 -2.3524 -0.9113
   21MOL    H6913709   8.058   1.850   1.693  2.3944 -2.3522  0.2052
   21MOL    C7013710   8.149   0.881   1.766  0.1901 -0.0871  0.1056
   21MOL    C7113711   8.056   0.962   1.694 -0.1985  0.4089  0.6163
   21MOL    C7213712   8.026   0.948   1.559  0.8443  0.1031  0.2850
   21MOL    O7313713   7.944   1.038   1.494 -0.1858 -0.4450 -0.1143
   21MOL    C7413714   8.087   0.843   1.493  0.3152 -0.4967 -0.2578
   21MOL    C7513715   8.165   0.749   1.564 -0.6613 -0.2864  0.2513
   21MOL    C7613716   8.198   0.767   1.700  0.3292  0.4065 -0.0299
   21MOL    C7713717   8.304   0.674   1.760  0.7872 -0.0810  0.0702
   21MOL    O7813718   0.044   0.591   1.688 -0.1877 -0.4254 -0.1021
   21MOL    C7913719   0.023   0.687   1.903  0.5181  0.0417 -0.0344
   21MOL    C8013720   8.239   0.646   2.000  0.1095  1.1515  0.2494
   21MOL    C8113721   8.276   0.646   2.135 -0.6981 -0.3282  0.3459
   21MOL    C8213722   0.090   0.694   2.178 -0.4547  0.2488 -0.1984
   21MOL    O8313723   0.115   0.713   2.309  0.2895  0.0500  0.4030
   21MOL    C8413724   0.208   0.629   2.376  0.7140 -0.0065  0.1724
   21MOL    C8513725   0.149   0.506   2.429  0.4550  0.1209 -0.0289
   21MOL    C8613726   0.238   0.420   2.495 -0.2763  0.3529  0.0677
   21MOL    C8713727   0.380   0.443   2.491 -0.0021 -0.1702 -0.1184
   21MOL    C8813728   0.432   0.562   2.430 -0.4649 -0.2330 -0.5521
   21MOL    C8913729   0.341   0.657   2.384  0.7307 -0.8469  0.3805
   21MOL    C9013730   0.187   0.734   2.082  0.4181  0.4870 -0.2646
   21MOL    C9113731   0.149   0.728   1.948 -0.1812 -0.2869  0.1915
   21MOL    H9213732   8.171   0.906   1.869  0.8221  0.2323 -0.1065
   21MOL    H9313733   8.011   1.048   1.742 -1.5830  0.3119 -0.4773
   21MOL    H9413734   8.063   0.834   1.388  1.2773  0.0152 -0.5249
   21MOL    H9513735   8.206   0.670   1.502  1.3646  2.0820 -1.5002
   21MOL    H9613736   8.146   0.604   1.962 -0.3040  0.8846  1.5079
   21MOL    H9713737   8.203   0.600   2.200 -0.2368  0.6257  1.5533
   21MOL    H9813738   0.042   0.493   2.431  0.6000 -1.0097  3.7528
   21MOL    H9913739   0.202   0.332   2.546  0.4511  0.2272  0.3690
   21MOL   H10013740   0.538   0.583   2.436 -0.9203  2.3307 -1.0184
   21MOL   H10113741   0.387   0.745   2.341  0.1705  0.0939  1.6574
   21MOL   H10213742   0.283   0.769   2.115  0.0706  0.8087  0.4308
   21MOL   H10313743   0.211   0.777   1.874  1.9285  1.0992  2.8104
   21MOL   C10413744   0.664   0.213   2.263  0.2297  0.2521 -0.1177
   21MOL   C10513745   0.557   0.271   2.331  0.4050 -0.0558 -0.2707
   21MOL   C10613746   0.566   0.294   2.470 -0.5640 -0.5279  0.1629
   21MOL   O10713747   0.467   0.347   2.545 -0.7541 -0.0622  0.2468
   21MOL   C10813748   0.683   0.252   2.538  0.0023  0.3164 -0.1822
   21MOL   C10913749   0.787   0.195   2.473  0.4815 -0.0692  0.0562
   21MOL   C11013750   0.778   0.165   2.334  0.4146 -0.1451  0.2378
   21MOL   C11113751   0.898   0.109   2.265  0.7084 -0.5421  0.7663
   21MOL   O11213752   1.011   0.134   2.307 -0.1305  0.8824  0.3317
   21MOL   C11313753   0.870   0.043   2.126  0.1614  0.0908  0.4647
   21MOL   C11413754   0.755   8.273   2.119  0.8517  0.0141 -0.4541
   21MOL   C11513755   0.726   8.211   1.997  0.0330  0.0810  0.8446
   21MOL   C11613756   0.798   8.238   1.881  0.1866  0.3021 -0.3338
   21MOL   O11713757   0.769   8.186   1.758  0.0156 -0.2498  0.2036
   21MOL   C11813758   0.652   8.222   1.694 -0.3596  0.4174 -0.7915
   21MOL   C11913759   0.530   8.167   1.725  0.6740 -0.0368 -0.3121
   21MOL   C12013760   0.410   8.209   1.655 -0.1729 -0.4395  0.2742
   21MOL   C12113761   0.417   0.004   1.567 -0.1370 -0.1384  0.0632
   21MOL   C12213762   0.539   0.053   1.530  0.4368  0.8694  0.1208
   21MOL   C12313763   0.654   0.008   1.594 -0.0144  0.7107  0.0406
   21MOL   C12413764   0.913   0.010   1.890 -0.2629 -0.0687  0.2927
   21MOL   C12513765   0.945   0.073   2.009  0.0461 -0.5253 -0.0366
   21MOL   H12613766   0.673   0.205   2.155  0.3744 -0.0167 -0.0882
   21MOL   H12713767   0.464   0.294   2.280 -0.6914 -0.3841  1.5420
   21MOL   H12813768   0.691   0.268   2.644 -1.6133  0.0022  0.0049
   21MOL   H12913769   0.877   0.172   2.528  0.2850 -0.6711  0.1245
   21MOL   H13013770   0.686   8.267   2.202  2.0794 -1.0787  0.5010
   21MOL   H13113771   0.644   8.141   1.996 -1.1269  1.4303  0.0584
   21MOL   H13213772   0.532   8.093   1.804 -0.7665 -1.0925 -1.2384
   21MOL   H13313773   0.320   8.155   1.681  0.1487 -1.1715 -0.1252
   21MOL   H13413774   0.546   0.116   1.442  0.7889  0.5952 -0.0464
   21MOL   H13513775   0.749   0.048   1.561  0.6896 -0.7099  0.3039
   21MOL   H13613776   0.967   0.028   1.798 -0.1362 -1.8558  0.0120
   21MOL   H13713777   1.029   0.140   2.020 -1.6926  1.6368  0.4959
   21MOL   C13813778   0.300   0.429   1.595 -0.4190  0.4399  0.4637
   21MOL   C13913779   0.305   0.287   1.614 -0.8139 -0.2922  0.0034
   21MOL   C14013780   0.296   0.200   1.505 -0.6772 -0.8162  0.3955
   21MOL   O14113781   0.304   0.061   1.512  0.1083 -0.2868  0.1445
   21MOL   C14213782   0.260   0.254   1.377  0.2118  0.0542 -0.3217
   21MOL   C14313783   0.237   0.393   1.360 -0.6903  0.2312 -0.5645
   21MOL   C14413784   0.260   0.484   1.468 -0.2244 -0.0109  0.6555
   21MOL   C14513785   0.248   0.629   1.448 -0.5116 -0.2558 -0.1104
   21MOL   O14613786   0.166   0.680   1.370  0.0727 -0.5893  0.5641
   21MOL   C14713787   0.351   0.715   1.508  0.3615  0.5392 -1.1020
   21MOL   C14813788   0.486   0.686   1.494  0.8342 -0.0221  0.1921
   21MOL   C14913789   0.586   0.771   1.548  0.6104  0.0300 -0.1653
   21MOL   C15013790   0.539   0.898   1.600  0.2470 -0.7480 -0.3573
   21MOL   O15113791   0.631   0.995   1.641  0.0458 -0.0299  0.3734
   21MOL   C15213792   0.669   1.080   1.537 -0.1597  0.9772 -0.3912
   21MOL   C15313793   0.777   1.167   1.565  0.0160  0.1323 -1.2800
   21MOL   C15413794   0.812   1.268   1.470 -0.2864  0.0068  0.3377
   21MOL   C15513795   0.753   1.278   1.349  0.1383 -0.2886  0.3186
   21MOL   C15613796   0.650   1.185   1.318 -0.8673  0.7571  0.6946
   21MOL   C15713797   0.610   1.093   1.411  0.9141 -0.0369  0.5320
   21MOL   C15813798   0.407   0.923   1.627  0.3482 -0.3641  0.9511
   21MOL   C15913799   0.309   0.830   1.584  0.0306 -0.3692 -0.1192
   21MOL   H16013800   0.324   0.496   1.677  0.3708  1.2302 -0.3934
   21MOL   H16113801   0.326   0.249   1.712  0.0003  0.5545  0.1690
   21MOL   H16213802   0.240   0.188   1.294 -2.0157  1.6504 -1.1209
   21MOL   H16313803   0.193   0.421   1.266 -0.6538  0.7887 -0.4192
   21MOL   H16413804   0.518   0.594   1.448 -0.6810 -0.1859 -0.5607
   21MOL   H16513805   0.686   0.732   1.532 -0.4746 -1.9795 -2.4033
   21MOL   H16613806   0.820   1.151   1.663 -2.3686 -1.8713 -0.5312
   21MOL   H16713807   0.892   1.338   1.490 -0.0181 -0.5649  1.3170
   21MOL   H16813808   0.589   1.207   1.231  0.2027  1.7420  0.1730
   21MOL   H16913809   0.522   1.036   1.385  1.7264  0.0425 -2.5791
   21MOL   H17013810   0.386   1.009   1.689  0.5952 -0.9737  1.9031
   21MOL   H17113811   0.204   0.847   1.599  0.1868  1.7966 -1.3172
   21MOL   C17213812   0.680   1.716   1.311  1.0329  0.4670 -0.0797
   21MOL   C17313813   0.743   1.594   1.335  0.5305  0.6544 -0.3112
   21MOL   C17413814   0.719   1.480   1.249 -0.4907 -0.9419  0.5270
   21MOL   O17513815   0.798   1.370   1.260  0.4903  0.1853 -0.0253
   21MOL   C17613816   0.627   1.492   1.144 -0.0957  0.2311 -0.0482
   21MOL   C17713817   0.560   1.619   1.120  0.4393  0.1247 -0.2881
   21MOL   C17813818   0.587   1.728   1.206  0.4228 -0.2800 -0.3035
   21MOL   C17913819   0.504   1.844   1.187 -0.7589  0.5370 -0.1444
   21MOL   O18013820   0.453   1.876   1.080  0.2792  0.1869 -0.3047
   21MOL   C18113821   0.506   1.941   1.300 -0.0559  0.2754 -0.5923
   21MOL   C18213822   0.563   2.073   1.286  0.2746  0.2366  0.1580
   21MOL   C18313823   0.562   2.154   1.399 -0.3025 -0.0345 -0.0036
   21MOL   C18413824   0.501   2.120   1.518  0.3455 -0.1220  0.1667
   21MOL   O18513825   0.515   2.202   1.626 -0.2224  0.0981  0.0927
   21MOL   C18613826   0.592   2.155   1.731 -0.4785 -0.4963  0.5096
   21MOL   C18713827   0.553   2.189   1.861 -0.2229  0.2901 -0.0128
   21MOL   C18813828   0.629   2.142   1.967 -0.1681 -0.4608  0.4103
   21MOL   C18913829   0.741   2.054   1.945 -0.1739  0.0736  0.4505
   21MOL   C19013830   0.774   2.018   1.813  0.0072 -1.1022  0.5264
   21MOL   C19113831   0.698   2.066   1.709  0.0037 -0.0662 -0.1098
   21MOL   C19213832   0.443   1.993   1.536  0.9485 -0.4758  0.2139
   21MOL   C19313833   0.441   1.907   1.424  0.3605  0.5496  0.2783
   21MOL   H19413834   0.686   1.802   1.375 -0.4140 -0.8890  1.9439
   21MOL   H19513835   0.820   1.590   1.411 -0.9658 -0.9307  1.1491
   21MOL   H19613836   0.610   1.414   1.071  1.4968  1.0503 -1.3399
   21MOL   H19713837   0.494   1.624   1.034 -2.8373  1.2182  2.1858
   21MOL   H19813838   0.623   2.097   1.200 -0.2156 -1.4725 -0.6667
   21MOL   H19913839   0.612   2.250   1.402  2.2162 -1.2989 -0.0446
   21MOL   H20013840   0.458   2.239   1.873 -0.7065 -0.8446  0.9410
   21MOL   H20113841   0.593   2.169   2.066 -3.7728  1.0407 -1.2431
   21MOL   H20213842   0.865   1.963   1.796  1.8692  1.9114  0.3620
   21MOL   H20313843   0.716   2.030   1.608 -2.8117 -0.0043 -0.6864
   21MOL   H20413844   0.396   1.971   1.631 -2.9082 -2.5618 -2.0990
   21MOL   H20513845   0.397   1.810   1.443  1.8031  0.0236  0.9423
   21MOL   C20613846   0.593   1.920   2.333 -0.1133  0.5858  0.3820
   21MOL   C20713847   0.635   1.943   2.198 -0.0218 -0.2632 -0.4327
   21MOL   C20813848   0.761   2.002   2.177  0.1013  0.0573  0.5105
   21MOL   O20913849   0.815   2.008   2.046  0.2451  0.6434  0.5692
   21MOL   C21013850   0.841   2.047   2.291  0.1020  0.5823 -0.2065
   21MOL   C21113851   0.794   2.022   2.422  0.4173 -0.3199  0.4124
   21MOL   C21213852   0.668   1.958   2.444 -0.7113 -0.1010  0.5885
   21MOL   C21313853   0.605   1.930   2.577 -0.2703  0.4166 -0.3219
   21MOL   O21413854   0.534   1.834   2.597 -0.1667  0.5947 -0.2901
   21MOL   C21513855   0.654   2.024   2.685  0.2618  0.2952 -0.6216
   21MOL   C21613856   0.670   1.966   2.816 -0.3081  0.6325 -0.4492
   21MOL   C21713857   0.747   2.039   2.912  0.0755  0.5901  0.0440
   21MOL   C21813858   0.781   2.174   2.894  0.0129 -0.0355  0.7291
   21MOL   O21913859   0.830   2.240   3.003 -0.0020  0.1071  0.4725
   21MOL   C22013860   0.897   2.357   2.981 -0.0123  0.4776  0.0573
   21MOL   C22113861   1.004   2.370   2.890  0.6686 -0.8151  0.0836
   21MOL   C22213862   1.062   2.497   2.868 -0.2567 -0.1364 -0.5024
   21MOL   C22313863   1.028   2.609   2.949  0.4234 -0.2395  1.7355
   21MOL   C22413864   0.924   2.590   3.047  0.1731 -0.3439  0.4048
   21MOL   C22513865   0.863   2.464   3.062 -0.6702 -0.3287 -0.5716
   21MOL   C22613866   0.730   2.241   2.777 -0.1820  0.1699 -0.0985
   21MOL   C22713867   0.670   2.166   2.673  0.0969 -0.1905 -0.4707
   21MOL   H22813868   0.494   1.876   2.335 -0.1607  0.3316 -3.8392
   21MOL   H22913869   0.580   1.902   2.115  0.5710  0.3639 -1.1422
   21MOL   H23013870   0.944   2.078   2.288  0.1623  0.3279 -1.0556
   21MOL   H23113871   0.857   2.050   2.506 -0.0544 -0.7220  0.9004
   21MOL   H23213872   0.649   1.867   2.851  2.4438  0.3650  0.6093
   21MOL   H23313873   0.765   2.000   3.011 -1.9415 -2.3158 -0.6791
   21MOL   H23413874   1.012   2.288   2.819  0.7759 -0.3441 -0.4488
   21MOL   H23513875   1.135   2.504   2.788 -0.8392 -1.9555 -1.2243
   21MOL   H23613876   0.872   2.676   3.088  0.4476  1.1157 -2.2428
   21MOL   H23713877   0.772   2.468   3.121 -0.2607 -0.0275  0.0429
   21MOL   H23813878   0.739   2.346   2.754 -0.0411  0.7315  2.3425
   21MOL   H23913879   0.650   2.223   2.583  0.4427  1.1833  0.3195
   21MOL   C24013880   1.315   2.793   3.207 -0.9218  0.4752 -0.4377
   21MOL   C24113881   1.194   2.779   3.133  0.1969  0.4732  0.4724
   21MOL   C24213882   1.207   2.739   2.998  0.3100  0.2506  0.5204
   21MOL   O24313883   1.092   2.725   2.923  0.2702  0.5379 -0.0144
   21MOL   C24413884   1.331   2.706   2.938  0.3751  0.2378  0.3674
   21MOL   C24513885   1.448   2.713   3.014 -0.0396 -0.1364 -0.0508
   21MOL   C24613886   1.440   2.752   3.153  0.5677 -0.1202  0.0556
   21MOL   C24713887   1.569   2.759   3.226  0.4831 -0.3772 -0.1992
   21MOL   O24813888   1.647   2.663   3.213  0.1507 -0.4856 -0.4427
   21MOL   C24913889   1.592   2.874   3.318  0.1978  0.1398 -0.1312
   21MOL   C25013890   1.665   2.861   3.438  0.0237  0.2438  0.0914
   21MOL   C25113891   1.658   2.966   3.531  0.0118 -0.1356 -0.0150
   21MOL   C25213892   1.601   3.096   3.501 -1.1200 -0.2492 -0.3800
   21MOL   O25313893   1.594   3.191   3.601 -0.7917 -0.2446  0.7918
   21MOL   C25413894   1.708   3.267   3.622  0.1259 -0.3314  0.0395
   21MOL   C25513895   1.779   3.257   3.738 -0.0949  0.6606 -0.7628
   21MOL   C25613896   1.892   3.340   3.759 -0.1574 -0.1229 -0.0215
   21MOL   C25713897   1.923   3.444   3.669  0.6634 -0.0045 -0.4556
   21MOL   C25813898   1.842   3.454   3.547  0.4993 -0.1906  0.1530
   21MOL   C25913899   1.746   3.356   3.523 -0.1249 -0.5446  0.0942
   21MOL   C26013900   1.545   3.113   3.371  0.4529 -0.1215 -0.0701
   21MOL   C26113901   1.540   3.002   3.285 -0.8505 -0.0014 -0.5388
   21MOL   H26213902   1.305   2.832   3.307 -2.6959 -2.0010  0.3933
   21MOL   H26313903   1.100   2.792   3.185 -0.9763 -0.5856 -1.3292
   21MOL   H26413904   1.348   2.677   2.835 -1.1406 -1.6298  0.6072
   21MOL   H26513905   1.545   2.706   2.966  0.2203 -0.1834  0.4722
   21MOL   H26613906   1.703   2.766   3.471  1.2835  0.4572 -0.7287
   21MOL   H26713907   1.688   2.957   3.635  0.5289  0.0889 -0.1495
   21MOL   H26813908   1.761   3.169   3.797  1.1239  0.1219 -1.1857
   21MOL   H26913909   1.947   3.345   3.852  1.3043 -1.4052 -0.7842
   21MOL   H27013910   1.873   3.532   3.479  0.0950  0.2406  0.4678
   21MOL   H27113911   1.696   3.361   3.427  1.2686 -0.1892 -0.6232
   21MOL   H27213912   1.491   3.195   3.325 -0.0026 -2.0695 -3.1389
   21MOL   H27313913   1.490   3.028   3.193 -1.7512 -0.5849 -0.2215
   21MOL   C27413914   2.368   3.631   3.645  0.5988  0.3938 -0.8557
   21MOL   C27513915   2.229   3.637   3.663 -0.0774 -0.1847  0.5965
   21MOL   C27613916   2.150   3.522   3.661  0.3168 -0.2969 -0.0296
   21MOL   O27713917   2.021   3.537   3.698  0.3238 -0.3596  0.1853
   21MOL   C27813918   2.213   3.396   3.644  0.0343 -0.0317 -0.4559
   21MOL   C27913919   2.355   3.393   3.631  0.1427 -0.0472 -0.5455
   21MOL   C28013920   2.425   3.511   3.616  0.5668 -0.6775 -0.3244
   21MOL   C28113921   2.578   3.497   3.596  0.0048 -0.0257 -0.8911
   21MOL   O28213922   2.642   3.396   3.639 -0.1193  0.0072  0.2201
   21MOL   C28313923   2.640   3.606   3.525  0.5414 -0.2474  0.4298
   21MOL   C28413924   2.616   3.631   3.386 -1.1346 -0.6755  0.3079
   21MOL   C28513925   2.684   3.737   3.321 -0.1592  0.1625 -0.5021
   21MOL   C28613926   2.765   3.824   3.394 -0.1677 -0.1884  0.1217
   21MOL   O28713927   2.804   3.948   3.346 -0.5500 -0.0802 -0.2349
   21MOL   C28813928   2.938   3.984   3.343  0.1525 -0.3975 -0.6533
   21MOL   C28913929   3.039   3.907   3.278 -0.5062  0.6829 -0.0165
   21MOL   C29013930   3.162   3.974   3.251 -0.5035  1.1160  0.0989
   21MOL   C29113931   3.187   4.098   3.308 -0.1988 -0.4732 -0.4038
   21MOL   C29213932   3.085   4.171   3.372  0.0321  0.3109  0.5230
   21MOL   C29313933   2.962   4.113   3.388  0.7513 -0.4267  0.8344
   21MOL   C29413934   2.802   3.792   3.529  0.5571  0.3499 -0.3302
   21MOL   C29513935   2.733   3.683   3.591  0.6993 -0.0487  0.0747
   21MOL   H29613936   2.428   3.720   3.632  2.0498 -0.2743  1.0146
   21MOL   H29713937   2.179   3.730   3.684  1.7201  1.4683 -2.1253
   21MOL   H29813938   2.152   3.307   3.648 -0.6600  0.3454 -2.1912
   21MOL   H29913939   2.409   3.299   3.623 -0.8164 -0.5199 -1.4781
   21MOL   H30013940   2.552   3.571   3.323  0.3382 -3.0717  1.0354
   21MOL   H30113941   2.674   3.747   3.214 -0.2805 -0.8010 -0.5929
   21MOL   H30213942   3.016   3.808   3.241  2.8994 -0.3203  0.3715
   21MOL   H30313943   3.240   3.929   3.191  0.5437  3.8610 -0.7113
   21MOL   H30413944   3.107   4.272   3.405 -0.6647 -0.0066  1.9990
   21MOL   H30513945   2.879   4.170   3.429  1.4906  0.7365  0.7482
   21MOL   H30613946   2.855   3.863   3.592 -1.0402  0.9440  0.3835
   21MOL   H30713947   2.757   3.658   3.693  0.9232 -1.6258 -0.3505
   21MOL   C30813948   3.559   3.944   3.440 -1.3214  0.0899  0.4220
   21MOL   C30913949   3.454   3.984   3.356 -0.4050  0.1629  0.5083
   21MOL   C31013950   3.406   4.118   3.359  0.0497  0.3043 -0.6409
   21MOL   O31113951   3.307   4.155   3.274 -0.2205  0.4640 -0.3509
   21MOL   C31213952   3.456   4.211   3.451 -0.2657 -0.2965 -1.0968
   21MOL   C31313953   3.564   4.173   3.535 -0.3791  0.1350  0.3182
   21MOL   C31413954   3.615   4.038   3.532  0.7830 -0.1824 -0.4242
   21MOL   C31513955   3.732   3.999   3.623  0.2329  0.0269 -0.3505
   21MOL   O31613956   3.814   4.079   3.660 -0.4432 -0.3810 -0.7235
   21MOL   C31713957   3.749   3.854   3.669 -0.1778  0.4918  0.0552
   21MOL   C31813958   3.639   3.787   3.714 -0.2156 -0.3269 -0.1357
   21MOL   C31913959   3.646   3.653   3.760 -0.6150  0.2437  0.6917
   21MOL   C32013960   3.774   3.585   3.757  0.0524  0.0474  0.1040
   21MOL   O32113961   3.775   3.457   3.798  0.0940  0.5555  0.5279
   21MOL   C32213962   3.752   3.363   3.700 -0.1711  0.4812  0.4459
   21MOL   C32313963   3.628   3.361   3.636 -0.7058 -0.0972  0.7586
   21MOL   C32413964   3.598   3.260   3.540  0.4792 -0.4279 -0.6482
   21MOL   C32513965   3.702   3.168   3.501  0.5705 -0.5663 -0.6437
   21MOL   C32613966   3.824   3.173   3.569 -0.4760  0.4039  0.7236
   21MOL   C32713967   3.852   3.272   3.667 -0.1890 -0.7387 -0.4515
   21MOL   C32813968   3.888   3.659   3.718  0.2169  0.0709  0.0419
   21MOL   C32913969   3.875   3.794   3.672  0.3794 -0.5506  0.2139
   21MOL   H33013970   3.611   3.849   3.439 -1.6309 -0.1108  1.6488
   21MOL   H33113971   3.409   3.918   3.284 -1.1970  0.7981  0.4187
   21MOL   H33213972   3.418   4.310   3.470  1.5359  0.5363 -1.7702
   21MOL   H33313973   3.601   4.244   3.607 -2.5578  0.0214  1.5736
   21MOL   H33413974   3.542   3.832   3.728 -0.1465 -0.2245  0.0176
   21MOL   H33513975   3.559   3.601   3.795  1.1815 -1.2425  3.1157
   21MOL   H33613976   3.555   3.433   3.668 -0.3042 -0.0471  1.5754
   21MOL   H33713977   3.501   3.256   3.492  0.4716  1.7197 -0.8791
   21MOL   H33813978   3.895   3.100   3.534 -0.0234  1.8182 -1.3538
   21MOL   H33913979   3.941   3.271   3.729 -0.0117 -2.9021 -0.7010
   21MOL   H34013980   3.980   3.602   3.710 -0.2517 -1.0437  2.0049
   21MOL   H34113981   3.963   3.844   3.634 -0.1247 -1.1320 -1.8030
   21MOL   C34213982   3.660   3.251   3.077  0.1205 -0.1165  0.0087
   21MOL   C34313983   3.625   3.220   3.210  0.3624  0.1277  0.3304
   21MOL   C34413984   3.704   3.119   3.274 -0.2704  0.2572  0.2191
   21MOL   O34513985   3.689   3.080   3.403  0.0787 -0.0598  0.3945
   21MOL   C34613986   3.807   3.052   3.203 -0.3725 -0.2070 -0.2305
   21MOL   C34713987   3.837   3.087   3.073 -0.3628  0.2357  0.2057
   21MOL   C34813988   3.764   3.188   3.009  0.0325 -0.6431  1.0233
   21MOL   C34913989   3.792   3.211   2.866 -0.7280  0.0017  0.1796
   21MOL   O35013990   3.794   3.111   2.788  0.6141 -0.1171  0.3449
   21MOL   C35113991   3.817   3.354   2.823 -0.8487 -0.0072  0.3409
   21MOL   C35213992   3.835   3.466   2.910 -0.4252 -0.3596  0.4491
   21MOL   C35313993   3.862   3.592   2.859 -1.1727 -0.1489  0.4502
   21MOL   C35413994   3.861   3.616   2.719  0.2937 -0.9200 -0.7070
   21MOL   O35513995   3.893   3.737   2.670  0.0296 -0.1786 -0.4934
   21MOL   C35613996   3.880   3.855   2.748 -0.5796 -0.3530  0.5932
   21MOL   C35713997   4.002   3.937   2.765  0.4980  0.0575  0.1344
   21MOL   C35813998   3.992   4.052   2.840 -0.5986 -0.4509 -0.4488
   21MOL   C35913999   3.867   4.103   2.884 -0.0643 -0.3215 -0.3941
   21MOL   C36014000   3.752   4.029   2.860 -0.0009 -0.1442  0.6881
   21MOL   C36114001   3.759   3.905   2.796  0.1552  0.1307 -0.3245
   21MOL   C36214002   3.844   3.508   2.631  0.5657 -0.2279 -0.1222
   21MOL   C36314003   3.821   3.379   2.680 -0.0326 -0.4155 -0.5680
   21MOL   H36414004   3.599   3.328   3.033  0.3266 -0.4321 -0.8399
   21MOL   H36514005   3.554   3.278   3.267 -0.4436 -2.3873  1.9560
   21MOL   H36614006   3.882   2.987   3.246  0.5223  0.7021 -0.4089
   21MOL   H36714007   3.920   3.036   3.026 -0.8933  0.2829 -0.8119
   21MOL   H36814008   3.840   3.454   3.017 -1.5318 -2.0880  0.3386
   21MOL   H36914009   3.888   3.669   2.931  4.3114  0.3486 -1.8760
   21MOL   H37014010   4.098   3.910   2.724  0.8711  1.2426  0.2102
   21MOL   H37114011   4.078   4.116   2.856  0.9022 -2.1289 -1.6171
   21MOL   H37214012   3.658   4.071   2.890 -0.1743  2.1030 -2.6448
   21MOL   H37314013   3.673   3.841   2.779 -0.1570 -0.3202  2.6934
   21MOL   H37414014   3.842   3.524   2.524 -0.2738  3.0905  0.3303
   21MOL   H37514015   3.827   3.296   2.611  0.0405 -2.4057  1.7605
   21MOL   C37614016   4.041   4.357   3.233  0.3904 -0.2102 -0.0697
   21MOL   C37714017   4.000   4.339   3.098  0.1738 -0.3810  1.0115
   21MOL   C37814018   3.894   4.254   3.074 -0.2508 -0.4096  0.9622
   21MOL   O37914019   3.855   4.232   2.942  0.0882  0.3470  1.1188
   21MOL   C38014020   3.830   4.181   3.182  0.2335  0.1375 -0.0805
   21MOL   C38114021   3.872   4.196   3.313 -0.7077 -0.3491 -0.6217
   21MOL   C38214022   3.974   4.297   3.340  0.1757 -0.5532  0.1313
   21MOL   C38314023   4.007   4.334   3.476  0.2348 -0.5214  0.6762
   21MOL   O38414024   4.114   4.300   3.522  0.0436  0.5082 -0.1765
   21MOL   C38514025   3.900   4.409   3.546  0.6131 -0.0234 -0.4371
   21MOL   C38614026   3.907   4.420   3.691  0.4412  0.4876  0.1897
   21MOL   C38714027   3.812   4.492   3.766 -0.7777 -0.2672  0.8462
   21MOL   C38814028   3.695   4.535   3.702 -0.5711 -0.1248  0.1297
   21MOL   O38914029   3.601   4.600   3.779 -0.2863  0.2469  0.2377
   21MOL   C39014030   3.470   4.588   3.730 -0.4182 -0.7577 -0.4280
   21MOL   C39114031   3.404   4.466   3.731  0.4517 -0.6236  0.1570
   21MOL   C39214032   3.277   4.456   3.667  0.2053 -0.5871 -0.3983
   21MOL   C39314033   3.216   4.564   3.605  0.3336 -0.0462 -0.3075
   21MOL   C39414034   3.279   4.691   3.615  0.7614  1.0412 -0.6098
   21MOL   C39514035   3.400   4.705   3.685 -0.5367 -0.6288 -0.1295
   21MOL   C39614036   3.682   4.526   3.559 -0.0662  0.0938 -0.1586
   21MOL   C39714037   3.785   4.468   3.483 -0.2568 -0.1297 -0.0339
   21MOL   H39814038   4.122   4.424   3.258  0.2159 -0.2057  0.4825
   21MOL   H39914039   4.042   4.390   3.013 -1.5724  1.9108  1.4850
   21MOL   H40014040   3.748   4.114   3.162 -0.5657  0.9085  0.5417
   21MOL   H40114041   3.812   4.146   3.388  1.7972 -3.4435 -0.5824
   21MOL   H40214042   3.989   4.371   3.742 -0.1057  2.0309  2.6474
   21MOL   H40314043   3.828   4.487   3.872  3.7347 -0.4217  0.2551
   21MOL   H40414044   3.442   4.377   3.781  3.0228 -1.2866 -2.8352
   21MOL   H40514045   3.222   4.364   3.676  0.2150 -0.6341 -0.8559
   21MOL   H40614046   3.225   4.771   3.568 -0.0096  0.1393 -1.2676
   21MOL   H40714047   3.459   4.796   3.681  0.2278 -1.1881 -2.3087
   21MOL   H40814048   3.602   4.569   3.500  1.5646  1.1989 -1.6138
   21MOL   H40914049   3.788   4.466   3.375 -1.0886  0.0848 -0.0591
   21MOL   C41014050   3.081   4.759   3.219 -0.3992 -0.3023 -0.3302
   21MOL   C41114051   3.056   4.716   3.347  0.3616 -0.2980  0.3000
   21MOL   C41214052   3.121   4.601   3.400 -0.7981  0.4103  0.2612
   21MOL   O41314053   3.103   4.554   3.526  0.3291 -0.0228 -0.2774
   21MOL   C41414054   3.202   4.535   3.311  0.1794  0.4951 -0.5122
   21MOL   C41514055   3.236   4.582   3.182 -0.6038  0.1334  0.1784
   21MOL   C41614056   3.182   4.703   3.141 -0.3857 -0.2018 -0.5985
   21MOL   C41714057   3.214   4.770   3.018 -0.1110  0.1703 -0.3270
   21MOL   O41814058   3.255   4.889   3.020 -0.0777  0.0950  0.1429
   21MOL   C41914059   3.189   4.699   2.885  0.3790 -0.1226 -0.1215
   21MOL   C42014060   3.280   4.719   2.778 -0.1490 -0.6496 -0.1103
   21MOL   C42114061   3.239   4.684   2.650  0.1173 -0.2425  0.5980
   21MOL   C42214062   3.116   4.611   2.631  0.3098 -0.3669  0.6690
   21MOL   O42314063   3.082   4.570   2.508  0.3199  0.1430 -0.3575
   21MOL   C42414064   3.092   4.432   2.476  0.0576  0.2940 -0.5471
   21MOL   C42514065   2.984   4.353   2.442 -0.6335 -0.1907  0.9818
   21MOL   C42614066   3.004   4.221   2.410  0.1933  0.0810 -0.5513
   21MOL   C42714067   3.136   4.161   2.403 -0.0409 -0.0790  0.2819
   21MOL   C42814068   3.249   4.249   2.419  0.2282 -0.3838 -0.2923
   21MOL   C42914069   3.227   4.382   2.458 -0.0810 -0.2819  0.2031
   21MOL   C43014070   3.037   4.578   2.739 -0.4819  0.1382  0.0979
   21MOL   C43114071   3.064   4.625   2.869  0.0324 -0.1871 -0.2567
   21MOL   H43214072   3.023   4.846   3.189 -0.2236 -0.1503 -0.2302
   21MOL   H43314073   2.989   4.771   3.412  2.3553 -0.1359  2.2831
   21MOL   H43414074   3.246   4.438   3.329  0.0206  0.2631 -1.3341
   21MOL   H43514075   3.307   4.527   3.122 -0.5965  0.8229 -0.4571
   21MOL   H43614076   3.373   4.773   2.787 -0.3539 -0.4571  0.9614
   21MOL   H43714077   3.303   4.716   2.569 -0.6509 -1.2591 -0.4308
   21MOL   H43814078   2.885   4.396   2.435 -1.0323 -1.0523  1.1356
   21MOL   H43914079   2.919   4.161   2.384  1.2672 -1.4085 -0.7266
   21MOL   H44014080   3.346   4.204   2.398  1.5992 -0.5599  5.5991
   21MOL   H44114081   3.306   4.455   2.466 -1.9869  1.9628 -0.7703
   21MOL   H44214082   2.952   4.513   2.722 -0.3181  0.2561 -1.2387
   21MOL   H44314083   2.995   4.605   2.949  0.1672  1.6513  0.3475
   21MOL   C44414084   2.950   3.715   2.340  0.1226 -0.1582 -0.2405
   21MOL   C44514085   3.041   3.819   2.316 -0.3184  0.8327  0.1555
   21MOL   C44614086   3.064   3.928   2.403  0.2724 -0.4938 -0.6381
   21MOL   O44714087   3.157   4.030   2.365  0.0763  0.0340  0.4487
   21MOL   C44814088   2.991   3.928   2.521 -0.3322 -0.4675  0.2822
   21MOL   C44914089   2.898   3.830   2.543  0.5439 -0.0748  0.4564
   21MOL   C45014090   2.882   3.717   2.463  0.5810  0.1655 -0.1786
   21MOL   C45114091   2.792   3.609   2.522 -0.2753  1.4523  0.3840
   21MOL   O45214092   2.819   3.557   2.634 -0.7468 -0.4373 -0.5717
   21MOL   C45314093   2.668   3.572   2.453  0.3403  0.1327  0.0815
   21MOL   C45414094   2.606   3.660   2.362  0.7792  0.9500  0.2618
   21MOL   C45514095   2.487   3.623   2.301 -0.2260  0.3435  0.2238
   21MOL   C45614096   2.435   3.494   2.314  0.7958 -0.2398 -0.3445
   21MOL   O45714097   2.322   3.454   2.253  0.2681 -0.2462  0.3099
   21MOL   C45814098   2.321   3.404   2.127 -0.2176  0.5265 -0.3664
   21MOL   C45914099   2.269   3.279   2.089  0.8614  0.2940 -0.3517
   21MOL   C46014100   2.263   3.239   1.951 -0.0243  0.6748 -0.7031
   21MOL   C46114101   2.314   3.325   1.851  0.0865  0.0023  0.3205
   21MOL   C46214102   2.377   3.448   1.883  0.6038 -0.4467  0.5166
   21MOL   C46314103   2.375   3.482   2.020 -0.0842 -0.1602  0.0760
   21MOL   C46414104   2.503   3.401   2.397 -1.0096  0.2639  0.0392
   21MOL   C46514105   2.615   3.442   2.470 -0.1716  0.0581  0.0929
   21MOL   H46614106   2.942   3.632   2.271 -1.3705  0.6323 -1.0406
   21MOL   H46714107   3.098   3.814   2.225  1.4657  1.9093  1.1934
   21MOL   H46814108   2.994   4.012   2.589 -0.8829  0.9347 -1.4148
   21MOL   H46914109   2.852   3.838   2.640 -1.8857 -0.2567 -0.6573
   21MOL   H47014110   2.640   3.760   2.340 -1.1167  2.0406  2.0698
   21MOL   H47114111   2.443   3.698   2.237 -1.1330  1.6674  2.3625
   21MOL   H47214112   2.218   3.205   2.150 -3.4590  3.2246 -0.1622
   21MOL   H47314113   2.218   3.144   1.927 -1.4612  0.4897  2.4029
   21MOL   H47414114   2.415   3.521   1.813  0.0736  0.7255  1.4300
   21MOL   H47514115   2.422   3.578   2.040 -0.0886  0.1023 -1.1692
   21MOL   H47614116   2.462   3.306   2.430  2.7119 -1.7236 -0.7286
   21MOL   H47714117   2.660   3.369   2.536 -1.7473 -1.0203  0.0020
   21MOL   C47814118   2.607   3.200   1.509  0.7274  0.1725 -0.7295
   21MOL   C47914119   2.489   3.265   1.556 -0.1591  0.4830  0.2309
   21MOL   C48014120   2.429   3.223   1.677 -0.2934 -0.1190  0.3083
   21MOL   O48114121   2.317   3.288   1.718 -0.4144  0.0574 -0.3727
   21MOL   C48214122   2.479   3.104   1.736 -0.5996 -0.2268 -0.1684
   21MOL   C48314123   2.589   3.034   1.694  0.1045 -0.6952 -0.1362
   21MOL   C48414124   2.659   3.088   1.579  0.1729  0.0964  0.6240
   21MOL   C48514125   2.777   3.019   1.517 -0.7566  0.0951 -1.3312
   21MOL   O48614126   2.766   2.970   1.403 -0.3944 -1.2682 -0.1961
   21MOL   C48714127   2.894   2.994   1.604 -0.4997 -0.2880 -0.5785
   21MOL   C48814128   2.988   2.896   1.561 -0.1637 -0.4402  0.6442
   21MOL   C48914129   3.091   2.851   1.646 -1.0948 -0.1300  0.4705
   21MOL   C49014130   3.111   2.911   1.769  0.7669 -1.1553 -0.2144
   21MOL   O49114131   3.218   2.877   1.847  0.4951 -0.4479 -0.0568
   21MOL   C49214132   3.195   2.844   1.983 -0.3540  0.4212  0.5783
   21MOL   C49314133   3.282   2.887   2.085 -0.6745  0.3440  0.7389
   21MOL   C49414134   3.251   2.861   2.219  0.4143  0.4362  0.1035
   21MOL   C49514135   3.139   2.780   2.256 -1.2725 -0.3002  0.1059
   21MOL   C49614136   3.049   2.739   2.153  0.3507  0.1359 -0.0471
   21MOL   C49714137   3.082   2.771   2.019 -0.4414  1.2500  0.4297
   21MOL   C49814138   3.022   3.013   1.812  0.1136 -0.3822  0.9307
   21MOL   C49914139   2.913   3.056   1.730 -1.0101 -0.5188 -0.3105
   21MOL   H50014140   2.650   3.234   1.416 -1.5014  1.9487 -1.1528
   21MOL   H50114141   2.453   3.333   1.481  0.0868 -0.2177 -0.5242
   21MOL   H50214142   2.426   3.060   1.819 -0.9839  0.7189  0.0960
   21MOL   H50314143   2.629   2.956   1.757  1.1182 -1.2900 -1.5031
   21MOL   H50414144   2.982   2.848   1.464  1.4993 -1.2746  0.9464
   21MOL   H50514145   3.171   2.792   1.606  0.9746  0.7837  3.0693
   21MOL   H50614146   3.372   2.933   2.046 -0.9176 -1.0349 -1.5485
   21MOL   H50714147   3.327   2.877   2.294  0.3944 -0.0176  0.2190
   21MOL   H50814148   2.961   2.680   2.176  0.9896 -0.0322  2.1112
   21MOL   H50914149   3.028   2.721   1.940  1.3110 -0.4673  0.3086
   21MOL   H51014150   3.039   3.064   1.905 -1.2770 -1.4137  1.7637
   21MOL   H51114151   2.857   3.137   1.773  0.3082 -0.2390  0.9132
   21MOL   C51214152   2.958   3.044   2.559 -0.5038  0.0848  1.3274
   21MOL   C51314153   3.058   2.965   2.499  0.1427  0.7887 -1.2240
   21MOL   C51414154   3.034   2.834   2.455  0.2400 -0.9074  0.3287
   21MOL   O51514155   3.118   2.756   2.389 -0.4237  0.2881  0.0857
   21MOL   C51614156   2.912   2.773   2.490  0.4116 -0.5258  0.1771
   21MOL   C51714157   2.809   2.852   2.542 -0.0463 -0.0530 -0.2111
   21MOL   C51814158   2.831   2.986   2.581 -0.0342 -0.7774 -0.8030
   21MOL   C51914159   2.723   3.070   2.633  0.3321 -0.1539 -0.2042
   21MOL   O52014160   2.619   3.077   2.566  0.5893 -0.3127  0.3684
   21MOL   C52114161   2.746   3.147   2.759 -0.1432  0.2345 -0.1415
   21MOL   C52214162   2.853   3.125   2.852  0.2190  0.2236  0.0118
   21MOL   C52314163   2.856   3.194   2.972  0.0709  0.3728 -0.1802
   21MOL   C52414164   2.754   3.279   3.012 -0.1598  0.1811 -0.1678
   21MOL   O52514165   2.756   3.341   3.136 -0.2488  0.2890 -0.0379
   21MOL   C52614166   2.704   3.271   3.243  0.2008 -0.6406  0.5309
   21MOL   C52714167   2.780   3.222   3.353 -0.0567  0.6802  0.2648
   21MOL   C52814168   2.726   3.153   3.464  0.0037 -0.1530 -0.2517
   21MOL   C52914169   2.592   3.128   3.472 -0.0488  0.3017 -0.5076
   21MOL   C53014170   2.512   3.181   3.368 -0.0202  0.2326 -0.7822
   21MOL   C53114171   2.565   3.256   3.257  1.2025 -0.3175 -1.3828
   21MOL   C53214172   2.654   3.309   2.921 -0.3297 -0.0441 -0.2470
   21MOL   C53314173   2.653   3.247   2.794 -0.3430  0.0347 -0.4868
   21MOL   H53414174   2.966   3.150   2.577 -0.2858  0.2277  0.4067
   21MOL   H53514175   3.142   3.023   2.465  2.8896 -1.3341  1.7050
   21MOL   H53614176   2.888   2.669   2.470  0.8976 -0.1406 -2.6165
   21MOL   H53714177   2.708   2.820   2.560  0.2649 -0.6916  0.3730
   21MOL   H53814178   2.930   3.053   2.827  0.9771  1.1504 -0.3463
   21MOL   H53914179   2.938   3.171   3.038 -0.1043  0.3964  0.0471
   21MOL   H54014180   2.888   3.221   3.351 -0.0293  2.5109  0.7096
   21MOL   H54114181   2.783   3.126   3.552  2.0217 -0.6922 -1.6735
   21MOL   H54214182   2.404   3.177   3.362 -0.1354  1.3357  0.2792
   21MOL   H54314183   2.501   3.288   3.175  2.1494 -1.3681 -2.5611
   21MOL   H54414184   2.587   3.392   2.935 -0.4610 -0.0215 -0.9845
   21MOL   H54514185   2.580   3.269   2.717 -0.6066  0.2694 -0.1737
   21MOL   C54614186   2.623   2.861   3.866 -0.0046 -0.1370 -0.2762
   21MOL   C54714187   2.583   2.981   3.795 -0.4916 -0.3048 -0.2058
   21MOL   C54814188   2.578   2.973   3.651 -0.3490 -0.6959  0.0360
   21MOL   O54914189   2.521   3.078   3.582 -0.0824 -0.3383 -0.5001
   21MOL   C55014190   2.621   2.853   3.586 -0.1437 -0.3742  0.8177
   21MOL   C55114191   2.663   2.740   3.660 -0.6900  0.3641 -0.1501
   21MOL   C55214192   2.655   2.743   3.802 -0.4261  0.0245 -0.3635
   21MOL   C55314193   2.704   2.616   3.871  0.4554  0.2503 -1.1777
   21MOL   O55414194   2.800   2.555   3.823  0.2230 -0.3359  0.0491
   21MOL   C55514195   2.640   2.584   3.999  0.5605  0.2875  0.2240
   21MOL   C55614196   2.726   2.538   4.100  0.2671  1.1429 -0.3903
   21MOL   C55714197   2.678   2.518   4.232 -0.2416 -0.3614 -0.1403
   21MOL   C55814198   2.549   2.551   4.273  0.6330 -0.3556  0.0593
   21MOL   O55914199   2.497   2.541   4.401  0.0123 -0.0916 -0.2051
   21MOL   C56014200   2.537   2.429   4.475  0.1453 -0.4174  0.1028
   21MOL   C56114201   2.476   2.305   4.458  0.4971 -0.2170  0.2439
   21MOL   C56214202   2.518   2.200   4.537 -0.3878  0.4628  0.3560
   21MOL   C56314203   2.618   2.214   4.632  0.2230  0.3419 -0.0745
   21MOL   C56414204   2.683   2.341   4.651 -0.1046 -1.1091 -0.4973
   21MOL   C56514205   2.641   2.447   4.573  0.6465 -0.4479  0.7922
   21MOL   C56614206   2.466   2.595   4.168  0.1559 -0.9850  0.5747
   21MOL   C56714207   2.502   2.605   4.029 -0.1667 -0.7007 -0.3347
   21MOL   H56814208   2.625   2.867   3.974 -0.2236  0.2851 -0.2936
   21MOL   H56914209   2.558   3.070   3.851  1.7803  0.4119 -0.3011
   21MOL   H57014210   2.627   2.845   3.479 -1.1246 -1.8838  0.8543
   21MOL   H57114211   2.691   2.653   3.602 -1.0283 -0.1382  0.4326
   21MOL   H57214212   2.828   2.510   4.077  0.0326  0.7921 -1.0250
   21MOL   H57314213   2.747   2.497   4.312 -1.7349  2.0123  1.8261
   21MOL   H57414214   2.396   2.294   4.386 -0.1563 -0.6881  1.0417
   21MOL   H57514215   2.455   2.112   4.532  0.3494  0.0196 -1.1553
   21MOL   H57614216   2.766   2.350   4.718 -1.2850  2.6156  0.5891
   21MOL   H57714217   2.701   2.537   4.573 -1.1448  0.7847 -0.5798
   21MOL   H57814218   2.367   2.627   4.198  0.3627 -0.9985  1.2715
   21MOL   H57914219   2.429   2.642   3.958 -1.8828 -2.0489  0.6748
   21MOL   C58014220   2.721   1.822   4.503 -0.2523  0.3042 -0.6800
   21MOL   C58114221   2.709   1.955   4.547  0.6563 -0.3949  0.1847
   21MOL   C58214222   2.660   1.985   4.674 -0.4096 -0.1982  0.2105
   21MOL   O58314223   2.654   2.110   4.717  0.1372 -0.4882 -0.2541
   21MOL   C58414224   2.624   1.881   4.762  0.0271 -0.2653 -0.0542
   21MOL   C58514225   2.629   1.742   4.720 -0.4954  0.1564 -0.2865
   21MOL   C58614226   2.684   1.718   4.588 -0.3296 -0.0398 -0.1852
   21MOL   C58714227   2.687   1.580   4.535  0.5062  0.3508 -0.0295
   21MOL   O58814228   2.636   1.558   4.422  0.5843 -0.0185 -0.5966
   21MOL   C58914229   2.763   1.477   4.615  0.6022 -0.1628  0.0769
   21MOL   C59014230   2.855   1.512   4.714 -0.6166 -0.5145 -0.4730
   21MOL   C59114231   2.922   1.411   4.789 -0.6223 -0.6114 -0.1891
   21MOL   C59214232   2.906   1.279   4.768 -0.4331  0.3606  0.6130
   21MOL   O59314233   2.974   1.198   4.850 -0.1701 -0.3247  0.5682
   21MOL   C59414234   2.915   1.079   4.897  0.0412 -0.5609  0.5912
   21MOL   C59514235   2.788   1.083   4.955  0.1111 -0.8636 -0.1567
   21MOL   C59614236   2.725   0.967   4.998 -0.0328  0.2957  0.0964
   21MOL   C59714237   2.785   0.842   4.990  0.4359 -1.0863 -0.1310
   21MOL   C59814238   2.918   0.831   4.927 -0.9998  0.1427 -0.1471
   21MOL   C59914239   2.980   0.954   4.881 -0.2273  0.0317  0.0724
   21MOL   C60014240   2.816   1.244   4.669 -0.0292 -0.7054  0.1496
   21MOL   C60114241   2.735   1.337   4.596  0.5203 -0.2410 -0.4519
   21MOL   H60214242   2.764   1.807   4.405 -2.2421 -0.4294 -1.4569
   21MOL   H60314243   2.735   2.030   4.475 -0.3823  0.8455  1.0790
   21MOL   H60414244   2.575   1.891   4.857 -0.8958  0.2369 -0.5743
   21MOL   H60514245   2.591   1.662   4.782  2.3684 -0.5542  0.6404
   21MOL   H60614246   2.869   1.616   4.736  0.8981 -0.3864 -1.9878
   21MOL   H60714247   2.987   1.439   4.872  1.8656 -1.2643 -1.8609
   21MOL   H60814248   2.732   1.175   4.959 -1.4693 -1.8397  0.6533
   21MOL   H60914249   2.622   0.974   5.032 -0.0967  1.9344 -0.4091
   21MOL   H61014250   2.958   0.731   4.916 -1.2090  0.1479 -1.0058
   21MOL   H61114251   3.081   0.948   4.843 -0.5217  0.1307 -0.7248
   21MOL   H61214252   2.811   1.143   4.632  0.9125 -1.2628  1.4985
   21MOL   H61314253   2.666   1.296   4.523  0.5317 -2.5323  0.7828
   21MOL   C61414254   2.387   0.603   4.987 -0.8372 -0.1069 -0.0312
   21MOL   C61514255   2.493   0.664   5.047 -1.0382  0.1783 -0.4082
   21MOL   C61614256   2.616   0.685   4.980  0.6722  0.7221  1.0393
   21MOL   O61714257   2.717   0.742   5.045 -0.4645  0.1604  0.1609
   21MOL   C61814258   2.627   0.619   4.851  0.2007 -0.0090  0.2154
   21MOL   C61914259   2.522   0.548   4.792  0.5063  0.0271 -0.5611
   21MOL   C62014260   2.399   0.538   4.860  0.7963 -0.8388 -0.5154
   21MOL   C62114261   2.290   0.458   4.806  0.0879 -0.1633 -0.4154
   21MOL   O62214262   2.303   0.351   4.747  0.0996  0.2883  0.4025
   21MOL   C62314263   2.151   0.510   4.832  0.0645 -0.8391 -1.0757
   21MOL   C62414264   2.041   0.419   4.825 -0.3531 -0.4208  0.5194
   21MOL   C62514265   1.914   0.461   4.849  0.5032 -0.3124 -0.4289
   21MOL   C62614266   1.883   0.596   4.860  0.4455  0.2928  0.0491
   21MOL   O62714267   1.754   0.639   4.867 -0.5464 -0.1097  0.0617
   21MOL   C62814268   1.677   0.616   4.751 -0.8289  0.2204 -0.1380
   21MOL   C62914269   1.543   0.573   4.756 -0.9472 -0.3292 -0.0994
   21MOL   C63014270   1.467   0.559   4.643  0.0892 -0.4382 -0.0847
   21MOL   C63114271   1.514   0.610   4.515 -0.1379 -0.3349 -0.5188
   21MOL   C63214272   1.649   0.652   4.506 -0.3047 -0.3117 -0.6880
   21MOL   C63314273   1.733   0.643   4.626 -0.2866  0.5729  0.1832
   21MOL   C63414274   1.991   0.692   4.850  0.4452  0.5183  0.3832
   21MOL   C63514275   2.127   0.645   4.852  0.4328 -0.3267  0.1150
   21MOL   H63614276   2.294   0.612   5.042  1.0434  1.6867  2.9834
   21MOL   H63714277   2.487   0.715   5.143  2.0422 -0.6870  0.2944
   21MOL   H63814278   2.724   0.627   4.805  1.1118  1.4389  2.2877
   21MOL   H63914279   2.544   0.488   4.705 -0.4510 -1.1050 -0.0350
   21MOL   H64014280   2.061   0.313   4.815 -0.2059 -0.1678 -2.0041
   21MOL   H64114281   1.836   0.386   4.857  1.1194 -0.9390 -0.2897
   21MOL   H64214282   1.495   0.542   4.848 -1.0368  1.6090  0.5447
   21MOL   H64314283   1.363   0.530   4.647  0.2514 -0.8957  1.0191
   21MOL   H64414284   1.695   0.682   4.413  1.5664 -0.4421  0.1872
   21MOL   H64514285   1.834   0.681   4.624  0.4616 -1.3956 -1.7822
   21MOL   H64614286   1.977   0.796   4.872  0.9579  0.5851  0.4121
   21MOL   H64714287   2.205   0.720   4.852  1.2202 -1.0929  2.9997
   21MOL   C64814288   1.294   0.957   4.368  0.8889  0.0099  0.2786
   21MOL   C64914289   1.382   0.851   4.357 -0.2108  0.8117 -0.1117
   21MOL   C65014290   1.338   0.722   4.404 -0.4803  0.3784 -0.4548
   21MOL   O65114291   1.431   0.617   4.407  0.0612 -0.4380 -0.0146
   21MOL   C65214292   1.209   0.706   4.463  0.8607  0.3737  0.3704
   21MOL   C65314293   1.127   0.821   4.476 -0.4497 -0.3919 -0.6198
   21MOL   C65414294   1.169   0.951   4.432 -0.2188  0.1817 -0.6929
   21MOL   C65514295   1.081   1.073   4.440  0.0424 -0.3106 -0.2497
   21MOL   O65614296   1.051   1.130   4.332 -0.1634  0.1350 -0.1357
   21MOL   C65714297   1.023   1.110   4.570  0.4229 -0.1923 -0.4596
   21MOL   C65814298   1.084   1.073   4.689 -0.3315  0.1524  0.3560
   21MOL   C65914299   1.028   1.107   4.814  0.6514  0.1602 -1.7753
   21MOL   C66014300   0.905   1.173   4.814 -0.1617  0.2732  0.3610
   21MOL   O66114301   0.836   1.195   4.930 -0.5278 -0.0973  0.0674
   21MOL   C66214302   0.859   1.320   4.982  0.0810 -0.1192 -0.1515
   21MOL   C66314303   0.771   1.434   4.965  0.0773  0.3666  0.3171
   21MOL   C66414304   0.804   1.564   5.020 -0.0775 -0.0783 -0.0791
   21MOL   C66514305   0.922   1.584   5.094 -0.5189 -0.3933  0.2608
   21MOL   C66614306   1.006   1.471   5.108  0.3262  0.2663 -0.4006
   21MOL   C66714307   0.981   1.346   5.053  0.1038  0.0082  0.3585
   21MOL   C66814308   0.849   1.227   4.696  0.5191  0.8883  0.5529
   21MOL   C66914309   0.900   1.190   4.570 -0.4183 -0.3732  0.5176
   21MOL   H67014310   1.335   1.056   4.355 -1.0918  0.7300 -0.6862
   21MOL   H67114311   1.480   0.878   4.321 -0.3303 -0.0960 -1.1349
   21MOL   H67214312   1.171   0.609   4.491  0.3224  0.0286 -1.4930
   21MOL   H67314313   1.029   0.805   4.519  0.5102  2.1695  2.7608
   21MOL   H67414314   1.170   1.009   4.676  0.7925  1.7949 -0.4702
   21MOL   H67514315   1.074   1.064   4.902 -1.1290 -0.4280 -1.1117
   21MOL   H67614316   0.692   1.418   4.893  0.1861 -1.6247  0.6061
   21MOL   H67714317   0.736   1.645   5.001  0.3962  0.4286  0.3808
   21MOL   H67814318   1.097   1.483   5.165  0.5675 -0.4705 -0.6298
   21MOL   H67914319   1.046   1.261   5.064  0.6653  0.4701  0.6353
   21MOL   H68014320   0.760   1.288   4.700 -0.7601 -0.8759  0.1535
   21MOL   H68114321   0.864   1.238   4.480  1.2621 -0.1235 -0.0515
   21MOL   H68214322   0.954   1.680   5.134  0.4936 -1.7267  2.7517
   22MOL     C114323   1.010   2.813   1.673  0.5113  0.1860 -0.3131
   22MOL     C214324   1.029   2.691   1.605 -0.2797 -0.1906 -0.1999
   22MOL     C314325   1.155   2.651   1.563  0.2742  0.6671 -0.3950
   22MOL     O414326   1.171   2.544   1.478  0.2561 -0.8489 -0.5227
   22MOL     C514327   1.270   2.726   1.603  0.3262 -0.1155  0.3280
   22MOL     C614328   1.250   2.851   1.667 -0.5581 -0.9864 -0.9482
   22MOL     C714329   1.116   2.893   1.713 -0.2967 -0.5237  0.9775
   22MOL     C814330   1.101   3.027   1.780 -0.4203 -0.2195  0.7312
   22MOL     O914331   0.991   3.082   1.770  0.1694  0.3336  0.0463
   22MOL    C1014332   1.201   3.075   1.868 -0.4379 -0.5896 -0.2720
   22MOL    C1114333   1.286   2.983   1.937 -0.0477 -0.2407  0.0888
   22MOL    C1214334   1.388   3.029   2.021 -0.4436 -0.2773 -0.6073
   22MOL    C1314335   1.401   3.164   2.043 -1.1106  0.5311 -1.1571
   22MOL    O1414336   1.500   3.213   2.124  0.0134 -0.0732 -0.0625
   22MOL    C1514337   1.604   3.134   2.166 -0.0676 -0.2222 -0.7309
   22MOL    C1614338   1.705   3.101   2.078 -0.4707  0.2518 -0.4176
   22MOL    C1714339   1.808   3.014   2.122  0.8168 -0.2892 -0.1508
   22MOL    C1814340   1.808   2.965   2.256  0.2445  0.5172 -0.3284
   22MOL    C1914341   1.699   2.994   2.339  0.2634  0.5581  0.4013
   22MOL    C2014342   1.602   3.086   2.301 -0.7200 -0.0199  0.0504
   22MOL    C2114343   1.308   3.252   1.984 -0.2572 -0.2080  0.2032
   22MOL    C2214344   1.221   3.211   1.880  0.5389 -0.4427  0.1985
   22MOL    H2314345   0.906   2.833   1.694  0.5911  1.1487 -0.8481
   22MOL    H2414346   0.942   2.634   1.575 -0.3548  1.1650 -2.7176
   22MOL    H2514347   1.365   2.688   1.570  1.0648  2.5040 -0.7139
   22MOL    H2614348   1.335   2.912   1.691  0.1580 -2.0537 -0.7342
   22MOL    H2714349   1.270   2.877   1.925  1.3236 -0.2841 -1.4879
   22MOL    H2814350   1.457   2.964   2.073 -0.7408 -1.4813 -1.6973
   22MOL    H2914351   1.687   3.133   1.976 -1.9422 -1.8351 -0.8500
   22MOL    H3014352   1.878   2.983   2.046  0.2985  0.9095 -1.1329
   22MOL    H3114353   1.708   2.955   2.439  1.4656 -0.1135  0.0274
   22MOL    H3214354   1.516   3.110   2.362 -1.0326  0.4721 -0.5795
   22MOL    H3314355   1.314   3.356   2.014 -1.1584 -0.2913  0.6825
   22MOL    H3414356   1.160   3.281   1.825  0.9102 -0.0820  0.2442
   22MOL    H3514357   1.099   2.485   1.494  1.0663 -1.1928  2.0405
   22MOL    C3614358   2.203   3.060   2.411 -0.1823  0.5085 -0.1522
   22MOL    C3714359   2.102   3.005   2.329 -0.2875  0.9464 -0.3911
   22MOL    C3814360   1.997   2.928   2.379  0.2129 -0.3737  0.0506
   22MOL    O3914361   1.906   2.873   2.294 -0.2733  0.0022 -0.4020
   22MOL    C4014362   1.987   2.909   2.517  0.5156  0.1543  0.2012
   22MOL    C4114363   2.088   2.960   2.601  0.6260 -0.1973  0.2726
   22MOL    C4214364   2.196   3.037   2.550 -0.2410  0.6530 -0.3184
   22MOL    C4314365   2.295   3.098   2.646 -0.2152 -0.7422  0.4260
   22MOL    O4414366   2.321   3.219   2.649 -0.5790 -0.2673 -0.4015
   22MOL    C4514367   2.349   3.001   2.744 -0.5244 -0.3516  0.8840
   22MOL    C4614368   2.348   3.023   2.884 -0.0288  0.2935 -0.5552
   22MOL    C4714369   2.427   2.944   2.967 -0.0424  0.4870  0.4803
   22MOL    C4814370   2.504   2.841   2.915  0.0730  0.0119  0.3307
   22MOL    O4914371   2.565   2.753   3.004 -0.1495 -0.6511  0.2129
   22MOL    C5014372   2.691   2.791   3.021 -0.5641 -0.4281 -0.2124
   22MOL    C5114373   2.734   2.860   3.134  0.3552  0.1692  0.5119
   22MOL    C5214374   2.871   2.900   3.157 -0.9010  0.6108 -0.1818
   22MOL    C5314375   2.966   2.870   3.059 -0.0459 -0.0884  0.4800
   22MOL    C5414376   2.922   2.789   2.942 -0.3334 -0.0671  0.5313
   22MOL    C5514377   2.787   2.753   2.926  0.4876 -0.1827 -0.1359
   22MOL    C5614378   2.501   2.818   2.778  0.1667  0.7744  0.9137
   22MOL    C5714379   2.419   2.890   2.692 -1.0084 -1.0174 -0.5688
   22MOL    H5814380   2.274   3.128   2.367 -1.4654  0.2089 -2.7552
   22MOL    H5914381   2.109   3.018   2.222  0.9234 -1.6311 -0.6654
   22MOL    H6014382   1.905   2.853   2.559 -0.1582 -0.0883 -1.4068
   22MOL    H6114383   2.081   2.947   2.708 -1.9101  0.2544  0.1926
   22MOL    H6214384   2.289   3.104   2.925 -1.1091 -0.6164 -0.2829
   22MOL    H6314385   2.432   2.970   3.072  2.8554 -1.4470  0.8881
   22MOL    H6414386   2.659   2.898   3.202 -0.4687  1.8037 -1.2789
   22MOL    H6514387   2.894   2.956   3.247 -1.5835 -1.3026  1.2460
   22MOL    H6614388   2.992   2.763   2.865  0.7945 -1.0365  1.8533
   22MOL    H6714389   2.764   2.684   2.847 -0.3129  0.6382 -0.6218
   22MOL    H6814390   2.556   2.734   2.738 -0.0488  1.4713 -0.8876
   22MOL    H6914391   2.410   2.859   2.589  0.7620  1.0921 -1.4105
   22MOL    C7014392   3.361   3.002   2.842  0.2639  0.2998 -0.1170
   22MOL    C7114393   3.250   3.013   2.922  0.6254 -0.0617 -0.2470
   22MOL    C7214394   3.198   2.905   2.990 -0.4825  0.7552  0.7966
   22MOL    O7314395   3.092   2.915   3.078  0.1983  0.8515  0.0788
   22MOL    C7414396   3.250   2.776   2.966 -0.4979 -0.0040 -0.8830
   22MOL    C7514397   3.359   2.764   2.880  0.2652 -0.3872  0.2235
   22MOL    C7614398   3.415   2.881   2.814  0.8590  0.5567  0.0568
   22MOL    C7714399   3.541   2.859   2.746  0.0484  0.3142 -0.1303
   22MOL    O7814400   3.562   2.903   2.638 -0.6024  0.0059  0.3412
   22MOL    C7914401   3.639   2.768   2.810 -0.5589 -0.7382  0.2218
   22MOL    C8014402   3.691   2.790   2.940 -0.1190  0.2256 -0.2474
   22MOL    C8114403   3.792   2.710   2.988 -1.1720  0.1761 -0.1887
   22MOL    C8214404   3.846   2.608   2.912 -0.5794  0.9263  0.4387
   22MOL    O8314405   3.944   2.532   2.967  0.4538 -0.3247  0.0431
   22MOL    C8414406   4.072   2.559   2.932 -0.2704 -0.0304 -0.4262
   22MOL    C8514407   4.164   2.465   2.971  0.3227  0.3231 -0.9845
   22MOL    C8614408   4.299   2.491   2.954 -0.2298 -0.6259 -0.2830
   22MOL    C8714409   4.345   2.612   2.892  0.1368  0.3438  0.5955
   22MOL    C8814410   4.253   2.700   2.842 -0.6022  0.2258  0.2900
   22MOL    C8914411   4.114   2.679   2.869  0.3772  0.0605  0.0229
   22MOL    C9014412   3.806   2.586   2.781  0.1703 -0.8003  0.3545
   22MOL    C9114413   3.707   2.669   2.731 -0.6021 -0.2998  0.5722
   22MOL    H9214414   3.404   3.084   2.786 -0.4554  0.5815 -0.2561
   22MOL    H9314415   3.209   3.112   2.933 -2.1283 -1.3344  1.4424
   22MOL    H9414416   3.206   2.687   3.008 -0.3657  0.6770  0.7166
   22MOL    H9514417   3.403   2.665   2.871  0.1768 -0.5830  1.8326
   22MOL    H9614418   3.647   2.867   3.002  1.1563  1.0685 -0.3813
   22MOL    H9714419   3.834   2.733   3.085 -2.4442 -1.8484  0.8715
   22MOL    H9814420   4.140   2.379   3.032  1.3225  0.7939  0.0803
   22MOL    H9914421   4.364   2.409   2.981  0.4158  0.2063  0.7253
   22MOL   H10014422   4.282   2.786   2.783 -0.0003 -0.3242 -0.2226
   22MOL   H10114423   4.042   2.746   2.824 -1.0505 -1.1288  0.4758
   22MOL   H10214424   3.857   2.522   2.710  2.0573  1.2513 -0.2090
   22MOL   H10314425   3.694   2.678   2.624  1.6759 -1.7877  0.1359
   22MOL   C10414426   4.630   2.723   3.193 -0.6243 -0.9478 -0.1181
   22MOL   C10514427   4.549   2.657   3.102 -0.2544 -0.4654  0.4303
   22MOL   C10614428   4.549   2.695   2.967 -0.0377 -0.0116 -0.0838
   22MOL   O10714429   4.478   2.630   2.866  0.1134 -0.0023  0.1432
   22MOL   C10814430   4.621   2.814   2.929  0.2301 -0.4810  0.0263
   22MOL   C10914431   4.698   2.885   3.027  1.0334 -0.3049 -0.1913
   22MOL   C11014432   4.698   2.838   3.164 -0.6938  0.0224  0.8061
   22MOL   C11114433   4.777   2.904   3.280 -0.2978 -0.0616 -0.7392
   22MOL   O11214434   4.834   2.840   3.367 -0.1250  0.3535 -0.0284
   22MOL   C11314435   4.780   3.050   3.275  0.3592 -0.1140 -0.5423
   22MOL   C11414436   4.896   3.119   3.305 -0.2803  0.3853 -0.5857
   22MOL   C11514437   4.900   3.259   3.311 -0.5736 -0.2678  0.8626
   22MOL   C11614438   4.783   3.334   3.278  0.1746 -0.1456 -0.3661
   22MOL   O11714439   4.783   3.470   3.287  0.4070 -0.0697 -0.2207
   22MOL   C11814440   4.815   3.525   3.410  0.5259  0.7892 -0.6235
   22MOL   C11914441   4.928   3.609   3.414 -0.1280  0.0523 -0.2582
   22MOL   C12014442   4.968   3.660   3.538 -0.1631  0.3756 -0.6545
   22MOL   C12114443   4.910   3.618   3.657  0.3747 -0.1562 -0.1272
   22MOL   C12214444   4.808   3.526   3.653  0.4850  0.3187  0.8891
   22MOL   C12314445   4.759   3.475   3.533 -0.1155 -0.2346 -0.5185
   22MOL   C12414446   4.664   3.268   3.243 -0.8100 -0.2717 -0.7564
   22MOL   C12514447   4.664   3.127   3.243  0.5912 -0.0460 -0.2618
   22MOL   H12614448   4.638   2.688   3.295 -2.0895 -1.5638 -0.2043
   22MOL   H12714449   4.486   2.577   3.137 -2.9497  0.6662 -1.6290
   22MOL   H12814450   4.624   2.841   2.825  0.4611 -3.4973 -0.7930
   22MOL   H12914451   4.741   2.977   2.992 -0.5773  0.3639 -0.4257
   22MOL   H13014452   4.983   3.059   3.327 -1.2185 -0.8908 -0.2975
   22MOL   H13114453   4.997   3.305   3.325 -0.4610 -0.3893  0.5006
   22MOL   H13214454   4.972   3.649   3.324 -2.3397  2.4561 -0.3306
   22MOL   H13314455   5.050   3.731   3.547 -0.6044  0.4642  3.5883
   22MOL   H13414456   4.750   3.487   3.735 -0.2025 -2.5987 -0.9014
   22MOL   H13514457   4.682   3.399   3.533  0.6692 -1.0342 -0.6754
   22MOL   H13614458   4.583   3.335   3.218  0.1493  1.6714  1.2032
   22MOL   H13714459   4.578   3.069   3.213  0.8971 -0.1090 -1.0360
   22MOL   C13814460   5.280   3.488   3.826  0.4458  0.4253  0.0331
   22MOL   C13914461   5.193   3.586   3.782  0.2212  0.0131  0.8526
   22MOL   C14014462   5.058   3.574   3.820  0.3552  0.1766  0.6936
   22MOL   O14114463   4.964   3.658   3.777 -0.1173  0.2292 -0.4712
   22MOL   C14214464   5.012   3.468   3.896  0.0670  0.7733  0.2780
   22MOL   C14314465   5.102   3.365   3.934 -0.3891  0.1476 -0.1292
   22MOL   C14414466   5.239   3.373   3.896 -0.7564  0.5041 -0.2159
   22MOL   C14514467   5.334   3.266   3.921  0.7191 -0.2124 -0.2811
   22MOL   O14614468   5.405   3.227   3.827  0.4422  0.1515 -0.1143
   22MOL   C14714469   5.326   3.190   4.050  0.3668 -0.0788 -0.1228
   22MOL   C14814470   5.376   3.061   4.057  0.6218  0.3965  0.3179
   22MOL   C14914471   5.377   2.986   4.178  0.0973 -0.9376  0.1013
   22MOL   C15014472   5.321   3.040   4.294  0.6242 -0.3162 -0.5505
   22MOL   O15114473   5.315   2.965   4.409 -0.5014 -0.3024  0.0719
   22MOL   C15214474   5.430   2.936   4.474 -0.0872 -0.0027 -0.5174
   22MOL   C15314475   5.482   2.802   4.502 -0.2974 -0.2067  0.1739
   22MOL   C15414476   5.591   2.786   4.581  0.2013  1.1884 -0.1722
   22MOL   C15514477   5.664   2.895   4.632 -0.7571 -0.1036 -0.2384
   22MOL   C15614478   5.619   3.025   4.605 -0.0476 -0.2653 -0.0576
   22MOL   C15714479   5.505   3.043   4.523 -0.4944  0.2280 -0.6217
   22MOL   C15814480   5.263   3.170   4.293  0.2514 -0.7633 -0.3581
   22MOL   C15914481   5.275   3.244   4.174  0.2275 -0.2779 -0.0549
   22MOL   H16014482   5.383   3.501   3.797  0.6387 -1.5505 -0.2764
   22MOL   H16114483   5.214   3.677   3.728  1.5512 -0.7119  0.1153
   22MOL   H16214484   4.907   3.450   3.911  0.0190  0.2694 -0.6397
   22MOL   H16314485   5.067   3.279   3.989 -2.6706 -0.4568 -2.4458
   22MOL   H16414486   5.414   3.014   3.967 -0.1767  1.4084 -0.5555
   22MOL   H16514487   5.417   2.885   4.180  1.1443 -0.5940 -2.5311
   22MOL   H16614488   5.426   2.715   4.472 -2.3553  1.5700 -1.1999
   22MOL   H16714489   5.619   2.687   4.615  0.4809  1.4861  0.4918
   22MOL   H16814490   5.680   3.108   4.638  0.5792 -0.5841 -0.4146
   22MOL   H16914491   5.481   3.146   4.501 -1.2892  0.3617  0.8159
   22MOL   H17014492   5.218   3.216   4.380 -0.3857 -2.3965  0.2105
   22MOL   H17114493   5.238   3.346   4.167 -0.3776 -0.4790  0.1977
   22MOL   C17214494   6.071   2.962   4.517 -0.4317 -0.2051 -0.1833
   22MOL   C17314495   5.962   2.884   4.567 -0.2236 -0.4490 -0.3883
   22MOL   C17414496   5.888   2.935   4.677  1.0202 -0.1277  0.2127
   22MOL   O17514497   5.769   2.871   4.716  0.0735 -0.3638 -0.2408
   22MOL   C17614498   5.922   3.053   4.731 -0.5940  0.4273  0.1282
   22MOL   C17714499   6.025   3.128   4.681 -0.6312  0.1587  0.6953
   22MOL   C17814500   6.105   3.078   4.580  0.1376  0.1760 -0.3109
   22MOL   C17914501   6.220   3.160   4.530 -0.9897 -0.1953  0.9824
   22MOL   O18014502   6.203   3.273   4.481 -0.2437  0.5240 -0.1124
   22MOL   C18114503   6.358   3.107   4.535 -0.7770  0.4046  0.4435
   22MOL   C18214504   6.464   3.196   4.498 -0.2639 -0.7271 -0.3990
   22MOL   C18314505   6.601   3.162   4.507 -1.3743 -0.4307  1.0156
   22MOL   C18414506   6.632   3.041   4.568 -1.2452  0.1638 -0.2244
   22MOL   O18514507   6.758   3.004   4.590  0.1854 -0.3155  0.1111
   22MOL   C18614508   6.821   2.938   4.484 -0.5203 -0.6251 -0.2912
   22MOL   C18714509   6.758   2.826   4.414 -0.5126  0.5144  0.4804
   22MOL   C18814510   6.819   2.761   4.304  0.0924 -0.4755 -0.3422
   22MOL   C18914511   6.948   2.795   4.270  0.0614  0.4492 -0.0273
   22MOL   C19014512   7.021   2.886   4.345  0.4675  0.5014 -0.3620
   22MOL   C19114513   6.961   2.959   4.453 -0.2484 -0.1267 -0.4333
   22MOL   C19214514   6.526   2.949   4.607 -0.0886  0.9366  0.1541
   22MOL   C19314515   6.392   2.987   4.599  1.4331  0.4646  0.4022
   22MOL   H19414516   6.138   2.917   4.445  0.8011  2.6378 -0.9008
   22MOL   H19514517   5.947   2.788   4.521 -3.1432  0.0620 -0.5647
   22MOL   H19614518   5.856   3.093   4.807 -1.0812  0.5666 -0.3569
   22MOL   H19714519   6.048   3.226   4.722 -1.0789  0.6075 -0.1353
   22MOL   H19814520   6.442   3.296   4.463  0.3089  0.2492  1.9726
   22MOL   H19914521   6.673   3.237   4.478 -0.7916 -1.5030 -0.3655
   22MOL   H20014522   6.660   2.794   4.447 -0.7166 -1.8184 -2.2236
   22MOL   H20114523   6.776   2.676   4.252 -0.6615 -0.4051  0.1657
   22MOL   H20214524   7.128   2.897   4.335  0.4200  0.3227 -1.1100
   22MOL   H20314525   7.012   3.036   4.508  1.9561 -1.0907 -1.0657
   22MOL   H20414526   6.550   2.857   4.659  0.4155  0.7302 -0.4450
   22MOL   H20514527   6.323   2.915   4.639  1.2083  0.6573  0.3643
   22MOL   C20614528   7.121   2.412   4.329 -0.1979 -0.2265 -0.4813
   22MOL   C20714529   7.101   2.548   4.310  0.0272  0.5467  0.0509
   22MOL   C20814530   7.038   2.589   4.189 -0.1518  0.0407 -0.0157
   22MOL   O20914531   7.010   2.726   4.167 -0.6642  0.0205  0.3481
   22MOL   C21014532   7.001   2.493   4.093  0.4675  0.7485 -0.2637
   22MOL   C21114533   7.023   2.356   4.121  0.4900  0.0043  0.0319
   22MOL   C21214534   7.089   2.313   4.237  0.3054 -0.1681 -0.6807
   22MOL   C21314535   7.111   2.166   4.271 -0.0177 -0.4459  0.0216
   22MOL   O21414536   7.156   2.137   4.380 -0.8605  0.4085  0.3277
   22MOL   C21514537   7.086   2.068   4.166  0.2810 -0.5317 -0.2465
   22MOL   C21614538   7.164   2.067   4.051  0.2533 -0.3315 -0.2043
   22MOL   C21714539   7.159   1.957   3.961  0.1131 -0.0595 -0.1486
   22MOL   C21814540   7.064   1.852   3.985  0.5075 -0.7927 -0.1748
   22MOL   O21914541   7.057   1.758   3.888 -0.3753 -0.3311  0.1410
   22MOL   C22014542   7.143   1.654   3.915  0.1165 -0.0126 -0.2150
   22MOL   C22114543   7.230   1.624   3.810  0.0979 -0.2402 -0.1259
   22MOL   C22214544   7.329   1.523   3.823 -0.1093  0.6306  0.3840
   22MOL   C22314545   7.339   1.458   3.947  0.1664  0.5660  0.4316
   22MOL   C22414546   7.253   1.487   4.049 -0.0995 -0.9517  0.5695
   22MOL   C22514547   7.155   1.586   4.037  0.4425 -0.1384 -0.1372
   22MOL   C22614548   6.982   1.852   4.102 -0.1540  0.1439 -0.2634
   22MOL   C22714549   7.001   1.959   4.196 -0.4820 -0.2837 -0.1538
   22MOL   H22814550   7.168   2.378   4.421 -3.2487 -1.3257  0.7600
   22MOL   H22914551   7.147   2.621   4.375 -2.4687  1.2226  1.1457
   22MOL   H23014552   6.960   2.525   3.998  1.5244  2.4967 -0.1668
   22MOL   H23114553   6.990   2.282   4.050  1.0230 -0.3811  0.1866
   22MOL   H23214554   7.214   2.158   4.019 -0.5893  0.5531  0.9617
   22MOL   H23314555   7.209   1.962   3.866 -0.0593  2.9944 -0.1149
   22MOL   H23414556   7.197   1.686   3.727  1.2589  1.6739  0.7978
   22MOL   H23514557   7.387   1.491   3.737  1.4526  2.5869  0.6667
   22MOL   H23614558   7.268   1.439   4.145 -0.1177  2.3291  2.2900
   22MOL   H23714559   7.088   1.607   4.119 -0.4659 -0.0979 -0.8693
   22MOL   H23814560   6.916   1.770   4.128  1.0632 -1.3354 -1.6392
   22MOL   H23914561   6.957   1.947   4.294  0.0913 -0.0854  0.1280
   22MOL   C24014562   7.702   1.458   4.190  0.3477  0.2674 -0.0918
   22MOL   C24114563   7.605   1.469   4.093  0.5064  0.4666  0.0502
   22MOL   C24214564   7.529   1.358   4.054 -0.1595  0.7684  0.5197
   22MOL   O24314565   7.437   1.362   3.952  0.1899  0.0945  0.2723
   22MOL   C24414566   7.553   1.233   4.113 -0.0349  0.4077  1.3572
   22MOL   C24514567   7.651   1.220   4.212 -0.4744 -0.7398 -0.3305
   22MOL   C24614568   7.726   1.332   4.254  0.6671  0.2009 -0.3968
   22MOL   C24714569   7.823   1.319   4.364 -0.3123  0.6832 -0.1578
   22MOL   O24814570   7.866   1.421   4.414 -0.0707 -0.2727  0.3765
   22MOL   C24914571   7.863   1.187   4.417  0.7568  0.2419 -0.5920
   22MOL   C25014572   7.902   1.081   4.335  0.9323 -0.2372  0.5493
   22MOL   C25114573   7.949   0.960   4.383  0.0997  0.4678 -1.1709
   22MOL   C25214574   7.952   0.936   4.521  0.2624 -0.0098  0.7480
   22MOL   O25314575   8.010   0.822   4.559 -0.1876  0.4374  0.3382
   22MOL   C25414576   8.131   0.812   4.628  0.4563  0.2131  0.1174
   22MOL   C25514577   8.209   0.927   4.640  0.4115  0.0557  0.6936
   22MOL   C25614578   0.016   0.932   4.705 -0.7536  0.6524 -0.5767
   22MOL   C25714579   0.066   0.809   4.758  0.6593  0.5848  0.2062
   22MOL   C25814580   8.299   0.693   4.748 -0.1500 -0.5028 -0.1123
   22MOL   C25914581   8.175   0.691   4.683  0.8828  0.3109 -0.4108
   22MOL   C26014582   7.905   1.035   4.606 -0.0998  0.4062  0.3912
   22MOL   C26114583   7.875   1.159   4.554 -0.5797 -0.7623  0.7392
   22MOL   H26214584   7.743   1.548   4.233 -3.3834  1.6352  0.7969
   22MOL   H26314585   7.577   1.567   4.057  1.4322  0.8734  0.4111
   22MOL   H26414586   7.501   1.145   4.078 -0.4852  0.4198  1.9825
   22MOL   H26514587   7.666   1.129   4.268  1.5618 -0.4854 -0.4524
   22MOL   H26614588   7.897   1.090   4.227 -0.4709 -0.3124  0.6031
   22MOL   H26714589   7.971   0.878   4.317 -5.8706  0.3901 -3.3309
   22MOL   H26814590   8.175   1.019   4.595  2.1884  1.5499  2.2915
   22MOL   H26914591   0.075   1.022   4.700  2.4803 -1.2331  1.7873
   22MOL   H27014592   0.026   0.599   4.781  0.1770 -0.0006  0.9391
   22MOL   H27114593   8.111   0.604   4.673  0.4870  0.6666 -0.9394
   22MOL   H27214594   7.910   1.014   4.712 -2.2014 -2.9015 -0.1113
   22MOL   H27314595   7.834   1.233   4.622 -0.5526  0.9357 -1.0653
   22MOL   C27414596   0.397   0.775   4.503 -0.5104  0.2028  0.2383
   22MOL   C27514597   0.307   0.817   4.600  0.1057  0.3139 -0.2445
   22MOL   C27614598   0.288   0.749   4.721 -0.1132  0.8102  0.7166
   22MOL   O27714599   0.192   0.787   4.813  0.3406  0.4442 -0.2539
   22MOL   C27814600   0.377   0.637   4.748 -0.0116  0.7499 -0.1154
   22MOL   C27914601   0.478   0.609   4.653 -0.2081  0.2263 -0.0941
   22MOL   C28014602   0.488   0.671   4.526  0.4998  0.0565  0.0471
   22MOL   C28114603   0.586   0.640   4.430 -0.0864 -0.0178 -0.0476
   22MOL   O28214604   0.697   0.616   4.467 -0.0337  0.6260 -0.2796
   22MOL   C28314605   0.541   0.637   4.289 -0.6750 -0.1052  0.5195
   22MOL   C28414606   0.406   0.613   4.252 -0.5189 -0.1896 -0.8326
   22MOL   C28514607   0.365   0.620   4.119  0.4528 -0.1799 -0.0716
   22MOL   C28614608   0.459   0.649   4.017  0.4266  0.5861  0.4789
   22MOL   O28714609   0.425   0.671   3.886 -0.7035  0.3770 -0.1746
   22MOL   C28814610   0.312   0.623   3.844  0.3510 -0.1817  0.9632
   22MOL   C28914611   0.299   0.485   3.809 -0.2458 -0.3349  0.2085
   22MOL   C29014612   0.172   0.443   3.759 -0.7410  0.3483  0.3879
   22MOL   C29114613   0.070   0.540   3.741  0.4444 -0.7569  0.5478
   22MOL   C29214614   0.092   0.672   3.769 -0.2102 -0.0061  0.6634
   22MOL   C29314615   0.212   0.716   3.822  0.3746  0.6730 -0.0761
   22MOL   C29414616   0.591   0.666   4.050  0.5086 -0.1759  0.1658
   22MOL   C29514617   0.633   0.656   4.183  0.7441 -0.1477 -0.1124
   22MOL   H29614618   0.389   0.821   4.406 -0.9059 -2.4738 -1.0505
   22MOL   H29714619   0.244   0.898   4.564  0.2892  0.4523 -0.2536
   22MOL   H29814620   0.376   0.583   4.841 -1.2886  0.7831 -0.0903
   22MOL   H29914621   0.543   0.525   4.673 -1.5376 -1.0329 -0.9291
   22MOL   H30014622   0.330   0.592   4.326  0.1242 -0.7457 -0.3193
   22MOL   H30114623   0.261   0.607   4.092  0.9869  2.1195 -3.5439
   22MOL   H30214624   0.380   0.415   3.807 -1.3866 -1.6506 -2.1922
   22MOL   H30314625   0.164   0.338   3.736 -0.1174  0.2512  0.5859
   22MOL   H30414626   0.025   0.752   3.741  0.8372  0.4673 -0.5281
   22MOL   H30514627   0.220   0.819   3.855 -0.1011  1.5818 -2.6981
   22MOL   H30614628   0.664   0.685   3.972  0.0962 -1.3432 -0.5265
   22MOL   H30714629   0.737   0.669   4.208  1.3392 -0.8791 -2.0734
   22MOL   C30814630   7.925   0.599   3.795 -0.2526 -0.5095  0.3077
   22MOL   C30914631   8.042   0.588   3.721  0.3590  0.2773  0.9237
   22MOL   C31014632   8.153   0.507   3.765  0.0437  0.1902  0.2229
   22MOL   O31114633   8.259   0.502   3.687  0.3241 -0.3359 -0.3307
   22MOL   C31214634   8.138   0.439   3.890  0.1525  1.1736  0.4709
   22MOL   C31314635   8.017   0.443   3.958 -0.0871 -0.5750 -0.0684
   22MOL   C31414636   7.908   0.522   3.916 -0.7208 -0.5243  0.4159
   22MOL   C31514637   7.788   0.539   4.007  0.1273 -0.0642 -0.9953
   22MOL   O31614638   7.806   0.573   4.122  0.1951 -0.0055 -0.0158
   22MOL   C31714639   7.660   0.493   3.954  0.1012 -0.4039 -0.7183
   22MOL   C31814640   7.544   0.542   4.021 -0.8905 -0.7058 -0.0454
   22MOL   C31914641   7.418   0.504   3.973 -0.5624 -1.0203  0.1013
   22MOL   C32014642   7.406   0.415   3.864 -0.2231  0.0286 -0.3139
   22MOL   O32114643   7.280   0.374   3.817 -0.0838 -0.4837  0.3665
   22MOL   C32214644   7.252   0.419   3.691  0.4876 -0.0551  0.0993
   22MOL   C32314645   7.236   0.557   3.669  0.3646  0.0608  0.8602
   22MOL   C32414646   7.214   0.605   3.533 -0.6258 -0.6014  0.1884
   22MOL   C32514647   7.210   0.517   3.423  0.7391  0.4004 -0.1968
   22MOL   C32614648   7.223   0.378   3.450 -0.7990  0.0179 -0.4100
   22MOL   C32714649   7.235   0.328   3.582 -0.2126  0.6322 -0.0178
   22MOL   C32814650   7.523   0.366   3.802  0.2986 -0.6222 -0.2111
   22MOL   C32914651   7.648   0.405   3.846  0.2490  0.1282 -0.1748
   22MOL   H33014652   7.855   0.678   3.770  1.3659  0.4044 -1.3974
   22MOL   H33114653   8.056   0.642   3.628  0.5044  1.5931  1.6985
   22MOL   H33214654   8.223   0.381   3.923  1.0588  2.8443  1.1556
   22MOL   H33314655   8.017   0.384   4.049 -1.5811 -2.2638 -1.1224
   22MOL   H33414656   7.542   0.607   4.106  0.8630  0.3877 -0.8137
   22MOL   H33514657   7.332   0.542   4.026  0.5136 -0.6870  1.6426
   22MOL   H33614658   7.236   0.632   3.747 -0.7128  0.6175  0.3304
   22MOL   H33714659   7.192   0.710   3.525 -0.3837 -0.4500  1.4329
   22MOL   H33814660   7.208   0.307   3.370  0.0643  0.3475 -0.8738
   22MOL   H33914661   7.249   0.223   3.603  1.5546  1.2558  2.0956
   22MOL   H34014662   7.517   0.304   3.714 -1.7469  0.2659 -0.7409
   22MOL   H34114663   7.734   0.375   3.788  0.4536 -2.3665  1.3711
   22MOL   C34214664   7.069   0.864   3.149 -0.2265 -0.0032 -0.7738
   22MOL   C34314665   7.151   0.759   3.172 -0.3187  0.4808 -0.6251
   22MOL   C34414666   7.107   0.656   3.259  0.5483 -0.6969  0.2635
   22MOL   O34514667   7.194   0.556   3.295  0.3452  0.3911  0.1601
   22MOL   C34614668   6.975   0.659   3.308 -0.4094  1.0017 -0.2396
   22MOL   C34714669   6.894   0.766   3.282 -0.2293  0.3776 -0.1721
   22MOL   C34814670   6.942   0.870   3.201 -0.1490 -0.0048 -0.3504
   22MOL   C34914671   6.843   0.972   3.161 -0.4457 -0.1519 -0.0154
   22MOL   O35014672   6.730   0.943   3.150 -0.0022 -0.3892  0.6040
   22MOL   C35114673   6.888   1.111   3.135 -0.3562  0.2544  0.7344
   22MOL   C35214674   6.977   1.176   3.231  0.7143  0.6970 -0.2105
   22MOL   C35314675   7.007   1.307   3.212 -0.4055 -0.5700  0.1545
   22MOL   C35414676   6.946   1.385   3.115  0.4406 -0.3126 -0.1565
   22MOL   O35514677   6.971   1.517   3.094  0.1296  0.7154  0.3053
   22MOL   C35614678   6.927   1.608   3.184  0.9317  0.0498 -0.2785
   22MOL   C35714679   6.791   1.642   3.172 -0.0554  0.6743  0.4390
   22MOL   C35814680   6.725   1.721   3.273 -0.9810 -0.2370  0.0973
   22MOL   C35914681   6.797   1.782   3.376  0.0724 -0.1472 -0.7036
   22MOL   C36014682   6.937   1.753   3.377  0.3902  0.2483 -0.5004
   22MOL   C36114683   7.003   1.678   3.279 -0.2080  0.3865 -0.0117
   22MOL   C36214684   6.851   1.326   3.028  0.0067 -0.3228 -0.2888
   22MOL   C36314685   6.828   1.188   3.033 -0.5653  0.1298 -0.6905
   22MOL   H36414686   7.109   0.943   3.087  0.4416 -0.2997 -0.7222
   22MOL   H36514687   7.254   0.750   3.141 -0.1201 -2.3777  0.6591
   22MOL   H36614688   6.936   0.586   3.378 -0.0112 -1.0705 -2.1346
   22MOL   H36714689   6.797   0.768   3.329 -0.3772 -0.4603 -0.4374
   22MOL   H36814690   7.015   1.115   3.312 -2.8195 -0.2480  0.8524
   22MOL   H36914691   7.073   1.349   3.286 -1.5350 -1.1187  1.5012
   22MOL   H37014692   6.730   1.601   3.093  1.9909 -0.5839 -0.5083
   22MOL   H37114693   6.620   1.745   3.264 -0.3852  2.5182 -0.0991
   22MOL   H37214694   6.996   1.796   3.457  0.4553 -1.7518  0.5628
   22MOL   H37314695   7.110   1.666   3.287  0.0692  1.1098 -2.3698
   22MOL   H37414696   6.798   1.389   2.960  0.2708 -1.4241 -1.5335
   22MOL   H37514697   6.750   1.140   2.976  1.3662 -2.1418 -1.4931
   22MOL   C37614698   6.573   2.158   3.381 -0.1177 -0.1188  0.5063
   22MOL   C37714699   6.661   2.050   3.380 -0.7393  0.2900 -0.7494
   22MOL   C37814700   6.639   1.941   3.464  1.2693  0.3248  0.4835
   22MOL   O37914701   6.737   1.845   3.485 -0.2292  0.4297 -0.1883
   22MOL   C38014702   6.508   1.932   3.520 -0.1474  0.4344  0.4891
   22MOL   C38114703   6.407   2.023   3.495  0.0090  0.2814  0.4985
   22MOL   C38214704   6.441   2.139   3.425  0.0158  1.1775  0.6684
   22MOL   C38314705   6.351   2.251   3.384 -0.5312 -0.3253 -0.6560
   22MOL   O38414706   6.350   2.289   3.271 -0.0706  0.3039 -0.0027
   22MOL   C38514707   6.271   2.307   3.499 -0.0356 -0.7010 -0.3282
   22MOL   C38614708   6.322   2.294   3.632  0.3350 -0.1534  0.5281
   22MOL   C38714709   6.245   2.352   3.737 -0.1641  0.0483  0.1630
   22MOL   C38814710   6.124   2.422   3.713 -0.2721 -0.1318  0.9039
   22MOL   O38914711   6.062   2.493   3.815  0.2271 -0.0122  0.1168
   22MOL   C39014712   6.130   2.565   3.913 -0.1506 -1.0481 -0.4085
   22MOL   C39114713   6.253   2.626   3.891 -0.1716 -0.4596  0.2461
   22MOL   C39214714   6.315   2.695   3.997 -0.5397 -0.1081  0.2340
   22MOL   C39314715   6.247   2.718   4.115 -0.5039 -0.0403  0.8593
   22MOL   C39414716   6.116   2.670   4.136 -0.4448  0.1454 -0.3480
   22MOL   C39514717   6.060   2.590   4.034 -0.5761 -0.3693 -0.2574
   22MOL   C39614718   6.072   2.426   3.579  0.3740 -0.5081 -0.2454
   22MOL   C39714719   6.150   2.376   3.476 -0.7394  0.8945  0.4534
   22MOL   H39814720   6.609   2.247   3.333 -0.7124  0.1911  0.6317
   22MOL   H39914721   6.749   2.072   3.322 -0.9846  0.9713 -0.8637
   22MOL   H40014722   6.480   1.855   3.590 -0.1248 -0.0005  0.0235
   22MOL   H40114723   6.307   2.008   3.534 -1.3994  2.4097 -2.1039
   22MOL   H40214724   6.416   2.245   3.655  0.1646 -1.9452 -2.3938
   22MOL   H40314725   6.278   2.344   3.839  0.9783  0.7882 -0.1431
   22MOL   H40414726   6.293   2.620   3.791  1.2643 -0.8130  0.8187
   22MOL   H40514727   6.411   2.741   3.978 -1.2326  1.0065 -0.6573
   22MOL   H40614728   6.054   2.692   4.222 -0.1103 -1.9833  0.4910
   22MOL   H40714729   5.959   2.552   4.037 -0.0374 -1.7809  0.0519
   22MOL   H40814730   5.989   2.492   3.562  0.1031 -0.7715  0.0513
   22MOL   H40914731   6.117   2.396   3.375  1.9588  1.5503 -0.3528
   22MOL   C41014732   6.254   3.155   4.151 -0.3856 -0.3354  0.5955
   22MOL   C41114733   6.221   3.020   4.170  0.0714 -0.8746  0.2103
   22MOL   C41214734   6.323   2.922   4.193 -0.1523 -0.3307 -0.2188
   22MOL   O41314735   6.301   2.789   4.219  0.2414  0.3577 -0.3396
   22MOL   C41414736   6.458   2.964   4.207 -0.1637  0.0681 -0.3193
   22MOL   C41514737   6.493   3.097   4.177 -0.9497 -0.5349  0.5216
   22MOL   C41614738   6.390   3.193   4.155 -0.2078 -0.2392 -0.5790
   22MOL   C41714739   6.425   3.335   4.145  0.1423 -0.3637  0.3701
   22MOL   O41814740   6.542   3.379   4.165 -0.6877 -0.8697  0.1498
   22MOL   C41914741   6.309   3.432   4.109 -0.4411 -0.5507  0.0801
   22MOL   C42014742   6.286   3.468   3.974 -0.2083  0.2364  0.3980
   22MOL   C42114743   6.190   3.570   3.938  0.2131 -0.4594  0.3557
   22MOL   C42214744   6.108   3.622   4.042  0.1192 -1.0663 -0.6205
   22MOL   O42314745   6.020   3.725   4.012 -0.2675 -0.8248  0.7773
   22MOL   C42414746   6.085   3.841   3.977 -0.3546  0.1058 -0.3124
   22MOL   C42514747   6.125   3.929   4.076 -0.2351 -0.4692  0.2734
   22MOL   C42614748   6.191   4.046   4.047  0.0342 -0.8437  0.4625
   22MOL   C42714749   6.198   4.095   3.913 -0.6953  0.2869  0.4133
   22MOL   C42814750   6.152   4.012   3.814 -0.0384  0.1394  0.2962
   22MOL   C42914751   6.090   3.888   3.847 -0.7870 -0.5465  1.0937
   22MOL   C43014752   6.124   3.572   4.173  0.2341  0.5355  0.2932
   22MOL   C43114753   6.228   3.483   4.213  0.8509 -0.1895  0.1379
   22MOL   H43214754   6.174   3.223   4.129  0.6043  0.4901 -0.4779
   22MOL   H43314755   6.118   2.986   4.168 -0.8902  1.6454  3.1059
   22MOL   H43414756   6.531   2.890   4.239  0.7105  0.1991 -1.9590
   22MOL   H43514757   6.597   3.123   4.187 -1.0038 -0.0121 -0.2046
   22MOL   H43614758   6.356   3.417   3.909  0.5174  0.4076  1.0378
   22MOL   H43714759   6.178   3.612   3.840  0.2635 -2.7324 -0.6605
   22MOL   H43814760   6.107   3.905   4.180 -0.4437  1.3568  0.6674
   22MOL   H43914761   6.249   4.099   4.121  0.7487 -4.0050  2.2564
   22MOL   H44014762   6.161   4.045   3.711  0.4805  0.4873  0.4515
   22MOL   H44114763   6.048   3.834   3.763 -0.2487 -0.4888  0.7785
   22MOL   H44214764   6.057   3.609   4.249  1.3270 -0.1575  1.6222
   22MOL   H44314765   6.234   3.455   4.317 -0.1419  0.2531  0.3240
   22MOL   C44414766   6.620   4.165   3.877  0.1646  0.1338 -0.6453
   22MOL   C44514767   6.481   4.139   3.857 -0.5356  0.4976 -0.4138
   22MOL   C44614768   6.387   4.229   3.901  0.8033  0.0391  1.1156
   22MOL   O44714769   6.253   4.218   3.870 -0.4639  0.0741 -0.6702
   22MOL   C44814770   6.428   4.352   3.956  0.4197  0.1199 -0.1038
   22MOL   C44914771   6.570   4.387   3.969  0.0249  0.8767  0.7746
   22MOL   C45014772   6.662   4.281   3.941  0.4279 -0.1164 -0.4699
   22MOL   C45114773   6.805   4.307   3.960 -0.4930  1.1026 -0.5783
   22MOL   O45214774   6.874   4.222   4.013  0.1223 -0.1419  0.3696
   22MOL   C45314775   6.863   4.439   3.933  0.2591  0.4949 -0.2540
   22MOL   C45414776   6.807   4.514   3.834  0.2092  0.2768 -0.8273
   22MOL   C45514777   6.880   4.623   3.782 -0.0817  0.0211 -0.3510
   22MOL   C45614778   6.988   4.671   3.853  0.3209 -0.9792 -0.5222
   22MOL   O45714779   7.053   4.781   3.805 -0.3119 -0.1253  0.3819
   22MOL   C45814780   7.145   4.759   3.704  0.3633 -0.4393 -0.1556
   22MOL   C45914781   7.119   4.788   3.568  0.4508 -0.1529 -0.5133
   22MOL   C46014782   7.221   4.773   3.471  0.4619  0.9332  0.6222
   22MOL   C46114783   7.347   4.715   3.503 -0.2673  0.3393  0.9355
   22MOL   C46214784   7.370   4.687   3.643 -0.0114  0.3737  0.0223
   22MOL   C46314785   7.271   4.709   3.738 -0.5093 -0.1790  0.1691
   22MOL   C46414786   7.035   4.605   3.970 -0.1370 -0.4873  0.2023
   22MOL   C46514787   6.977   4.484   4.006  0.0889 -0.2803 -0.3094
   22MOL   H46614788   6.679   4.084   3.836  0.6254  0.8868 -1.5012
   22MOL   H46714789   6.454   4.040   3.824 -0.9456  0.7844 -0.9411
   22MOL   H46814790   6.361   4.430   3.992  0.0784 -0.4252  0.4487
   22MOL   H46914791   6.604   4.471   4.028  2.8213  0.9749 -0.9028
   22MOL   H47014792   6.714   4.489   3.786  0.4399 -0.8951 -0.6755
   22MOL   H47114793   6.848   4.668   3.689 -0.4377 -3.1540 -1.8308
   22MOL   H47214794   7.021   4.821   3.539  0.7566 -0.6056 -2.0773
   22MOL   H47314795   7.191   4.805   3.372  0.5546 -1.3392 -0.1697
   22MOL   H47414796   7.458   4.634   3.677  0.8397  0.1688 -2.3507
   22MOL   H47514797   7.283   4.692   3.844 -3.5617 -0.1166  0.5817
   22MOL   H47614798   7.121   4.650   4.017  0.4637 -1.4867  0.0795
   22MOL   H47714799   7.003   4.428   4.094  0.7439 -1.2640 -1.1217
   22MOL   C47814800   7.509   4.965   3.160 -0.2478 -0.7818 -0.0479
   22MOL   C47914801   7.449   4.844   3.217  0.0136 -0.2491 -0.4215
   22MOL   C48014802   7.496   4.794   3.342  0.0117  0.4883 -0.3273
   22MOL   O48114803   7.444   4.689   3.411 -0.5901 -0.1312  0.2485
   22MOL   C48214804   7.617   4.844   3.396  0.6287 -0.3814 -0.1731
   22MOL   C48314805   7.677   4.955   3.336 -0.5197  0.4586 -0.1620
   22MOL   C48414806   7.622   5.020   3.223  0.3535 -0.1007 -1.3453
   22MOL   C48514807   7.694   5.143   3.184 -0.3219  0.6554 -0.2353
   22MOL   O48614808   7.785   5.195   3.252  0.2431 -0.1601 -0.5739
   22MOL   C48714809   7.673   5.197   3.051 -0.7575 -0.2322  0.4280
   22MOL   C48814810   7.781   5.190   2.958  0.9003  0.2293  0.3817
   22MOL   C48914811   7.762   5.219   2.818  0.4881 -0.2720  0.0739
   22MOL   C49014812   7.632   5.257   2.775  0.3279 -0.2862  0.7533
   22MOL   O49114813   7.600   5.282   2.643 -0.2238  0.1697  0.2811
   22MOL   C49214814   7.664   5.211   2.546  0.0595  0.7404 -0.2647
   22MOL   C49314815   7.758   5.281   2.474 -0.0568 -0.0248 -0.1609
   22MOL   C49414816   7.815   5.218   2.362  0.1277  0.0077 -0.1347
   22MOL   C49514817   7.799   5.080   2.343  0.9690 -0.1389  0.7681
   22MOL   C49614818   7.708   5.006   2.424  0.1010  0.4575 -0.2562
   22MOL   C49714819   7.636   5.075   2.522 -0.8129 -0.1829 -0.4524
   22MOL   C49814820   7.528   5.274   2.871  0.1666 -0.3331  0.6307
   22MOL   C49914821   7.547   5.242   3.006 -1.0775 -0.0565  1.0941
   22MOL   H50014822   7.476   5.009   3.067 -0.8155 -0.1850  0.4329
   22MOL   H50114823   7.364   4.795   3.172 -1.1819  1.1732  0.2480
   22MOL   H50214824   7.658   4.791   3.481  0.7101 -2.5475 -1.5276
   22MOL   H50314825   7.772   4.979   3.381  0.2059  1.7786 -2.3475
   22MOL   H50414826   7.880   5.165   2.993  1.6115  0.2763 -1.4886
   22MOL   H50514827   7.839   5.215   2.743  0.9288  2.4856  0.3452
   22MOL   H50614828   7.766   5.389   2.474  3.7224 -0.2101 -0.7546
   22MOL   H50714829   7.857   5.280   2.285 -1.9136  0.8472 -0.6007
   22MOL   H50814830   7.689   4.901   2.410 -1.5376  0.5456  1.1967
   22MOL   H50914831   7.572   5.019   2.588  2.4494 -3.5683 -0.0564
   22MOL   H51014832   7.436   5.314   2.830  0.9676  0.0871 -0.7976
   22MOL   H51114833   7.469   5.247   3.081 -1.0283 -0.9613  1.2139
   22MOL   C51214834   7.767   4.742   2.048  1.2265 -0.3583 -0.3111
   22MOL   C51314835   7.819   4.811   2.161 -0.0047  0.1477 -0.0615
   22MOL   C51414836   7.818   4.949   2.164  0.0725 -0.4330  0.2169
   22MOL   O51514837   7.882   5.022   2.256 -0.8204  0.4579  0.3995
   22MOL   C51614838   7.766   5.017   2.052 -0.8164  0.4549  0.0619
   22MOL   C51714839   7.716   4.947   1.938  0.3050  0.9419  0.6626
   22MOL   C51814840   7.715   4.809   1.937 -0.7458 -0.3135 -0.0419
   22MOL   C51914841   7.635   4.745   1.835 -0.5998 -0.1712  0.0766
   22MOL   O52014842   7.556   4.808   1.763  0.3016  0.5105  0.7541
   22MOL   C52114843   7.659   4.602   1.817  0.1857  0.5883 -0.1327
   22MOL   C52214844   7.580   4.507   1.888  0.0236  0.4772  0.0080
   22MOL   C52314845   7.605   4.369   1.882 -0.2218  0.9677 -0.4782
   22MOL   C52414846   7.712   4.323   1.807 -0.5319  0.0174 -0.6742
   22MOL   O52514847   7.744   4.187   1.792 -0.3713  0.0903  0.1357
   22MOL   C52614848   7.649   4.105   1.741 -0.1528 -0.0310  0.8915
   22MOL   C52714849   7.570   4.148   1.627  0.4355 -0.5858  0.1303
   22MOL   C52814850   7.477   4.051   1.572  1.0665  0.2835 -0.8534
   22MOL   C52914851   7.468   3.921   1.633  0.4468  0.5467  0.0060
   22MOL   C53014852   7.549   3.884   1.744 -0.0730 -0.9013  0.0294
   22MOL   C53114853   7.639   3.974   1.797  0.3300 -0.0796 -0.5099
   22MOL   C53214854   7.794   4.420   1.729  0.6840  0.1269  0.3000
   22MOL   C53314855   7.759   4.556   1.734 -0.7035 -0.2042 -0.2831
   22MOL   H53414856   7.759   4.634   2.054 -2.6554 -0.0961  0.5938
   22MOL   H53514857   7.860   4.754   2.244  0.6702  0.4850 -0.1685
   22MOL   H53614858   7.764   5.125   2.052  2.3999  0.5621  0.1378
   22MOL   H53714859   7.667   5.013   1.868  1.7976  0.4905 -0.8335
   22MOL   H53814860   7.502   4.551   1.948  0.0409  3.0156 -1.7443
   22MOL   H53914861   7.525   4.312   1.927  0.7013 -0.6937 -0.8915
   22MOL   H54014862   7.580   4.247   1.586 -0.7625 -0.6463 -0.3108
   22MOL   H54114863   7.430   4.070   1.477  0.5009 -2.2686 -1.1017
   22MOL   H54214864   7.530   3.786   1.787 -0.9646 -0.2179  1.2314
   22MOL   H54314865   7.703   3.941   1.877  2.1652  1.3671 -1.3457
   22MOL   H54414866   7.885   4.381   1.688 -1.4553 -2.6819 -2.0010
   22MOL   H54514867   7.821   4.630   1.686 -0.6951 -0.3501 -0.4941
   22MOL   C54614868   7.026   3.886   1.622 -0.1278 -0.6328  0.5016
   22MOL   C54714869   7.158   3.860   1.665 -0.2417  0.0495 -0.3194
   22MOL   C54814870   7.257   3.860   1.564 -1.1335  0.5574  0.0075
   22MOL   O54914871   7.384   3.825   1.594  0.1965 -0.1308 -0.2524
   22MOL   C55014872   7.224   3.879   1.428  0.0572  0.0331  0.0225
   22MOL   C55114873   7.092   3.895   1.392  0.1887 -0.4509  0.1638
   22MOL   C55214874   6.992   3.906   1.486  0.4904  0.1649  0.4097
   22MOL   C55314875   6.854   3.947   1.445  0.4422  0.1637 -0.2030
   22MOL   O55414876   6.818   3.985   1.328 -0.4490 -0.4268  0.2660
   22MOL   C55514877   6.746   3.939   1.546  1.0290 -0.1273  0.0033
   22MOL   C55614878   6.717   3.827   1.631 -0.0234 -0.4557  0.8338
   22MOL   C55714879   6.609   3.843   1.716 -0.4704 -0.2268 -0.3433
   22MOL   C55814880   6.523   3.947   1.716 -0.5559  0.1804 -0.2661
   22MOL   O55914881   6.411   3.947   1.789 -0.1843  0.0718  0.2306
   22MOL   C56014882   6.296   3.935   1.725  0.0689  0.3899 -0.4248
   22MOL   C56114883   6.246   4.026   1.632 -0.0484 -0.0158  0.3856
   22MOL   C56214884   6.129   3.999   1.563  0.2017 -0.3558 -0.0383
   22MOL   C56314885   6.055   3.886   1.594  0.2875  0.2716  0.2967
   22MOL   C56414886   6.112   3.788   1.676 -0.4479 -0.1785  0.0292
   22MOL   C56514887   6.227   3.816   1.741  0.2843  0.2287 -0.3748
   22MOL   C56614888   6.558   4.065   1.643  0.6735  0.6755  0.1301
   22MOL   C56714889   6.670   4.058   1.560 -0.2073 -0.1412  0.2955
   22MOL   H56814890   6.952   3.904   1.699  0.0985 -0.4347  0.6710
   22MOL   H56914891   7.191   3.856   1.768 -0.4633  0.5706 -0.2272
   22MOL   H57014892   7.303   3.876   1.354 -1.7047  2.3440 -2.0104
   22MOL   H57114893   7.075   3.908   1.286 -1.7289  0.1427  0.5301
   22MOL   H57214894   6.778   3.738   1.633  1.9239  0.7900 -1.5354
   22MOL   H57314895   6.585   3.761   1.783 -0.4031 -0.1169 -0.1843
   22MOL   H57414896   6.290   4.122   1.612 -0.0880 -0.4951 -2.2770
   22MOL   H57514897   6.089   4.078   1.502  2.2406  1.3653  0.7836
   22MOL   H57614898   6.057   3.700   1.703 -2.1290  1.6046  2.7647
   22MOL   H57714899   6.263   3.731   1.796  0.5482 -0.5096 -1.6843
   22MOL   H57814900   6.493   4.151   1.647 -2.1843 -1.4569  1.2327
   22MOL   H57914901   6.691   4.145   1.500  1.2559 -1.2800 -0.8681
   22MOL   C58014902   5.723   4.089   1.335  0.5854  0.1214  0.1664
   22MOL   C58114903   5.769   4.016   1.447  0.3005  0.1944  0.0848
   22MOL   C58214904   5.886   3.939   1.438  0.9208 -0.1395  0.0382
   22MOL   O58314905   5.924   3.862   1.545  0.1911 -0.3046 -0.6289
   22MOL   C58414906   5.947   3.915   1.309  0.8558 -0.3253  0.7796
   22MOL   C58514907   5.901   3.983   1.193 -0.4660  0.7363  0.1834
   22MOL   C58614908   5.785   4.069   1.209  0.3516  0.1570  0.2078
   22MOL   C58714909   5.722   4.135   1.086 -0.0845 -0.2086  0.5578
   22MOL   O58814910   5.599   4.137   1.072 -0.6114  0.3132  0.4014
   22MOL   C58914911   5.811   4.191   0.981  0.4049  0.0347 -0.0742
   22MOL   C59014912   5.760   4.192   0.852 -0.3566 -0.3511 -0.6351
   22MOL   C59114913   5.843   4.223   0.745 -0.1406  0.5672 -0.4905
   22MOL   C59214914   5.977   4.267   0.764  0.2844  0.0334  0.3203
   22MOL   O59314915   6.058   4.296   0.660 -0.1727  0.4870  0.2126
   22MOL   C59414916   6.078   4.430   0.627  0.4393  0.0915 -0.1141
   22MOL   C59514917   6.209   4.479   0.610  0.6457  0.8769  0.0352
   22MOL   C59614918   6.229   4.613   0.590  0.8905 -0.2990  0.4790
   22MOL   C59714919   6.119   4.702   0.574  0.2700  0.4959 -0.3860
   22MOL   C59814920   5.988   4.653   0.587  0.3345 -0.6040 -0.1815
   22MOL   C59914921   5.967   4.520   0.619  1.1008  0.6796 -0.2284
   22MOL   C60014922   6.029   4.274   0.897  0.0256 -0.5847 -0.1368
   22MOL   C60114923   5.945   4.238   1.004 -0.6421  0.3542  0.0250
   22MOL   H60214924   5.637   4.153   1.346  0.7541  0.4122 -0.2417
   22MOL   H60314925   5.729   4.030   1.547  1.7854 -1.1072  0.8761
   22MOL   H60414926   6.035   3.854   1.296  1.9617  1.2436  0.7498
   22MOL   H60514927   5.942   3.957   1.097 -0.3775  3.2590 -0.4843
   22MOL   H60614928   5.656   4.165   0.840 -0.2753 -0.9136 -0.0907
   22MOL   H60714929   5.801   4.217   0.645 -2.3964 -1.6505  0.5509
   22MOL   H60814930   6.298   4.418   0.617  0.6107  0.2934 -3.9161
   22MOL   H60914931   6.328   4.648   0.563 -0.5205  2.3316 -1.5322
   22MOL   H61014932   5.901   4.716   0.580  0.7313  0.5542  4.0434
   22MOL   H61114933   5.864   4.490   0.631  0.3376  2.9883 -0.5441
   22MOL   H61214934   6.129   4.313   0.910 -0.9971  1.7077  0.9300
   22MOL   H61314935   5.984   4.247   1.104 -1.8195  2.2013  0.3473
   22MOL   C61414936   6.028   4.858   0.192 -0.0925 -0.4389  0.2395
   22MOL   C61514937   6.107   4.819   0.309  0.2459  0.6363  0.2551
   22MOL   C61614938   6.082   4.883   0.429  0.0645 -0.9177 -0.6687
   22MOL   O61714939   6.141   4.832   0.541  0.0839 -0.2880 -0.5989
   22MOL   C61814940   5.999   4.998   0.437  0.7965  0.0790 -0.5865
   22MOL   C61914941   5.930   5.037   0.321  0.2697 -0.2943  0.6902
   22MOL   C62014942   5.945   4.968   0.201 -0.2338 -0.3928  0.1246
   22MOL   C62114943   5.896   5.038   0.078  0.1772  0.1555  1.0702
   22MOL   O62214944   5.867   5.159   0.072 -0.1064 -0.1274 -0.5741
   22MOL   C62314945   5.883   4.958   8.268 -0.5123  0.1512 -0.1903
   22MOL   C62414946   5.757   4.902   8.217  0.0517  0.2286 -0.4079
   22MOL   C62514947   5.748   4.817   8.112 -0.6410  0.4512  0.1472
   22MOL   C62614948   5.868   4.788   8.035  0.4040 -0.5793 -0.5864
   22MOL   O62714949   5.875   4.703   7.926 -0.1289  0.1199 -0.4554
   22MOL   C62814950   5.857   4.770   7.807  0.7106 -0.3999  0.1639
   22MOL   C62914951   5.797   4.899   7.791  0.3355  0.0632 -0.1175
   22MOL   C63014952   5.805   4.977   7.678  0.4254  0.3843 -0.4789
   22MOL   C63114953   5.873   4.921   7.559 -0.4529  0.4437 -0.6242
   22MOL   C63214954   5.941   4.798   7.573 -0.2025 -0.5471 -0.7087
   22MOL   C63314955   5.937   4.725   7.700 -0.5883 -0.2440 -0.1012
   22MOL   C63414956   5.986   4.848   8.076 -0.5978  0.9130  0.1560
   22MOL   C63514957   5.997   4.924   8.190  0.0660  0.3605 -0.6037
   22MOL   H63614958   6.040   4.811   0.096  3.3768  0.5019  0.1624
   22MOL   H63714959   6.175   4.736   0.304  1.4795  1.6115  0.7493
   22MOL   H63814960   5.987   5.050   0.531  1.6702 -0.8781  0.0587
   22MOL   H63914961   5.884   5.135   0.322 -2.6617 -1.6174  2.3218
   22MOL   H64014962   5.661   4.931   8.256  0.4823 -0.6454  1.3672
   22MOL   H64114963   5.654   4.770   8.087 -0.4282 -0.8424  1.7034
   22MOL   H64214964   5.744   4.943   7.874 -2.6422  1.2292 -2.5078
   22MOL   H64314965   5.758   5.075   7.672 -1.9252 -0.7014 -0.6470
   22MOL   H64414966   6.011   4.770   7.496  2.3670  0.6723  1.1040
   22MOL   H64514967   5.990   4.633   7.719 -2.3899 -1.1275  0.7640
   22MOL   H64614968   6.074   4.826   8.016 -1.5595 -1.3099 -0.5231
   22MOL   H64714969   6.093   4.958   8.227 -0.8201  0.8825  1.2961
   22MOL   C64814970   5.561   4.879   7.283 -0.0385  0.1576 -0.2368
   22MOL   C64914971   5.678   4.882   7.361  0.2020  0.0976  0.2367
   22MOL   C65014972   5.761   4.995   7.373  0.3984 -0.6542 -0.2197
   22MOL   O65114973   5.876   4.985   7.441  0.6634  0.4156 -1.1424
   22MOL   C65214974   5.718   5.111   7.304 -0.4301  0.3019  0.1256
   22MOL   C65314975   5.596   5.114   7.229 -0.2538 -0.5280  0.2302
   22MOL   C65414976   5.516   4.994   7.217 -0.7358  0.7596  0.3443
   22MOL   C65514977   5.393   4.986   7.140 -0.1117  0.1547 -0.2263
   22MOL   O65614978   5.355   4.881   7.080  0.2257  0.5394 -0.2477
   22MOL   C65714979   5.299   5.099   7.147  0.0253  0.2106  0.8181
   22MOL   C65814980   5.332   5.219   7.083  0.8384  0.0954 -0.1703
   22MOL   C65914981   5.243   5.328   7.103  0.2794  0.5859  0.2259
   22MOL   C66014982   5.123   5.316   7.168  0.5041  0.0200 -0.2830
   22MOL   O66114983   5.038   5.427   7.182  0.2564 -0.0405 -0.1981
   22MOL   C66214984   5.043   5.509   7.291 -0.6376  0.2060 -0.0442
   22MOL   C66314985   4.935   5.513   7.380 -0.3922  0.2641  0.6142
   22MOL   C66414986   4.941   5.599   7.489  0.5384 -0.3937  0.5381
   22MOL   C66514987   5.054   5.677   7.513  0.3413  0.2584  0.8841
   22MOL   C66614988   5.161   5.671   7.425 -0.3879  0.2246 -0.2813
   22MOL   C66714989   5.154   5.591   7.305 -0.0050  0.0368  0.2199
   22MOL   C66814990   5.085   5.185   7.220  0.3669 -0.8194 -0.8804
   22MOL   C66914991   5.182   5.083   7.213 -0.1736 -0.3393 -0.0759
   22MOL   H67014992   5.511   4.783   7.281 -3.7836  1.9892  1.3682
   22MOL   H67114993   5.700   4.790   7.413  0.5638 -1.6837 -2.9368
   22MOL   H67214994   5.773   5.202   7.321  0.5653  0.0171 -1.4578
   22MOL   H67314995   5.574   5.214   7.197  2.7405  0.4274  0.9977
   22MOL   H67414996   5.416   5.243   7.019  1.1853 -0.1042  0.2083
   22MOL   H67514997   5.280   5.423   7.067  2.6091 -0.7857 -1.1616
   22MOL   H67614998   4.857   5.438   7.377 -0.2219  0.1189 -0.2111
   22MOL   H67714999   4.867   5.594   7.568 -2.0105 -0.1056 -1.7807
   22MOL   H67815000   5.243   5.740   7.442  0.2084 -0.5193 -0.1475
   22MOL   H67915001   5.241   5.581   7.242 -1.1665 -1.2668 -1.2128
   22MOL   H68015002   5.002   5.176   7.288  1.6206  1.6732  1.0997
   22MOL   H68115003   5.161   4.988   7.260 -1.0945 -0.4932 -0.7946
   22MOL   H68215004   5.050   5.742   7.600 -0.9721 -1.6211  2.2559
   23MOL     C115005   0.024   0.807   3.401 -0.3547 -0.1544  0.4070
   23MOL     C215006   0.012   0.718   3.296 -0.7397  0.7183 -0.0840
   23MOL     C315007   0.104   0.713   3.186 -0.3484  0.2983  0.1027
   23MOL     O415008   0.097   0.630   3.079 -0.0578  0.1313 -0.3437
   23MOL     C515009   0.217   0.789   3.199  0.0760 -0.8824 -0.0286
   23MOL     C615010   0.235   0.880   3.308 -0.2152  0.1106  0.6880
   23MOL     C715011   0.142   0.886   3.411 -0.3552  0.2459 -0.1269
   23MOL     C815012   0.147   0.988   3.522  0.4457  0.0809  0.6130
   23MOL     O915013   0.078   0.991   3.622 -0.3269 -0.1810  0.5232
   23MOL    C1015014   0.253   1.090   3.499 -0.0947  0.4337 -0.0842
   23MOL    C1115015   0.339   1.121   3.604 -0.3657 -0.2043 -0.9605
   23MOL    C1215016   0.429   1.229   3.594  0.2714 -0.8193 -0.1651
   23MOL    C1315017   0.436   1.307   3.478  0.7600  0.6058 -0.6352
   23MOL    O1415018   0.530   1.408   3.468 -0.6490 -0.1991 -0.1363
   23MOL    C1515019   0.554   1.466   3.348  0.7756 -0.5106 -0.0875
   23MOL    C1615020   0.516   1.603   3.324  0.2240  0.9522  0.5588
   23MOL    C1715021   0.560   1.655   3.201 -0.1318  0.6848  0.0506
   23MOL    C1815022   0.646   1.588   3.111 -0.0010 -0.1880  0.5612
   23MOL    C1915023   0.684   1.459   3.146 -0.2300  0.6321  0.5172
   23MOL    C2015024   0.634   1.398   3.259  0.7702  0.4865  0.0559
   23MOL    C2115025   0.343   1.276   3.374 -0.5958 -0.5254  0.3339
   23MOL    C2215026   0.249   1.171   3.385 -0.2569 -0.4680 -0.1260
   23MOL    H2315027   8.266   0.805   3.483 -0.1516  1.3625  0.6272
   23MOL    H2415028   8.242   0.648   3.297  0.5984 -0.9009 -0.3024
   23MOL    H2515029   0.290   0.787   3.120  0.0762 -2.0119 -0.0061
   23MOL    H2615030   0.323   0.943   3.305 -0.2065  0.0500 -1.7658
   23MOL    H2715031   0.340   1.064   3.695 -0.9139 -0.8057 -1.3316
   23MOL    H2815032   0.492   1.239   3.681  0.4070  0.1796 -0.3716
   23MOL    H2915033   0.449   1.653   3.392 -0.8776 -0.3408  0.4421
   23MOL    H3015034   0.524   1.752   3.171  1.9353  1.7959  1.0757
   23MOL    H3115035   0.759   1.403   3.091 -2.4179 -0.7497 -1.1583
   23MOL    H3215036   0.667   1.300   3.288 -0.4197  0.1806  0.4015
   23MOL    H3315037   0.352   1.333   3.283 -1.2543 -0.4304  0.3280
   23MOL    H3415038   0.170   1.154   3.313 -0.2361  0.1211 -0.2939
   23MOL    H3515039   0.140   0.672   3.007 -1.5752  3.5218  0.6154
   23MOL    C3615040   1.034   1.613   2.931  0.0681  0.3519  0.4200
   23MOL    C3715041   0.920   1.659   2.989 -0.5763  0.3785 -0.6108
   23MOL    C3815042   0.793   1.629   2.934 -0.8075  0.2315 -0.2553
   23MOL    O3915043   0.682   1.660   2.999  0.0602 -0.5535  0.2410
   23MOL    C4015044   0.781   1.557   2.813 -0.1540 -0.0754 -0.0989
   23MOL    C4115045   0.897   1.500   2.758  0.9100 -0.0198 -0.5353
   23MOL    C4215046   1.025   1.525   2.816 -0.7933 -0.2835 -0.8227
   23MOL    C4315047   1.150   1.465   2.770  0.1962 -0.4413 -0.0437
   23MOL    O4415048   1.154   1.347   2.729 -0.5377  0.2663 -0.5227
   23MOL    C4515049   1.271   1.550   2.772 -0.2585 -0.5761 -0.1499
   23MOL    C4615050   1.391   1.489   2.807 -0.2503 -0.6505 -0.5220
   23MOL    C4715051   1.506   1.573   2.817  0.8882 -0.3157  0.2316
   23MOL    C4815052   1.499   1.710   2.793  0.6476  0.3392 -0.3349
   23MOL    O4915053   1.613   1.792   2.798  0.0812  0.1810 -0.4070
   23MOL    C5015054   1.715   1.760   2.879  0.5053 -0.1279  0.1678
   23MOL    C5115055   1.687   1.740   3.013  0.0392 -0.0565 -0.3818
   23MOL    C5215056   1.796   1.710   3.093  0.3034 -0.3396  0.7922
   23MOL    C5315057   1.926   1.694   3.043 -0.7204  0.6581 -0.6170
   23MOL    C5415058   1.953   1.714   2.908  0.1517  0.4593 -0.1050
   23MOL    C5515059   1.846   1.754   2.828  0.6786  0.2582 -1.1878
   23MOL    C5615060   1.377   1.763   2.741  0.4896  0.4173 -0.5746
   23MOL    C5715061   1.260   1.688   2.743 -0.1910  0.0468 -0.2458
   23MOL    H5815062   1.128   1.635   2.979 -0.1606  1.8410  0.2346
   23MOL    H5915063   0.935   1.727   3.071 -0.8978  1.8069 -1.7086
   23MOL    H6015064   0.686   1.527   2.770 -0.7535  2.3463 -0.5372
   23MOL    H6115065   0.885   1.432   2.675 -2.5866 -0.2527  0.1124
   23MOL    H6215066   1.392   1.383   2.826 -1.4931 -0.4103  1.0671
   23MOL    H6315067   1.601   1.529   2.844  2.5127  2.7518 -0.2943
   23MOL    H6415068   1.587   1.735   3.056  0.4534 -0.4182  0.5550
   23MOL    H6515069   1.778   1.712   3.200  2.6794  0.5892  1.2194
   23MOL    H6615070   2.055   1.695   2.877 -1.0297 -2.3036 -2.5021
   23MOL    H6715071   1.860   1.775   2.722 -1.1743  1.8206 -1.1600
   23MOL    H6815072   1.369   1.866   2.709 -3.6624  1.0043  1.9410
   23MOL    H6915073   1.165   1.736   2.727 -1.0692 -0.2289  3.5358
   23MOL    C7015074   2.338   1.481   3.152 -0.6764 -0.3628  0.5447
   23MOL    C7115075   2.251   1.589   3.146 -0.4771  0.3379 -0.0675
   23MOL    C7215076   2.112   1.568   3.128  0.5313  0.9721 -0.1269
   23MOL    O7315077   2.030   1.679   3.134  0.0310 -0.2293  0.2827
   23MOL    C7415078   2.068   1.442   3.092 -0.1224 -0.3764 -0.3459
   23MOL    C7515079   2.155   1.333   3.091 -0.2166 -0.2526  0.0377
   23MOL    C7615080   2.292   1.350   3.122  0.7008  0.0844 -0.1035
   23MOL    C7715081   2.394   1.242   3.106 -0.0086  0.1768  0.4837
   23MOL    O7815082   2.358   1.130   3.126 -0.6123  0.1289 -0.2896
   23MOL    C7915083   2.538   1.276   3.086  0.7763 -0.0058 -0.1701
   23MOL    C8015084   2.631   1.192   3.152  0.0184 -0.4244  0.3162
   23MOL    C8115085   2.771   1.217   3.124  0.7989  0.4489 -0.3108
   23MOL    C8215086   2.810   1.302   3.024  0.0882  0.1575  0.8348
   23MOL    O8315087   2.935   1.317   2.977  0.2103 -0.0633  0.0898
   23MOL    C8415088   2.992   1.438   3.014 -0.0052 -0.3659 -0.7268
   23MOL    C8515089   3.049   1.456   3.141 -0.2591 -0.8700  0.1531
   23MOL    C8615090   3.111   1.580   3.172 -0.2853  0.3132  0.4251
   23MOL    C8715091   3.128   1.678   3.072 -0.0186  0.0855 -0.8224
   23MOL    C8815092   3.072   1.658   2.947  0.3107  0.3125  0.6439
   23MOL    C8915093   3.000   1.538   2.912 -0.2507  0.3203  0.1819
   23MOL    C9015094   2.714   1.375   2.950 -0.3449 -0.7712 -0.2382
   23MOL    C9115095   2.573   1.366   2.984 -0.0954  0.3552  0.2011
   23MOL    H9215096   2.442   1.507   3.164  0.0039 -1.0456 -3.2346
   23MOL    H9315097   2.284   1.689   3.171 -0.7277  0.7913 -1.4908
   23MOL    H9415098   1.961   1.429   3.084 -0.2547 -0.2806  1.0676
   23MOL    H9515099   2.125   1.237   3.052  2.3458 -0.5623 -1.2998
   23MOL    H9615100   2.594   1.125   3.229 -0.2597 -0.6092  0.0225
   23MOL    H9715101   2.846   1.170   3.186 -1.5256  0.2582  2.4986
   23MOL    H9815102   3.036   1.382   3.218  0.2420  0.1196  1.2109
   23MOL    H9915103   3.162   1.588   3.267  0.6944  0.8983 -0.1436
   23MOL   H10015104   3.074   1.742   2.879  3.4242 -1.8325 -2.0870
   23MOL   H10115105   2.961   1.505   2.817 -1.2709  0.8732  0.3935
   23MOL   H10215106   2.738   1.449   2.875 -2.2091  1.1555  1.0090
   23MOL   H10315107   2.511   1.429   2.923 -0.6791 -0.9381 -0.5650
   23MOL   C10415108   3.506   1.827   3.276  0.5721 -0.3378 -0.3439
   23MOL   C10515109   3.418   1.816   3.165  0.2882 -0.7894 -0.6210
   23MOL   C10615110   3.280   1.819   3.193  0.7103  0.6565  0.2552
   23MOL   O10715111   3.185   1.800   3.099  0.1434  0.5263  0.1359
   23MOL   C10815112   3.242   1.849   3.320  0.1087  0.2112  0.4220
   23MOL   C10915113   3.329   1.870   3.426  0.4398  0.5119  0.5136
   23MOL   C11015114   3.464   1.850   3.408 -0.2432  0.0671  0.0976
   23MOL   C11115115   3.576   1.861   3.514 -0.5070  0.3297 -1.0661
   23MOL   O11215116   3.674   1.941   3.508 -1.0419  0.1821 -0.2782
   23MOL   C11315117   3.569   1.764   3.624  0.2400 -0.4418 -0.0533
   23MOL   C11415118   3.642   1.787   3.741  0.1929  0.0338 -0.2078
   23MOL   C11515119   3.625   1.715   3.858 -0.0806  0.3349 -0.0653
   23MOL   C11615120   3.522   1.624   3.868  0.3196  0.0887  0.2818
   23MOL   O11715121   3.481   1.566   3.987 -0.1096 -0.1785  0.5145
   23MOL   C11815122   3.488   1.631   4.102  0.1128  0.1005  0.1067
   23MOL   C11915123   3.591   1.605   4.199  0.0897 -0.5626 -0.0514
   23MOL   C12015124   3.593   1.684   4.316 -0.0561 -0.2672  0.1969
   23MOL   C12115125   3.493   1.781   4.338  0.4281 -1.0549 -1.0112
   23MOL   C12215126   3.383   1.801   4.250  0.0944  0.3993  0.4187
   23MOL   C12315127   3.386   1.728   4.129  0.3408  0.1152  0.4106
   23MOL   C12415128   3.450   1.590   3.747 -0.4834  0.0294 -0.3769
   23MOL   C12515129   3.475   1.660   3.625  1.2839  0.1273  0.4005
   23MOL   H12615130   3.612   1.806   3.264  0.3461 -0.6654 -1.8449
   23MOL   H12715131   3.447   1.789   3.064  1.1854  0.9627 -0.8453
   23MOL   H12815132   3.137   1.856   3.346  0.1032 -1.0051  0.7909
   23MOL   H12915133   3.287   1.892   3.523  2.2637 -0.2837  1.5187
   23MOL   H13015134   3.723   1.857   3.756 -0.3242  0.6448 -0.2556
   23MOL   H13115135   3.679   1.739   3.949  0.0682  1.1938 -0.3777
   23MOL   H13215136   3.675   1.539   4.190  0.5434 -0.2647  1.7717
   23MOL   H13315137   3.667   1.663   4.392 -0.1610  1.2009  0.7174
   23MOL   H13415138   3.300   1.867   4.271 -0.1527  0.8308 -1.7510
   23MOL   H13515139   3.309   1.756   4.059 -0.5681  0.0711  1.3731
   23MOL   H13615140   3.374   1.514   3.755 -0.3877  0.0123  0.3411
   23MOL   H13715141   3.426   1.632   3.533  2.9668  0.6159 -0.6603
   23MOL   C13815142   3.721   2.148   4.513 -0.2801 -0.0703 -0.0842
   23MOL   C13915143   3.645   2.030   4.522  0.1438 -0.1955 -0.2975
   23MOL   C14015144   3.572   1.977   4.419  0.1603 -0.5767  0.0204
   23MOL   O14115145   3.509   1.860   4.448  0.0108  0.1536 -0.1988
   23MOL   C14215146   3.579   2.044   4.295  0.2991  0.2998  0.1763
   23MOL   C14315147   3.662   2.157   4.279  0.3117 -0.2094 -0.7788
   23MOL   C14415148   3.734   2.207   4.389 -0.2034 -0.2745  0.2579
   23MOL   C14515149   3.813   2.331   4.374 -0.3142 -0.6561 -0.6158
   23MOL   O14615150   3.776   2.408   4.282  0.0229 -0.4102  0.6854
   23MOL   C14715151   3.911   2.376   4.478 -0.6709 -0.6924 -0.1783
   23MOL   C14815152   4.026   2.303   4.522  0.8549 -0.1849 -0.6031
   23MOL   C14915153   4.114   2.354   4.620 -0.1021  0.0511  0.2178
   23MOL   C15015154   4.088   2.476   4.684 -0.2393  0.3362  0.1271
   23MOL   O15115155   4.169   2.523   4.786  0.3888 -0.0027  0.7069
   23MOL   C15215156   4.250   2.631   4.757  0.3838  0.4357  0.5054
   23MOL   C15315157   4.221   2.752   4.818  0.3394  0.7976 -0.2662
   23MOL   C15415158   4.296   2.866   4.785 -0.7300  0.1212 -0.3778
   23MOL   C15515159   4.396   2.859   4.694 -0.0268  0.2447  0.0465
   23MOL   C15615160   4.430   2.734   4.624  0.3389 -0.5189 -0.2755
   23MOL   C15715161   4.353   2.623   4.658  0.2102  0.1826 -0.3138
   23MOL   C15815162   3.983   2.556   4.634 -0.2707 -0.1630  0.3588
   23MOL   C15915163   3.893   2.502   4.534 -0.0636  0.3386 -0.1907
   23MOL   H16015164   3.771   2.192   4.598  1.4026 -0.5495 -0.8047
   23MOL   H16115165   3.644   1.973   4.614 -0.4411  0.1428 -0.0901
   23MOL   H16215166   3.529   2.002   4.209 -3.4497  1.2765  1.7767
   23MOL   H16315167   3.674   2.196   4.179 -0.0630 -1.5617 -1.3596
   23MOL   H16415168   4.034   2.206   4.477  0.5734 -0.9398  0.9226
   23MOL   H16515169   4.196   2.300   4.664 -0.7380 -1.7546 -0.7380
   23MOL   H16615170   4.152   2.761   4.900 -0.1373  0.9420 -0.6785
   23MOL   H16715171   4.269   2.953   4.843 -2.4715 -1.7463  1.7205
   23MOL   H16815172   4.506   2.744   4.548 -0.7007 -2.7273 -1.6238
   23MOL   H16915173   4.357   2.524   4.614  1.0205  0.6196 -1.2398
   23MOL   H17015174   3.961   2.656   4.669 -0.4698 -0.3765  0.8537
   23MOL   H17115175   3.814   2.571   4.507  0.1358  0.5543 -0.2284
   23MOL   C17215176   4.436   3.121   4.342  0.0140 -0.0750  0.0487
   23MOL   C17315177   4.477   3.025   4.447 -0.5232  0.1845  0.3742
   23MOL   C17415178   4.440   3.055   4.579 -0.4022  0.1407  0.0205
   23MOL   O17515179   4.479   2.972   4.678  0.3703 -0.0125  0.1731
   23MOL   C17615180   4.373   3.177   4.608 -0.0489  0.8286 -0.2238
   23MOL   C17715181   4.328   3.257   4.501 -0.4308 -0.2954  0.3988
   23MOL   C17815182   4.365   3.239   4.366  0.3388 -0.0768  0.2055
   23MOL   C17915183   4.317   3.326   4.263  0.4536  0.1896 -0.3039
   23MOL   O18015184   4.287   3.283   4.149  0.4006 -0.5902  0.7016
   23MOL   C18115185   4.348   3.470   4.286  0.3011  0.1201 -0.5679
   23MOL   C18215186   4.292   3.563   4.192  0.7244  0.0844  0.5258
   23MOL   C18315187   4.300   3.703   4.207 -0.1095 -0.1764 -0.2508
   23MOL   C18415188   4.370   3.756   4.317  0.2103 -0.0594 -0.7459
   23MOL   O18515189   4.372   3.900   4.340 -0.3236  0.3532  0.3523
   23MOL   C18615190   4.474   3.950   4.412 -0.8556 -0.1364  0.4851
   23MOL   C18715191   4.607   3.969   4.359 -0.1061  0.3006 -0.1896
   23MOL   C18815192   4.712   4.018   4.437 -0.0485  0.4114  0.7427
   23MOL   C18915193   4.697   4.042   4.575 -0.5793  0.1209  0.1698
   23MOL   C19015194   4.571   4.020   4.635 -0.8320  0.9322  1.0999
   23MOL   C19115195   4.461   3.969   4.551  0.5733 -0.4614  0.1212
   23MOL   C19215196   4.440   3.665   4.406  0.3733 -0.0047 -0.0258
   23MOL   C19315197   4.432   3.526   4.388  0.3393 -1.0761  0.0248
   23MOL   H19415198   4.454   3.099   4.238  0.2700 -3.4535  0.7435
   23MOL   H19515199   4.533   2.935   4.426 -1.3800 -0.8960  2.4632
   23MOL   H19615200   4.347   3.202   4.710  1.7058 -1.4945  0.8375
   23MOL   H19715201   4.274   3.349   4.517  0.5205  0.5521 -1.0717
   23MOL   H19815202   4.243   3.518   4.107  0.6842  1.2493 -0.0667
   23MOL   H19915203   4.253   3.766   4.134  1.1335 -0.3009 -1.1739
   23MOL   H20015204   4.617   3.963   4.252  2.0447  0.5954 -0.0164
   23MOL   H20115205   4.811   4.033   4.396 -0.5188 -1.1027 -0.9655
   23MOL   H20215206   4.556   4.041   4.740 -0.9548 -0.2912  1.3319
   23MOL   H20315207   4.360   3.961   4.586  0.1649 -1.2315 -1.1779
   23MOL   H20415208   4.511   3.698   4.480  1.0533 -2.2053  0.3218
   23MOL   H20515209   4.483   3.452   4.448  0.2650 -1.4896 -0.4171
   23MOL   C20615210   4.748   4.407   4.830  0.4457 -0.1128  0.0502
   23MOL   C20715211   4.748   4.316   4.720 -0.4514 -0.5276 -0.1194
   23MOL   C20815212   4.784   4.183   4.752  1.3352 -0.1081 -0.3601
   23MOL   O20915213   4.800   4.093   4.653 -0.4739  0.0333  0.0684
   23MOL   C21015214   4.806   4.138   4.885  0.1748  0.1027 -0.7778
   23MOL   C21115215   4.796   4.239   4.986  0.2189  0.0279  0.3136
   23MOL   C21215216   4.777   4.371   4.960 -0.0940  0.2786  0.5574
   23MOL   C21315217   4.788   4.467   5.080  0.8393  0.2402 -0.1252
   23MOL   O21415218   4.731   4.452   5.189  0.7596  0.2452  0.4982
   23MOL   C21515219   4.886   4.578   5.063  0.0770 -1.3468  0.5901
   23MOL   C21615220   4.994   4.570   4.972 -0.3586  1.3921 -0.2291
   23MOL   C21715221   5.067   4.680   4.949 -0.7836 -0.5108  0.4467
   23MOL   C21815222   5.040   4.808   5.000  0.2868  0.6672 -1.3635
   23MOL   O21915223   5.125   4.916   4.974 -0.4083  0.1360  0.7524
   23MOL   C22015224   5.192   4.921   4.849  0.1339 -0.3252 -0.5366
   23MOL   C22115225   5.335   4.930   4.846  0.4310 -0.5949  0.1636
   23MOL   C22215226   5.403   4.931   4.722  0.9410  0.4459  0.1988
   23MOL   C22315227   5.328   4.936   4.598 -0.0033 -0.5656  0.3904
   23MOL   C22415228   5.187   4.945   4.606  0.5131  0.5505 -0.3118
   23MOL   C22515229   5.118   4.934   4.729  0.8482 -0.6922 -0.9266
   23MOL   C22615230   4.941   4.815   5.100 -0.2159 -0.2868  0.1556
   23MOL   C22715231   4.864   4.698   5.135  0.3755  0.0576  0.5749
   23MOL   H22815232   4.742   4.512   4.805 -1.5067  0.4901  2.7604
   23MOL   H22915233   4.717   4.344   4.621  1.2534  0.9366 -0.2726
   23MOL   H23015234   4.809   4.032   4.905 -2.4183  0.2910  0.8029
   23MOL   H23115235   4.828   4.204   5.083  0.9742  0.6424  0.2885
   23MOL   H23215236   5.013   4.470   4.934 -0.8179  1.6151 -1.0661
   23MOL   H23315237   5.163   4.665   4.901 -0.6512  3.1404 -0.6399
   23MOL   H23415238   5.395   4.922   4.935 -0.8514 -0.0901  1.0865
   23MOL   H23515239   5.511   4.928   4.724  0.9758  1.2782 -0.0366
   23MOL   H23615240   5.118   4.957   4.525 -0.6023 -1.4351  0.2915
   23MOL   H23715241   5.011   4.920   4.734  1.0772 -1.5536  2.0855
   23MOL   H23815242   4.925   4.910   5.149  0.4043  0.9536 -1.9931
   23MOL   H23915243   4.786   4.708   5.209 -1.8331  0.1593 -1.6776
   23MOL   C24015244   5.294   5.145   4.184  0.3019  0.8882  0.8650
   23MOL   C24115245   5.303   5.039   4.276 -0.6386  0.9429 -0.6712
   23MOL   C24215246   5.371   5.053   4.399 -0.7022  0.0094 -0.0389
   23MOL   O24315247   5.390   4.940   4.475  0.2474  0.2481  0.3811
   23MOL   C24415248   5.446   5.170   4.418 -0.4535  0.0979  0.9795
   23MOL   C24515249   5.438   5.278   4.332  0.0408  0.2599 -0.8669
   23MOL   C24615250   5.367   5.267   4.212 -0.2703  0.7342 -0.0755
   23MOL   C24715251   5.351   5.377   4.120  0.1098 -0.1699 -0.6217
   23MOL   O24815252   5.261   5.380   4.040  0.8761  0.5218  0.1427
   23MOL   C24915253   5.446   5.490   4.129  0.6251 -0.1544 -0.2706
   23MOL   C25015254   5.389   5.620   4.140  0.0888  0.2469 -0.0839
   23MOL   C25115255   5.464   5.739   4.133 -0.5486  0.2078  0.1409
   23MOL   C25215256   5.605   5.723   4.117  0.0641  1.0117  0.1140
   23MOL   O25315257   5.675   5.841   4.122 -0.4198  0.4691 -0.0688
   23MOL   C25415258   5.758   5.876   4.018 -0.1911 -0.3687 -0.2445
   23MOL   C25515259   5.709   5.958   3.912  0.4612  0.4010 -0.1050
   23MOL   C25615260   5.795   6.000   3.807 -0.4874 -0.0678 -0.8449
   23MOL   C25715261   5.928   5.951   3.806 -0.4004 -0.9591  0.5474
   23MOL   C25815262   5.972   5.869   3.901 -0.2513  0.1630 -0.8027
   23MOL   C25915263   5.893   5.838   4.013 -0.3791  0.1896 -0.3341
   23MOL   C26015264   5.665   5.597   4.107 -0.2917  0.2591 -0.2619
   23MOL   C26115265   5.586   5.481   4.106  0.0344 -0.5933 -0.4279
   23MOL   H26215266   5.244   5.125   4.091  1.3968 -1.6889  0.8037
   23MOL   H26315267   5.260   4.945   4.245 -2.6792  1.2980  0.9331
   23MOL   H26415268   5.502   5.171   4.510  0.2919 -1.6492  0.5452
   23MOL   H26515269   5.487   5.367   4.367  1.1782  0.4749 -2.9222
   23MOL   H26615270   5.283   5.634   4.153  0.0453 -0.0382 -0.1336
   23MOL   H26715271   5.421   5.838   4.142  1.0023  0.7704  1.7049
   23MOL   H26815272   5.607   5.993   3.914  0.0946 -0.5362 -1.4756
   23MOL   H26915273   5.754   6.062   3.729  0.2653  0.4889 -0.8020
   23MOL   H27015274   6.074   5.835   3.892 -0.5496 -0.3585 -2.3673
   23MOL   H27115275   5.936   5.783   4.096  1.2333  0.7539 -0.7789
   23MOL   H27215276   5.770   5.591   4.082 -0.2812  1.7894 -0.5981
   23MOL   H27315277   5.627   5.381   4.096 -1.0136 -1.1222  0.4210
   23MOL   C27415278   6.276   6.231   3.680  0.6001 -0.7338 -0.4218
   23MOL   C27515279   6.207   6.109   3.681  0.0243  0.4007  0.4508
   23MOL   C27615280   6.070   6.108   3.709 -0.8903  0.0156  0.4181
   23MOL   O27715281   6.005   5.984   3.701 -0.2050  0.0033 -0.0330
   23MOL   C27815282   6.002   6.228   3.727  0.5835  0.0541 -0.0701
   23MOL   C27915283   6.064   6.351   3.712  0.1872  0.0702  0.4940
   23MOL   C28015284   6.205   6.358   3.693 -0.1860 -0.3687  0.3001
   23MOL   C28115285   6.281   6.486   3.677 -0.0005 -0.4610 -0.4180
   23MOL   O28215286   6.389   6.504   3.722  0.2229 -0.3440  0.4910
   23MOL   C28315287   6.213   6.597   3.616 -0.4380  0.5812 -0.3478
   23MOL   C28415288   6.227   6.729   3.668 -0.2885  0.0474  0.1636
   23MOL   C28515289   6.154   6.836   3.605  0.2162  0.5216 -0.3466
   23MOL   C28615290   6.093   6.812   3.483 -0.0994  0.2317 -0.2894
   23MOL   O28715291   6.056   6.925   3.413 -0.2958  0.2331 -0.0152
   23MOL   C28815292   5.998   6.920   3.287 -0.0834 -0.3148  0.2698
   23MOL   C28915293   6.064   6.980   3.179  0.1839 -0.8098  0.2849
   23MOL   C29015294   6.010   6.986   3.052 -0.7545  0.4697 -0.2631
   23MOL   C29115295   5.883   6.933   3.026 -0.7147 -0.3215  0.5177
   23MOL   C29215296   5.818   6.857   3.128 -0.0609  0.3429  0.0382
   23MOL   C29315297   5.878   6.852   3.257 -0.1989  0.4708 -0.5194
   23MOL   C29415298   6.086   6.684   3.429  0.1714 -0.7301  1.2887
   23MOL   C29515299   6.155   6.579   3.488 -0.6506  0.0949 -0.5799
   23MOL   H29615300   6.384   6.235   3.676  0.7502 -1.2778  2.0526
   23MOL   H29715301   6.262   6.017   3.673  0.6045  0.8305 -0.7342
   23MOL   H29815302   5.896   6.228   3.745  0.2668 -0.1082 -1.8291
   23MOL   H29915303   6.016   6.446   3.732 -0.4383 -0.2810  0.6766
   23MOL   H30015304   6.291   6.740   3.754 -0.5185  0.2089  0.3143
   23MOL   H30115305   6.161   6.936   3.645  1.8170 -0.2436  1.4020
   23MOL   H30215306   6.163   7.020   3.196 -0.4418  1.8333 -1.8879
   23MOL   H30315307   6.072   7.040   2.982  0.1333 -0.7714 -0.4684
   23MOL   H30415308   5.715   6.826   3.116 -0.8850  2.8795  0.1862
   23MOL   H30515309   5.817   6.806   3.333  0.0573  0.2765 -0.4325
   23MOL   H30615310   6.033   6.663   3.337 -0.1855  0.7547  1.1424
   23MOL   H30715311   6.140   6.481   3.447 -2.4257  0.0175  0.2098
   23MOL   C30815312   5.825   7.295   2.818 -0.0288 -0.1222  0.1792
   23MOL   C30915313   5.798   7.165   2.872 -0.7689 -0.5386  0.4869
   23MOL   C31015314   5.867   7.055   2.828 -0.8538  0.5957  0.1934
   23MOL   O31115315   5.839   6.936   2.895  0.3415  0.0904  0.4233
   23MOL   C31215316   5.963   7.072   2.724  0.6266 -0.0394  0.6459
   23MOL   C31315317   5.982   7.195   2.665 -0.1228 -0.7137  0.1775
   23MOL   C31415318   5.914   7.309   2.710  0.4752  0.2666 -0.5718
   23MOL   C31515319   5.939   7.443   2.652  0.3389  0.4594 -0.0447
   23MOL   O31615320   5.898   7.543   2.713 -0.5285 -0.0847  0.3245
   23MOL   C31715321   6.009   7.449   2.514 -0.1759  0.4675  0.0259
   23MOL   C31815322   5.989   7.359   2.407  0.0022 -0.2608 -0.2774
   23MOL   C31915323   6.077   7.380   2.300  0.2740 -0.4554  0.1487
   23MOL   C32015324   6.172   7.486   2.294 -0.2202  0.0111 -0.1320
   23MOL   O32115325   6.249   7.497   2.182 -0.4767 -0.8121 -0.0261
   23MOL   C32215326   6.240   7.616   2.115 -0.2346 -0.4206 -0.4912
   23MOL   C32315327   6.120   7.702   2.110 -0.0618  0.1668 -0.3027
   23MOL   C32415328   6.124   7.825   2.044 -0.0782  0.1554  0.3746
   23MOL   C32515329   6.240   7.879   1.981 -0.4149 -0.2061 -0.2266
   23MOL   C32615330   6.354   7.794   1.985  0.4034  0.5271  0.2128
   23MOL   C32715331   6.355   7.672   2.055 -0.7053 -0.0286 -0.2447
   23MOL   C32815332   6.184   7.573   2.400  0.5223 -0.2939  1.1252
   23MOL   C32915333   6.106   7.548   2.511 -0.3098 -0.1840  0.2801
   23MOL   H33015334   5.766   7.377   2.857  3.0100  1.8997  0.7593
   23MOL   H33115335   5.730   7.149   2.955 -1.5995 -0.1173 -0.1008
   23MOL   H33215336   6.021   6.984   2.700 -1.3403 -1.3297  0.4838
   23MOL   H33315337   6.058   7.196   2.588 -0.3091 -0.8337 -0.0075
   23MOL   H33415338   5.923   7.276   2.424 -1.0571  0.9448  1.7351
   23MOL   H33515339   6.074   7.316   2.213  1.1041  0.2544 -0.4084
   23MOL   H33615340   6.024   7.669   2.145 -0.3742  0.8073 -0.5650
   23MOL   H33715341   6.033   7.881   2.058 -0.1753  0.6790 -2.0177
   23MOL   H33815342   6.439   7.825   1.927 -0.4180  1.5010 -0.4907
   23MOL   H33915343   6.442   7.609   2.050 -1.9991 -1.8884  0.3051
   23MOL   H34015344   6.256   7.653   2.395  0.9519 -0.8114 -1.9143
   23MOL   H34115345   6.125   7.619   2.591  0.0075  0.3312 -0.2470
   23MOL   C34215346   5.938   8.069   1.720  0.0594  0.0713 -0.1632
   23MOL   C34315347   6.057   8.004   1.760 -0.0156 -0.1243 -0.3638
   23MOL   C34415348   6.131   8.059   1.874 -0.8117  0.2050  0.4071
   23MOL   O34515349   6.247   7.997   1.911  0.2946 -0.1718  0.0812
   23MOL   C34615350   6.080   8.161   1.951  0.8868  0.4471 -0.7163
   23MOL   C34715351   5.961   8.230   1.903 -0.2048 -0.3763 -0.0350
   23MOL   C34815352   5.898   8.181   1.787 -0.3531 -0.0956 -0.4788
   23MOL   C34915353   5.790   8.260   1.740  0.3279 -0.3296 -0.0357
   23MOL   O35015354   5.814   0.064   1.700 -0.0027  0.2879 -0.4780
   23MOL   C35115355   5.646   8.195   1.739 -0.3206 -0.2861 -0.3532
   23MOL   C35215356   5.620   8.082   1.818  0.3550 -0.0398  0.3053
   23MOL   C35315357   5.496   8.021   1.804 -0.3147  0.0104 -0.4114
   23MOL   C35415358   5.394   8.073   1.721  0.2922 -0.0626  0.2108
   23MOL   O35515359   5.276   8.007   1.721  0.0238 -0.1580 -0.0241
   23MOL   C35615360   5.279   7.872   1.711  0.0619 -0.0168 -0.2403
   23MOL   C35715361   5.246   7.791   1.823 -0.2153 -0.0950 -0.3959
   23MOL   C35815362   5.234   7.652   1.811 -0.3756 -0.0118  0.8793
   23MOL   C35915363   5.268   7.597   1.683 -0.0885 -0.2646 -0.6433
   23MOL   C36015364   5.301   7.677   1.577 -0.3449  0.0925  0.6901
   23MOL   C36115365   5.301   7.813   1.586 -0.7833 -0.0657  0.6087
   23MOL   C36215366   5.423   8.196   1.646 -0.6782  0.2379  0.8070
   23MOL   C36315367   5.555   8.248   1.645 -0.1428 -0.3097 -1.3167
   23MOL   H36415368   5.877   8.031   1.640  0.1761 -1.1034  0.2926
   23MOL   H36515369   6.084   7.920   1.697 -4.1282 -1.3409 -0.6666
   23MOL   H36615370   6.117   8.197   2.046 -1.5746 -0.7103  0.7322
   23MOL   H36715371   5.933   0.003   1.962  0.4008 -0.1822 -0.0208
   23MOL   H36815372   5.698   8.047   1.884  1.4417 -0.8913 -1.3877
   23MOL   H36915373   5.475   7.940   1.873  1.8809 -0.3934 -0.1811
   23MOL   H37015374   5.227   7.841   1.917  0.2260 -0.8699  0.1024
   23MOL   H37115375   5.199   7.587   1.890  0.4533 -2.5940 -0.8024
   23MOL   H37215376   5.328   7.635   1.482  0.2747  1.4135  0.2731
   23MOL   H37315377   5.310   7.871   1.495 -1.0399 -0.4180  0.3607
   23MOL   H37415378   5.351   8.245   1.583  0.6248  0.8814 -0.2134
   23MOL   H37515379   5.585   0.023   1.590  2.4706  0.3618  1.0843
   23MOL   C37615380   5.606   7.323   1.695 -0.4614  0.0208 -0.2939
   23MOL   C37715381   5.492   7.392   1.656 -0.1033 -0.2292  0.3940
   23MOL   C37815382   5.364   7.379   1.718  0.0262 -0.9529 -0.4013
   23MOL   O37915383   5.257   7.458   1.672 -0.0601  1.0402 -0.0169
   23MOL   C38015384   5.352   7.292   1.826 -0.4868 -0.1457 -0.0814
   23MOL   C38115385   5.456   7.214   1.870  0.9332  0.0874 -0.2568
   23MOL   C38215386   5.586   7.234   1.809  0.4834 -0.3240  0.1500
   23MOL   C38315387   5.702   7.155   1.874  0.2159 -0.1534 -0.2578
   23MOL   O38415388   5.671   7.076   1.969  0.3294  0.3735  0.2773
   23MOL   C38515389   5.844   7.177   1.834 -0.7716  0.4730  0.0568
   23MOL   C38615390   5.938   7.202   1.938 -0.0399  0.7497 -0.3431
   23MOL   C38715391   6.077   7.209   1.909 -0.2827 -0.1039  0.6848
   23MOL   C38815392   6.125   7.183   1.781  0.1004 -0.4038 -0.1661
   23MOL   O38915393   6.252   7.173   1.753 -0.0233 -0.4574 -0.3456
   23MOL   C39015394   6.324   7.284   1.711 -0.8053  0.1136 -0.5572
   23MOL   C39115395   6.405   7.273   1.600 -0.2782 -0.5791 -0.4368
   23MOL   C39215396   6.469   7.385   1.553 -0.0455 -0.4730 -0.3927
   23MOL   C39315397   6.450   7.509   1.615 -0.8840 -0.5773 -0.1878
   23MOL   C39415398   6.364   7.523   1.723  0.0700 -0.4700  0.5673
   23MOL   C39515399   6.306   7.405   1.771  0.0422  0.2268 -0.2104
   23MOL   C39615400   6.030   7.162   1.677 -0.4095 -0.7171  0.0897
   23MOL   C39715401   5.896   7.153   1.703  0.1479 -0.1685  0.1731
   23MOL   H39815402   5.701   7.346   1.649  0.1064  2.3648  1.9223
   23MOL   H39915403   5.494   7.452   1.566  0.8809  1.5963  1.5852
   23MOL   H40015404   5.262   7.283   1.885 -0.7261 -0.6196 -0.5218
   23MOL   H40115405   5.438   7.151   1.955 -2.9852  0.7594 -0.4789
   23MOL   H40215406   5.897   7.203   2.038  0.8701  1.2413  0.0358
   23MOL   H40315407   6.149   7.232   1.986 -0.3801 -0.2700  0.8285
   23MOL   H40415408   6.400   7.176   1.554  0.2220 -1.1078  0.5851
   23MOL   H40515409   6.529   7.389   1.463 -1.3521  2.4186 -1.2245
   23MOL   H40615410   6.352   7.620   1.768 -0.6118 -0.1704 -0.2579
   23MOL   H40715411   6.262   7.400   1.870  1.0642  3.2697  0.4571
   23MOL   H40815412   6.072   7.145   1.579 -1.3795  2.6517 -0.9860
   23MOL   H40915413   5.844   7.118   1.615  2.8781 -0.4821 -1.3680
   23MOL   C41015414   6.800   7.822   1.687 -0.2041 -0.0207  0.0672
   23MOL   C41115415   6.669   7.791   1.643 -0.6405 -0.5515  0.2632
   23MOL   C41215416   6.634   7.657   1.609  0.3271  0.8309 -0.0923
   23MOL   O41315417   6.508   7.620   1.563  0.6603 -0.2921  0.0820
   23MOL   C41415418   6.737   7.562   1.606  0.1834 -0.3783  0.1297
   23MOL   C41515419   6.865   7.595   1.643 -0.1795  0.3592 -0.2885
   23MOL   C41615420   6.904   7.727   1.684  0.1868 -0.3445 -0.1089
   23MOL   C41715421   7.042   7.749   1.735 -0.3132  0.4221 -0.5005
   23MOL   O41815422   7.121   7.655   1.759  0.6393  0.0054  0.2258
   23MOL   C41915423   7.074   7.892   1.777 -0.8452 -0.3581 -0.2780
   23MOL   C42015424   7.110   7.987   1.678 -0.1644 -0.9097 -0.6279
   23MOL   C42115425   7.154   8.113   1.724  0.5514  0.3224  0.3124
   23MOL   C42215426   7.156   8.145   1.853 -0.0249  0.1986 -0.1490
   23MOL   O42315427   7.203   8.267   1.886  0.0650  0.4263 -0.1345
   23MOL   C42415428   7.109   0.044   1.924 -0.1161 -0.4078 -0.3606
   23MOL   C42515429   6.991   0.052   1.850  0.4386 -0.3568  0.0837
   23MOL   C42615430   6.894   0.146   1.889  0.4180 -0.6564 -0.1970
   23MOL   C42715431   6.911   0.236   1.995 -0.1795 -0.9947 -0.3050
   23MOL   C42815432   7.033   0.232   2.068  0.1208  0.8550  1.1217
   23MOL   C42915433   7.132   0.137   2.030  0.0771  0.0861  0.2140
   23MOL   C43015434   7.131   8.053   1.957 -0.2540  0.3864 -0.3541
   23MOL   C43115435   7.083   7.926   1.917  0.5002  0.5038 -0.2739
   23MOL   H43215436   6.821   7.923   1.719  0.3668  1.0067 -3.2862
   23MOL   H43315437   6.592   7.867   1.647 -0.0915  0.0639 -0.6405
   23MOL   H43415438   6.718   7.459   1.581  1.7075  0.0002 -2.8860
   23MOL   H43515439   6.945   7.523   1.639  0.9178  1.4551  1.2306
   23MOL   H43615440   7.128   7.948   1.579  0.8375 -3.6102  0.5732
   23MOL   H43715441   7.175   8.175   1.638 -0.3747 -1.1612 -1.0133
   23MOL   H43815442   6.964   8.306   1.763  0.4498  0.4942 -0.5022
   23MOL   H43915443   6.798   0.148   1.838  0.0734 -1.0313  0.4293
   23MOL   H44015444   7.053   0.290   2.156 -0.5968 -1.1762  2.6637
   23MOL   H44115445   7.215   0.120   2.097 -1.2244 -0.8993  1.6143
   23MOL   H44215446   7.148   8.068   2.063  1.1007  0.1297 -0.5286
   23MOL   H44315447   7.059   7.856   1.995  0.2909 -1.5554 -2.1278
   23MOL   C44415448   6.463   0.230   2.047 -0.4538 -0.3915 -0.3752
   23MOL   C44515449   6.578   0.288   2.001 -0.6302 -0.2078  0.2597
   23MOL   C44615450   6.697   0.278   2.075  0.2159  0.2845 -0.3846
   23MOL   O44715451   6.814   0.331   2.027  0.1774 -0.1615 -0.3583
   23MOL   C44815452   6.702   0.222   2.205  0.5933 -0.7800  0.0770
   23MOL   C44915453   6.585   0.164   2.257  0.2439 -0.2231 -0.3180
   23MOL   C45015454   6.465   0.170   2.177  1.5731  0.1517 -0.3071
   23MOL   C45115455   6.335   0.122   2.234 -0.0174 -0.4182 -0.2251
   23MOL   O45215456   6.274   0.022   2.197  0.1774  0.7963  0.1633
   23MOL   C45315457   6.287   0.200   2.348 -0.0746 -0.1236  0.4220
   23MOL   C45415458   6.342   0.331   2.383 -0.0945  0.4424  0.5254
   23MOL   C45515459   6.301   0.405   2.501 -0.2307 -0.7416  0.6327
   23MOL   C45615460   6.193   0.350   2.577  0.4179 -0.3631  0.4395
   23MOL   O45715461   6.149   0.410   2.695 -0.6304 -0.1174 -0.3781
   23MOL   C45815462   6.087   0.537   2.695 -1.2731 -0.2594  0.4538
   23MOL   C45915463   6.147   0.652   2.750  0.7862  0.9698  0.0266
   23MOL   C46015464   6.082   0.779   2.759 -0.1138 -0.1670 -0.0245
   23MOL   C46115465   5.950   0.787   2.710  0.7578 -0.2754 -0.5418
   23MOL   C46215466   5.894   0.669   2.653 -0.0842 -0.0995  0.7305
   23MOL   C46315467   5.955   0.545   2.647 -0.2548  0.2933 -0.6922
   23MOL   C46415468   6.135   0.226   2.532  0.2624 -0.3188  0.6939
   23MOL   C46515469   6.181   0.156   2.421  0.5538  0.4833  0.0686
   23MOL   H46615470   6.371   0.247   1.993 -0.8618 -0.2136  0.3689
   23MOL   H46715471   6.585   0.343   1.908  2.4215  1.3996  1.3794
   23MOL   H46815472   6.790   0.211   2.267  0.6613 -0.1173  0.1007
   23MOL   H46915473   6.591   0.130   2.359 -2.7642 -1.8803 -0.6370
   23MOL   H47015474   6.416   0.370   2.315 -1.4695  0.1225 -1.1820
   23MOL   H47115475   6.349   0.491   2.546  0.0089 -0.3802 -0.2876
   23MOL   H47215476   6.248   0.632   2.783  0.7170  0.5721  0.0005
   23MOL   H47315477   6.130   0.873   2.781 -1.5054  0.7038 -0.5964
   23MOL   H47415478   5.796   0.668   2.609  0.2184  1.4875 -0.0106
   23MOL   H47515479   5.915   0.456   2.600  3.5963 -1.8457 -0.1519
   23MOL   H47615480   6.064   0.172   2.592  0.6174  0.3538  1.7151
   23MOL   H47715481   6.133   0.059   2.412  1.3997  0.2294 -2.0006
   23MOL   C47815482   5.994   1.148   2.466 -0.0208  0.3677 -0.6435
   23MOL   C47915483   5.952   1.023   2.523 -0.7224  0.6497 -0.3654
   23MOL   C48015484   5.928   1.015   2.661 -0.2541  0.0367 -0.0568
   23MOL   O48115485   5.874   0.903   2.716  0.6284 -0.1734 -0.4455
   23MOL   C48215486   5.948   1.124   2.747  0.8108  0.2002  0.6809
   23MOL   C48315487   6.004   1.237   2.688 -0.1703 -0.6001  0.1952
   23MOL   C48415488   6.027   1.250   2.554 -1.1377 -0.9443  0.1736
   23MOL   C48515489   6.079   1.380   2.489  0.2611 -0.7755 -0.0956
   23MOL   O48615490   6.175   1.384   2.415  0.2391 -0.0080 -0.5917
   23MOL   C48715491   6.026   1.508   2.557  0.1388 -0.4242  0.1504
   23MOL   C48815492   5.895   1.515   2.611 -0.0070 -0.1531  0.0783
   23MOL   C48915493   5.846   1.638   2.673  0.2960  0.4005 -0.0760
   23MOL   C49015494   5.934   1.752   2.671  0.0472 -0.1721  0.6543
   23MOL   O49115495   5.896   1.867   2.732  0.0021  0.5675 -0.2384
   23MOL   C49215496   5.769   1.917   2.716  0.1124 -0.0791  0.0705
   23MOL   C49315497   5.692   1.958   2.826 -0.8039 -0.8622  0.6182
   23MOL   C49415498   5.558   2.009   2.812 -0.4575 -0.4454  0.0789
   23MOL   C49515499   5.505   2.041   2.684  0.1780  0.0381  0.0027
   23MOL   C49615500   5.582   2.010   2.572  0.8155  0.2363 -1.0118
   23MOL   C49715501   5.714   1.954   2.588 -0.1671  0.5215  0.0351
   23MOL   C49815502   6.064   1.744   2.618 -0.3301 -0.7098  0.0488
   23MOL   C49915503   6.115   1.620   2.571  0.1292 -0.0845  0.1676
   23MOL   H50015504   5.988   1.158   2.359  0.1691  0.1169 -0.6771
   23MOL   H50115505   5.919   0.943   2.458 -0.8536 -0.0094  0.4958
   23MOL   H50215506   5.923   1.138   2.851  1.2130  1.1396  0.6646
   23MOL   H50315507   6.009   1.327   2.747 -2.6674 -0.8192  0.8111
   23MOL   H50415508   5.825   1.434   2.594 -0.9229  0.1348  2.2994
   23MOL   H50515509   5.742   1.658   2.694  0.5051 -1.4309  2.9876
   23MOL   H50615510   5.731   1.943   2.925  2.1312 -0.2945 -0.3953
   23MOL   H50715511   5.505   2.050   2.897  0.1395  1.1424 -0.3019
   23MOL   H50815512   5.555   2.035   2.470 -1.1218 -1.6909 -1.0208
   23MOL   H50915513   5.770   1.935   2.498 -0.7582  0.1878 -0.2670
   23MOL   H51015514   6.139   1.821   2.615 -0.6079 -0.4023  0.7724
   23MOL   H51115515   6.221   1.611   2.552  0.0067 -0.6028 -0.2878
   23MOL   C51215516   5.120   1.871   2.581  0.9518 -0.4593  0.6477
   23MOL   C51315517   5.249   1.926   2.599 -0.4015  0.3169  0.3643
   23MOL   C51415518   5.264   2.045   2.664  0.0342 -0.1172 -0.1022
   23MOL   O51515519   5.384   2.108   2.685 -0.3997  0.2220  0.2001
   23MOL   C51615520   5.157   2.123   2.702  0.5225 -0.0017  0.1944
   23MOL   C51715521   5.024   2.075   2.674 -0.3147  0.0201 -0.1918
   23MOL   C51815522   5.008   1.946   2.623 -0.3575 -0.1825 -0.1736
   23MOL   C51915523   4.866   1.909   2.585  0.7279 -0.0310 -0.4107
   23MOL   O52015524   4.779   1.995   2.571 -0.6336  0.3051  0.1976
   23MOL   C52115525   4.836   1.760   2.565 -0.3857  0.3582  0.6400
   23MOL   C52215526   4.756   1.720   2.457  0.1706 -0.4192 -0.5024
   23MOL   C52315527   4.704   1.587   2.452 -0.1976  0.0196 -0.3345
   23MOL   C52415528   4.734   1.488   2.551 -0.2773 -0.3561 -0.1597
   23MOL   O52515529   4.681   1.366   2.547  0.1084 -0.1738  0.1583
   23MOL   C52615530   4.669   1.309   2.425 -0.5824  0.3101  0.1205
   23MOL   C52715531   4.777   1.253   2.353  0.5284  0.2171  0.0075
   23MOL   C52815532   4.757   1.194   2.225  0.3899  0.7102  0.0051
   23MOL   C52915533   4.630   1.186   2.175 -0.2610 -0.3249  0.0714
   23MOL   C53015534   4.520   1.240   2.245 -0.0242  0.9459  0.1659
   23MOL   C53115535   4.542   1.301   2.372 -0.4863  0.1621  0.0285
   23MOL   C53215536   4.823   1.531   2.651 -0.0540  0.0881  0.0315
   23MOL   C53315537   4.872   1.665   2.660 -0.4041 -0.1070  0.8621
   23MOL   H53415538   5.113   1.776   2.530 -0.3536 -0.3487  0.5978
   23MOL   H53515539   5.333   1.868   2.563 -0.2310  0.8247 -0.0733
   23MOL   H53615540   5.166   2.219   2.751 -2.3530 -0.5351  1.9209
   23MOL   H53715541   4.937   2.139   2.679 -0.9655 -0.9786  1.9045
   23MOL   H53815542   4.724   1.787   2.380 -2.6886 -1.3834 -0.2253
   23MOL   H53915543   4.637   1.573   2.368 -1.5934  0.6041  0.6594
   23MOL   H54015544   4.881   1.263   2.381 -0.0186  1.1052  1.8445
   23MOL   H54115545   4.843   1.153   2.175 -0.4554 -2.0936  0.8092
   23MOL   H54215546   4.425   1.228   2.195  0.5953  1.1084 -1.0774
   23MOL   H54315547   4.459   1.337   2.431  0.8553 -0.1417  2.1528
   23MOL   H54415548   4.853   1.461   2.727 -0.3229  0.1717  0.2141
   23MOL   H54515549   4.933   1.692   2.745 -1.3691  0.1713  1.4878
   23MOL   C54615550   4.684   0.811   1.898 -0.1671 -0.0420  0.2026
   23MOL   C54715551   4.696   0.948   1.949 -0.5866  0.1039 -0.1548
   23MOL   C54815552   4.592   1.012   2.026  0.7678  0.3758  0.1981
   23MOL   O54915553   4.604   1.147   2.048  0.9044  0.3243  0.3904
   23MOL   C55015554   4.483   0.936   2.068  0.0631 -0.3238  0.2132
   23MOL   C55115555   4.468   0.805   2.018  0.6459  0.0263 -1.0078
   23MOL   C55215556   4.563   0.745   1.937 -0.0228 -0.2700  0.4472
   23MOL   C55315557   4.538   0.610   1.884 -0.0685  0.5661 -0.1513
   23MOL   O55415558   4.628   0.529   1.872 -0.5732  0.3368 -0.0540
   23MOL   C55515559   4.392   0.560   1.866 -0.1373  0.6068 -0.0297
   23MOL   C55615560   4.355   0.431   1.894  0.1272  0.1684  0.0214
   23MOL   C55715561   4.226   0.388   1.854 -1.1669  0.2037 -0.1026
   23MOL   C55815562   4.138   0.472   1.790  0.1228  0.4257  0.5942
   23MOL   O55915563   4.015   0.422   1.749  0.4257 -0.4019 -0.5676
   23MOL   C56015564   4.008   0.334   1.646  0.4058 -0.0905 -0.2390
   23MOL   C56115565   3.932   0.218   1.667 -0.0252 -0.1947 -0.3296
   23MOL   C56215566   3.931   0.116   1.573  0.0667  0.4783 -0.3085
   23MOL   C56315567   4.001   0.130   1.452  0.0875  0.1212  0.2129
   23MOL   C56415568   4.084   0.242   1.433 -0.0097 -0.3802  0.3931
   23MOL   C56515569   4.096   0.343   1.533  0.3249 -0.3328 -0.1293
   23MOL   C56615570   4.169   0.606   1.774  0.6874  0.4726  0.1988
   23MOL   C56715571   4.298   0.648   1.813 -0.3420  0.2570 -0.0417
   23MOL   H56815572   4.760   0.759   1.842 -0.7761 -2.1974  1.3419
   23MOL   H56915573   4.783   0.999   1.912 -0.2033  0.3392  1.0576
   23MOL   H57015574   4.397   0.980   2.116 -0.4468 -0.2578 -0.7361
   23MOL   H57115575   4.375   0.754   2.040  0.7863  0.6624  1.1874
   23MOL   H57215576   4.421   0.362   1.946 -0.8029 -0.0350  0.9526
   23MOL   H57315577   4.191   0.287   1.866 -0.1070 -0.1267  0.2198
   23MOL   H57415578   3.879   0.198   1.759  1.4972  0.8219  0.7938
   23MOL   H57515579   3.875   0.024   1.581  1.6093 -0.2583  2.9207
   23MOL   H57615580   4.137   0.258   1.340  1.0799  0.6469  1.1679
   23MOL   H57715581   4.163   0.429   1.534  1.9532 -1.5679  1.0508
   23MOL   H57815582   4.096   0.667   1.722  0.2433  0.3642  0.6978
   23MOL   H57915583   4.318   0.745   1.769  1.8440 -0.0442  0.2574
   23MOL   C58015584   3.980   0.043   0.997  0.0083 -0.3054 -0.8653
   23MOL   C58115585   4.018   0.005   1.123 -0.3591  0.4221 -0.1587
   23MOL   C58215586   3.956   0.064   1.234  0.1596 -0.1853  0.7411
   23MOL   O58315587   3.986   0.030   1.361  0.6659  0.3060  0.1257
   23MOL   C58415588   3.847   0.147   1.211 -0.7260  0.1523 -0.2236
   23MOL   C58515589   3.814   0.190   1.082  0.3487  0.1667 -0.2975
   23MOL   C58615590   3.881   0.142   0.974 -0.1424  0.4458  0.2440
   23MOL   C58715591   3.816   0.167   0.837 -0.1418 -0.0909  0.0015
   23MOL   O58815592   3.791   0.069   0.764  0.7414 -0.1544  0.4008
   23MOL   C58915593   3.793   0.309   0.799 -0.7663  0.9671  0.2540
   23MOL   C59015594   3.720   0.341   0.684  0.4745 -0.7092 -0.3458
   23MOL   C59115595   3.712   0.480   0.637 -0.3085  0.2454 -0.3653
   23MOL   C59215596   3.791   0.581   0.700 -0.2122  0.1088  0.2327
   23MOL   O59315597   3.799   0.701   0.635  0.0225 -0.6483 -0.1622
   23MOL   C59415598   3.750   0.804   0.704 -0.6782 -0.5998 -0.0680
   23MOL   C59515599   3.610   0.818   0.718 -0.6054  0.0173  0.1574
   23MOL   C59615600   3.559   0.941   0.778  0.0825 -0.4447  0.2907
   23MOL   C59715601   3.643   1.046   0.823 -0.5833 -0.1161  0.4586
   23MOL   C59815602   3.780   1.031   0.798  0.2521  0.5555  0.1811
   23MOL   C59915603   3.832   0.907   0.757  0.2574  0.2972 -0.1617
   23MOL   C60015604   3.854   0.551   0.823  0.4947  0.2854  0.0384
   23MOL   C60115605   3.853   0.415   0.867  0.1819  0.1143 -0.4643
   23MOL   H60215606   4.020   0.003   0.905  0.5727 -2.3939  0.2584
   23MOL   H60315607   4.094   8.240   1.131 -0.0119  0.3187 -3.6186
   23MOL   H60415608   3.793   0.182   1.298 -0.6003 -0.9190  0.2974
   23MOL   H60515609   3.729   0.255   1.066 -0.1829  0.0472  1.8108
   23MOL   H60615610   3.659   0.272   0.628 -0.4046  0.7093 -1.1549
   23MOL   H60715611   3.658   0.492   0.545  0.5650 -0.1569 -0.9328
   23MOL   H60815612   3.544   0.742   0.679  0.8762 -0.4669 -1.4863
   23MOL   H60915613   3.453   0.958   0.795  0.5908  1.7923  1.4454
   23MOL   H61015614   3.846   1.112   0.826  0.0221  0.7022  0.2968
   23MOL   H61115615   3.939   0.900   0.747  0.3946 -1.0660  2.0206
   23MOL   H61215616   3.889   0.628   0.890  0.4348 -1.5742  2.2970
   23MOL   H61315617   3.905   0.397   0.960 -1.5357 -0.5179  0.3988
   23MOL   C61415618   3.508   1.092   1.252 -0.3740 -0.5470  0.2682
   23MOL   C61515619   3.494   1.110   1.113  0.4629 -0.2392  0.1200
   23MOL   C61615620   3.607   1.149   1.030  0.4969  0.0914  0.2660
   23MOL   O61715621   3.600   1.156   0.891  0.2688  0.4794  0.5058
   23MOL   C61815622   3.724   1.187   1.087  0.8105  0.1574 -0.4843
   23MOL   C61915623   3.733   1.181   1.228  0.0756 -0.1500 -0.1506
   23MOL   C62015624   3.631   1.130   1.309  0.1633 -1.1887  0.5057
   23MOL   C62115625   3.655   1.127   1.455  0.8672 -0.7704 -0.1361
   23MOL   O62215626   3.759   1.177   1.507  0.0951  0.1044  0.5255
   23MOL   C62315627   3.555   1.070   1.543 -0.6321 -0.4197  0.3648
   23MOL   C62415628   3.503   1.143   1.652  0.3591  0.4719  0.3224
   23MOL   C62515629   3.389   1.098   1.720 -0.1598 -0.3873 -0.8922
   23MOL   C62615630   3.335   0.978   1.689  0.3983  0.5421 -0.1432
   23MOL   O62715631   3.230   0.928   1.758 -0.0173 -0.2570  0.2752
   23MOL   C62815632   3.104   0.967   1.715 -0.0272  0.2823 -0.0928
   23MOL   C62915633   3.069   1.070   1.619 -0.4684 -0.4568 -0.2044
   23MOL   C63015634   2.939   1.092   1.575  0.9137 -0.3177 -0.5175
   23MOL   C63115635   2.828   1.020   1.633  0.3465 -0.6338 -0.7017
   23MOL   C63215636   2.859   0.914   1.725  0.5630 -0.3521 -0.4356
   23MOL   C63315637   2.997   0.888   1.754  0.1964 -0.1179 -0.2107
   23MOL   C63415638   3.394   0.896   1.588  0.3518 -0.1120 -0.4661
   23MOL   C63515639   3.504   0.944   1.518  0.3363  0.7882  0.4864
   23MOL   H63615640   3.416   1.065   1.302 -0.8942 -0.5995 -0.6971
   23MOL   H63715641   3.400   1.089   1.064 -1.1285 -0.3694  3.0937
   23MOL   H63815642   3.814   1.220   1.038 -0.1142  0.3278 -2.0845
   23MOL   H63915643   3.827   1.212   1.272 -0.3729  1.8735 -0.5461
   23MOL   H64015644   3.538   1.245   1.664 -0.3083  0.6491  0.8019
   23MOL   H64115645   3.329   1.156   1.789 -0.8108  0.2714 -2.0107
   23MOL   H64215646   3.156   1.122   1.583 -0.2538 -0.6193  0.0775
   23MOL   H64315647   2.916   1.175   1.509 -0.6828  0.6960  1.2292
   23MOL   H64415648   2.773   0.871   1.775 -0.0811  1.6446  0.2223
   23MOL   H64515649   3.016   0.813   1.829  1.1862  0.2843 -0.0498
   23MOL   H64615650   3.352   0.797   1.573 -2.1377  0.9885 -0.8765
   23MOL   H64715651   3.543   0.886   1.435 -2.8839  0.4073 -0.8474
   23MOL   C64815652   2.724   0.947   1.225  0.0112 -0.0848  1.0032
   23MOL   C64915653   2.730   0.937   1.369 -0.7421  0.0367 -0.1675
   23MOL   C65015654   2.673   1.035   1.452 -0.6207 -0.4340 -0.4596
   23MOL   O65115655   2.702   1.045   1.585  0.2218 -0.0784 -0.3718
   23MOL   C65215656   2.603   1.140   1.392 -0.2842  0.1711 -0.8094
   23MOL   C65315657   2.574   1.136   1.253  0.5120  0.8820  0.6614
   23MOL   C65415658   2.637   1.041   1.172  0.2500  0.0510  1.0662
   23MOL   C65515659   2.606   1.044   1.021  0.4444 -0.4757  0.2475
   23MOL   O65615660   2.538   1.133   0.970 -0.0126  0.3575 -0.4544
   23MOL   C65715661   2.664   0.935   0.936 -0.3624  0.2050 -0.0860
   23MOL   C65815662   2.638   0.799   0.974  0.6974  0.0717  0.7575
   23MOL   C65915663   2.691   0.693   0.898  0.8461  0.1852  0.0738
   23MOL   C66015664   2.776   0.722   0.792 -0.7711  0.1655 -0.1649
   23MOL   O66115665   2.826   0.618   0.717  0.0511  0.0916 -0.2720
   23MOL   C66215666   2.767   0.594   0.598 -0.2897 -0.0467  0.0035
   23MOL   C66315667   2.629   0.584   0.574 -0.2032  0.7150  0.2999
   23MOL   C66415668   2.584   0.576   0.439  0.7376 -0.2500 -0.3648
   23MOL   C66515669   2.676   0.576   0.331 -0.2121  0.1440 -0.1694
   23MOL   C66615670   2.816   0.568   0.357 -0.1004  0.2146 -0.1332
   23MOL   C66715671   2.855   0.586   0.487 -0.8400 -0.1550  0.1243
   23MOL   C66815672   2.824   0.851   0.762  0.2649  0.0794  0.1015
   23MOL   C66915673   2.753   0.956   0.824  0.1115  0.1340 -0.5806
   23MOL   H67015674   2.782   0.877   1.166 -0.9303  0.4667 -0.5897
   23MOL   H67115675   2.782   0.851   1.408 -0.3837  0.9356  1.3799
   23MOL   H67215676   2.566   1.215   1.461 -0.3450 -1.4507  0.9599
   23MOL   H67315677   2.516   1.213   1.204 -1.5502 -0.9398  0.1648
   23MOL   H67415678   2.573   0.777   1.057  1.3377  0.0267  1.2420
   23MOL   H67515679   2.665   0.592   0.925 -0.9278  0.6149  0.0568
   23MOL   H67615680   2.575   0.605   0.665 -0.6524  1.3052 -0.1031
   23MOL   H67715681   2.479   0.576   0.416  0.8696  2.4030 -1.1480
   23MOL   H67815682   2.881   0.571   0.271  1.7575 -0.7799  1.2017
   23MOL   H67915683   2.961   0.609   0.483 -0.9915  0.3722 -1.1995
   23MOL   H68015684   2.894   0.865   0.681 -0.1620 -0.7775 -0.4198
   23MOL   H68115685   2.780   1.059   0.806  2.6337 -0.0402  1.8072
   23MOL   H68215686   2.640   0.554   0.232 -0.5350  0.1795 -0.0578
   24MOL     C115687   1.400   3.661   3.913 -0.1141 -0.4891 -0.4065
   24MOL     C215688   1.294   3.602   3.836  0.5660 -0.1549  0.5001
   24MOL     C315689   1.314   3.510   3.730  0.4183 -0.7374  0.8846
   24MOL     O415690   1.213   3.457   3.663  0.0148  0.0646 -0.2367
   24MOL     C515691   1.450   3.479   3.689 -0.4536 -0.0105 -0.7359
   24MOL     C615692   1.553   3.540   3.758 -0.2839  0.6708 -0.2392
   24MOL     C715693   1.531   3.631   3.864 -0.3876  0.2539 -0.1500
   24MOL     C815694   1.647   3.689   3.937 -0.0159  0.5464 -0.1603
   24MOL     O915695   1.664   3.815   3.935  0.2428  0.2280 -0.3155
   24MOL    C1015696   1.739   3.593   4.012  0.1417  0.4115  0.5455
   24MOL    C1115697   1.705   3.455   4.021  0.0036  0.1515  0.0189
   24MOL    C1215698   1.784   3.369   4.100  0.3896 -0.2928 -0.0897
   24MOL    C1315699   1.904   3.411   4.155 -0.3487  0.0394  0.0100
   24MOL    O1415700   1.991   3.325   4.221 -0.2031  0.8287  0.4252
   24MOL    C1515701   1.946   3.211   4.284 -0.8240  0.3840  0.2245
   24MOL    C1615702   1.929   3.092   4.206  0.1258 -0.0559  0.4949
   24MOL    C1715703   1.901   2.975   4.266 -0.3229  0.6424 -0.0407
   24MOL    C1815704   1.878   2.967   4.404 -0.0426  0.2234 -0.1903
   24MOL    C1915705   1.894   3.081   4.479  0.0023  0.2647  0.5509
   24MOL    C2015706   1.923   3.203   4.417 -0.1733 -0.0444  0.0553
   24MOL    C2115707   1.939   3.545   4.142  0.2045 -0.5445  0.6818
   24MOL    C2215708   1.852   3.637   4.075 -0.5868 -0.1291  0.1501
   24MOL    H2315709   1.382   3.732   3.993  0.2764 -0.1258 -0.6341
   24MOL    H2415710   1.196   3.631   3.870 -0.5400 -0.2737 -2.4862
   24MOL    H2515711   1.459   3.413   3.604  1.1265 -0.1865 -0.4413
   24MOL    H2615712   1.657   3.515   3.741 -0.0719  0.5821  1.0925
   24MOL    H2715713   1.616   3.420   3.972 -0.3223  0.0304  0.6879
   24MOL    H2815714   1.746   3.268   4.109  1.7075 -0.8405 -0.5625
   24MOL    H2915715   1.940   3.109   4.100  0.0186 -0.7521  0.3707
   24MOL    H3015716   1.895   2.884   4.207  0.7636  0.8669 -0.5124
   24MOL    H3115717   1.871   3.085   4.584 -0.5138 -0.9130  0.4930
   24MOL    H3215718   1.916   3.297   4.469 -2.1195 -0.1984  0.0844
   24MOL    H3315719   2.026   3.593   4.185 -2.1414  1.4378  3.4400
   24MOL    H3415720   1.880   3.742   4.074  1.4488 -0.6726 -1.0918
   24MOL    H3515721   1.130   3.473   3.705  0.6935 -0.4495  1.3318
   24MOL    C3615722   1.486   2.763   4.469  1.0289  0.5871 -0.6580
   24MOL    C3715723   1.604   2.832   4.497  0.1948  0.4952 -0.3573
   24MOL    C3815724   1.718   2.798   4.427 -1.0025 -0.7438 -0.4382
   24MOL    O3915725   1.839   2.846   4.461 -0.0388 -0.4320 -0.0228
   24MOL    C4015726   1.718   2.690   4.336 -0.1179  0.5738  0.0849
   24MOL    C4115727   1.603   2.610   4.323  0.1026  0.1480 -0.0100
   24MOL    C4215728   1.482   2.643   4.388 -0.1287  0.1111 -0.5198
   24MOL    C4315729   1.363   2.556   4.380  0.3263 -0.1172  0.1760
   24MOL    O4415730   1.336   2.472   4.462 -0.3003 -0.2711 -0.2017
   24MOL    C4515731   1.282   2.567   4.251  0.1931 -0.0989 -0.2680
   24MOL    C4615732   1.220   2.444   4.211  0.0796 -0.1540 -0.0050
   24MOL    C4715733   1.147   2.437   4.087 -0.3178 -0.4879 -0.3436
   24MOL    C4815734   1.131   2.556   4.013  0.3031 -0.7361 -0.4390
   24MOL    O4915735   1.054   2.545   3.900  0.1441  0.0429 -0.7026
   24MOL    C5015736   0.935   2.615   3.906  0.3108  0.1504 -0.8962
   24MOL    C5115737   0.831   2.595   4.002 -0.4689 -0.5587  0.0942
   24MOL    C5215738   0.713   2.680   3.998 -0.7223  0.3251 -0.5835
   24MOL    C5315739   0.685   2.763   3.887  0.2737  0.1447  0.3636
   24MOL    C5415740   0.783   2.776   3.793 -0.1976 -0.2401  0.5925
   24MOL    C5515741   0.904   2.698   3.797 -0.1560  0.1588  0.6924
   24MOL    C5615742   1.184   2.683   4.054 -0.1415  0.1128  1.0046
   24MOL    C5715743   1.262   2.683   4.174 -0.6074  0.4532 -0.1713
   24MOL    H5815744   1.391   2.802   4.503  1.1945  0.6084 -0.2250
   24MOL    H5915745   1.594   2.910   4.571  1.3073 -0.2628  0.6175
   24MOL    H6015746   1.814   2.660   4.298 -1.2115 -2.3813 -0.5140
   24MOL    H6115747   1.596   2.515   4.271 -0.1120 -0.4107  1.0377
   24MOL    H6215748   1.257   2.351   4.251  0.0775 -0.5723 -0.9693
   24MOL    H6315749   1.119   2.344   4.041 -0.5659  0.0972 -1.3955
   24MOL    H6415750   0.833   2.523   4.083  1.1517 -0.7225 -0.0766
   24MOL    H6515751   0.639   2.679   4.077 -0.3486  2.1277 -0.1750
   24MOL    H6615752   0.777   2.835   3.702 -0.7036  1.2972  1.6016
   24MOL    H6715753   0.980   2.705   3.721  0.7970 -1.7618  1.4210
   24MOL    H6815754   1.156   2.777   4.008  3.7493  1.2915  0.9169
   24MOL    H6915755   1.308   2.770   4.218  1.6484 -1.0184  0.4994
   24MOL    C7015756   0.590   3.145   3.688  0.5114  0.1341 -0.2288
   24MOL    C7115757   0.616   3.046   3.786  0.1107 -0.1688 -0.8153
   24MOL    C7215758   0.544   2.921   3.783  0.1959 -0.2678 -0.2498
   24MOL    O7315759   0.565   2.822   3.876  0.5356  0.1415 -0.1762
   24MOL    C7415760   0.457   2.900   3.675 -0.5900 -0.4807 -0.0016
   24MOL    C7515761   0.439   2.991   3.570 -0.6615 -0.0855  0.0912
   24MOL    C7615762   0.503   3.118   3.578 -0.1094 -0.1777  0.1947
   24MOL    C7715763   0.500   3.220   3.470 -0.8900  0.0476 -0.1234
   24MOL    O7815764   0.604   3.288   3.444  0.6786 -0.2456 -0.3405
   24MOL    C7915765   0.369   3.234   3.402 -0.3127 -0.0952  1.2365
   24MOL    C8015766   0.375   3.257   3.263 -1.3712  0.0479 -0.5052
   24MOL    C8115767   0.260   3.240   3.182  0.0650  0.2353  0.2253
   24MOL    C8215768   0.140   3.231   3.251 -0.1509 -0.3705  0.4859
   24MOL    O8315769   0.034   3.229   3.164 -0.5643  0.7579 -0.7039
   24MOL    C8415770   8.227   3.180   3.204  0.5596 -0.4604 -0.2555
   24MOL    C8515771   8.123   3.273   3.244 -0.6109  0.3901 -0.6384
   24MOL    C8615772   8.006   3.220   3.301  0.6280 -0.3423 -0.0691
   24MOL    C8715773   7.980   3.084   3.308 -0.0194 -0.2829 -0.4382
   24MOL    C8815774   8.077   2.999   3.264 -0.6569 -0.5304 -0.3900
   24MOL    C8915775   8.197   3.045   3.208  0.1935  0.4829 -0.6334
   24MOL    C9015776   0.132   3.225   3.393 -0.9132 -0.6729  0.5210
   24MOL    C9115777   0.249   3.217   3.464  0.2186  0.2738  0.1835
   24MOL    H9215778   0.631   3.244   3.683  1.3203 -0.2827 -2.9140
   24MOL    H9315779   0.690   3.059   3.863 -0.2661 -0.6100 -0.3714
   24MOL    H9415780   0.401   2.808   3.666  1.8513 -1.9240 -1.2861
   24MOL    H9515781   0.383   2.953   3.485  1.6888 -1.0816 -1.0728
   24MOL    H9615782   0.473   3.275   3.223 -2.1250  2.1616 -1.4625
   24MOL    H9715783   0.260   3.247   3.074 -0.5557  1.4572  0.2963
   24MOL    H9815784   8.139   3.380   3.239 -1.2116  0.3956 -3.9034
   24MOL    H9915785   7.937   3.296   3.334  0.4225  0.3425 -1.9751
   24MOL   H10015786   8.056   2.893   3.270 -0.5868 -0.4420  1.9880
   24MOL   H10115787   8.270   2.973   3.171  0.8770  0.7784  0.1384
   24MOL   H10215788   0.037   3.219   3.443 -0.9567  1.1304  0.6867
   24MOL   H10315789   0.235   3.196   3.569  0.7580 -1.5413 -0.0877
   24MOL   C10415790   7.668   2.765   3.221  0.1606  0.1146  1.0002
   24MOL   C10515791   7.745   2.884   3.232 -1.2943 -0.1494 -0.1393
   24MOL   C10615792   7.807   2.913   3.354 -0.5360 -0.1740 -0.7083
   24MOL   O10715793   7.866   3.042   3.370  0.3305  0.1012 -0.0042
   24MOL   C10815794   7.817   2.821   3.452  0.1978 -0.5570  0.5631
   24MOL   C10915795   7.751   2.694   3.437  0.0859 -0.3451 -0.0873
   24MOL   C11015796   7.670   2.669   3.324  0.4219  0.7933 -0.4147
   24MOL   C11115797   7.602   2.537   3.316  0.1468 -0.2452  0.1699
   24MOL   O11215798   7.644   2.435   3.378  0.6880 -0.2545 -0.1903
   24MOL   C11315799   7.471   2.521   3.234  0.2678  0.0522 -0.0026
   24MOL   C11415800   7.436   2.389   3.195 -0.1645 -0.0897 -0.9504
   24MOL   C11515801   7.305   2.368   3.136  0.1341 -0.5813 -0.5156
   24MOL   C11615802   7.224   2.476   3.104 -0.2382  0.0857  0.1848
   24MOL   O11715803   7.101   2.459   3.035 -0.1326  0.1642 -0.1792
   24MOL   C11815804   6.989   2.495   3.106 -0.1475 -0.3084  0.0549
   24MOL   C11915805   6.958   2.433   3.230 -0.5133 -0.2194  0.2020
   24MOL   C12015806   6.845   2.456   3.305  0.4328  0.0064 -0.5054
   24MOL   C12115807   6.753   2.551   3.256  0.6519 -0.2509 -0.2002
   24MOL   C12215808   6.780   2.618   3.132  0.0905  0.5023  0.2469
   24MOL   C12315809   6.893   2.584   3.054 -0.7838  0.8337  0.1621
   24MOL   C12415810   7.267   2.600   3.137 -0.1496 -0.4757 -0.6437
   24MOL   C12515811   7.389   2.629   3.199  0.0595 -0.4951 -0.1232
   24MOL   H12615812   7.625   2.754   3.122  0.1847 -0.5039  1.0553
   24MOL   H12715813   7.750   2.969   3.166  0.4530  0.0378  0.2000
   24MOL   H12815814   7.869   2.835   3.546  0.3263 -0.8371  0.5347
   24MOL   H12915815   7.762   2.626   3.520  0.0267  0.7040  0.7993
   24MOL   H13015816   7.501   2.304   3.216 -0.6583  0.0330  1.2022
   24MOL   H13115817   7.270   2.269   3.111  0.4922  0.0301 -3.5877
   24MOL   H13215818   7.026   2.359   3.271  0.0415 -0.2493 -0.7576
   24MOL   H13315819   6.843   2.403   3.399  1.2958 -0.8627 -0.9679
   24MOL   H13415820   6.709   2.693   3.103  0.0779  1.2798  2.1944
   24MOL   H13515821   6.895   2.634   2.959 -0.8513 -0.0649 -0.3196
   24MOL   H13615822   7.200   2.680   3.109 -0.4940 -0.4817  0.1584
   24MOL   H13715823   7.421   2.729   3.226 -0.8663  0.2176 -1.6427
   24MOL   C13815824   6.733   2.764   3.627  0.3784  0.0399 -0.1348
   24MOL   C13915825   6.714   2.734   3.497  0.6933 -0.1837  0.5927
   24MOL   C14015826   6.656   2.610   3.461 -0.1714 -0.7498  0.4567
   24MOL   O14115827   6.639   2.582   3.330  0.4703  0.1771 -0.1389
   24MOL   C14215828   6.606   2.531   3.563  0.7636  0.5171 -0.1366
   24MOL   C14315829   6.598   2.575   3.698 -0.7645 -0.4455 -0.3280
   24MOL   C14415830   6.682   2.683   3.729 -0.2672  0.6857  0.1178
   24MOL   C14515831   6.715   2.716   3.871 -0.3435 -0.3380 -0.6058
   24MOL   O14615832   6.644   2.670   3.956  0.5818  0.7045  0.1561
   24MOL   C14715833   6.823   2.819   3.902 -0.3369 -0.6430  0.3940
   24MOL   C14815834   6.963   2.803   3.863  0.2631 -0.1662  0.5832
   24MOL   C14915835   7.064   2.887   3.905  0.1092  0.0814 -0.1982
   24MOL   C15015836   7.030   3.005   3.978 -0.3187 -0.0487 -0.4638
   24MOL   O15115837   7.120   3.102   4.003 -0.2911  0.2202 -0.1603
   24MOL   C15215838   7.189   3.156   3.899  0.0960  0.6845  0.2328
   24MOL   C15315839   7.329   3.158   3.894 -0.1856  0.5174  0.1897
   24MOL   C15415840   7.407   3.212   3.785 -0.0443 -0.8454 -0.1491
   24MOL   C15515841   7.342   3.262   3.674  0.5689  0.3436  0.5964
   24MOL   C15615842   7.200   3.258   3.676  0.0615 -0.5643  0.1783
   24MOL   C15715843   7.125   3.216   3.788  0.1521 -0.1906  1.2444
   24MOL   C15815844   6.896   3.021   4.020  0.2379  0.2302 -0.8828
   24MOL   C15915845   6.788   2.934   3.976  0.0196  0.4534 -0.7301
   24MOL   H16015846   6.786   2.854   3.655  1.3551 -0.0067 -1.7103
   24MOL   H16115847   6.752   2.796   3.417  0.7406  0.0736  0.8135
   24MOL   H16215848   6.551   2.441   3.538 -2.4139  2.2125  0.4901
   24MOL   H16315849   6.563   2.508   3.775 -1.1508 -1.8506 -1.7074
   24MOL   H16415850   7.001   2.710   3.823  1.8664  0.1253  1.3919
   24MOL   H16515851   7.165   2.865   3.875 -0.2060 -1.3059 -0.2764
   24MOL   H16615852   7.380   3.107   3.974  0.6087 -1.4201 -1.5232
   24MOL   H16715853   7.515   3.210   3.790 -0.0080  0.0188 -0.4449
   24MOL   H16815854   7.145   3.297   3.591 -0.3362 -3.3355 -0.8738
   24MOL   H16915855   7.017   3.219   3.782  0.2575  0.1351 -1.6605
   24MOL   H17015856   6.880   3.110   4.080 -0.4767 -0.9266  0.6837
   24MOL   H17115857   6.692   2.954   4.021 -1.3319  1.6319 -4.0589
   24MOL   C17215858   7.385   3.085   3.272  0.0815 -0.7520  0.9132
   24MOL   C17315859   7.429   3.132   3.393 -0.1170  0.2060 -0.2227
   24MOL   C17415860   7.376   3.253   3.441  0.4115  0.5190 -0.6575
   24MOL   O17515861   7.412   3.306   3.562  0.0685  0.1063 -0.4626
   24MOL   C17615862   7.282   3.326   3.366 -0.0870 -0.5368 -0.2932
   24MOL   C17715863   7.230   3.275   3.248  0.2948  0.0831 -1.1381
   24MOL   C17815864   7.288   3.154   3.195 -0.0885 -0.4123 -0.6579
   24MOL   C17915865   7.232   3.095   3.071  0.4731 -0.1017  0.0088
   24MOL   O18015866   7.111   3.126   3.041 -1.0002 -0.0962  0.7345
   24MOL   C18115867   7.321   2.998   2.986 -0.2780 -0.1591  0.6047
   24MOL   C18215868   7.266   2.878   2.935 -0.3649 -0.4078 -0.7382
   24MOL   C18315869   7.350   2.784   2.865  0.0555  0.2813 -0.7825
   24MOL   C18415870   7.483   2.821   2.839  0.7076  0.1341 -0.0944
   24MOL   O18515871   7.562   2.741   2.770 -0.4885  0.7017  0.1020
   24MOL   C18615872   7.526   2.696   2.647 -1.1503  0.0945 -0.1171
   24MOL   C18715873   7.525   2.557   2.617  0.2593 -0.5047  0.2517
   24MOL   C18815874   7.504   2.515   2.480 -0.5917  0.4561  0.9932
   24MOL   C18915875   7.471   2.609   2.379 -1.0811 -0.5281  0.1127
   24MOL   C19015876   7.473   2.751   2.415 -0.6267  0.0382 -0.4279
   24MOL   C19115877   7.509   2.792   2.544 -0.0630 -0.2013 -0.0139
   24MOL   C19215878   7.538   2.944   2.892  0.2370 -0.4170  0.2256
   24MOL   C19315879   7.454   3.042   2.950 -0.5894 -0.0957  0.6408
   24MOL   H19415880   7.436   2.998   3.234 -1.1279 -0.9489 -0.2687
   24MOL   H19515881   7.498   3.074   3.453  1.6638  1.1019 -1.3588
   24MOL   H19615882   7.237   3.413   3.413  0.9027 -0.0932 -0.1423
   24MOL   H19715883   7.149   3.333   3.205 -2.5812 -3.1133 -0.1946
   24MOL   H19815884   7.168   2.842   2.963 -0.2397  0.4017  0.8102
   24MOL   H19915885   7.329   2.681   2.838  2.1550 -0.1411 -0.8997
   24MOL   H20015886   7.546   2.492   2.701 -0.9350  1.0891  1.8406
   24MOL   H20115887   7.496   2.409   2.463 -1.2354  0.2955  2.1884
   24MOL   H20215888   7.456   2.828   2.342  3.7536  0.7619 -0.8109
   24MOL   H20315889   7.507   2.897   2.569 -0.8813 -0.3336  0.5068
   24MOL   H20415890   7.643   2.962   2.878 -0.1644  1.8876 -0.0870
   24MOL   H20515891   7.481   3.143   2.977  0.0574 -0.1138  0.0665
   24MOL   C20615892   7.616   2.613   1.935 -0.2234  0.4198 -0.0695
   24MOL   C20715893   7.517   2.618   2.042 -0.2898 -0.1284  0.4744
   24MOL   C20815894   7.533   2.548   2.163 -0.1554  0.2613 -0.0549
   24MOL   O20915895   7.436   2.572   2.257  0.2404 -0.1355  0.6947
   24MOL   C21015896   7.651   2.476   2.178 -0.1457 -0.2554 -0.0451
   24MOL   C21115897   7.740   2.466   2.072 -0.6538  0.0476 -0.3059
   24MOL   C21215898   7.730   2.529   1.947 -0.0951  0.0876  0.0038
   24MOL   C21315899   7.820   2.502   1.840  0.2287  0.8623  0.0290
   24MOL   O21415900   7.941   2.519   1.853  0.1371  0.6198  0.6769
   24MOL   C21515901   7.764   2.462   1.708 -0.3006 -0.2018 -0.2440
   24MOL   C21615902   7.847   2.456   1.595  0.0206 -0.2117 -0.6624
   24MOL   C21715903   7.788   2.415   1.470  0.4961 -0.0638 -0.3207
   24MOL   C21815904   7.649   2.402   1.453 -0.1452  0.2364 -0.7492
   24MOL   O21915905   7.591   2.388   1.330  0.1919  0.2443 -0.1078
   24MOL   C22015906   7.550   2.260   1.295 -0.6248  0.7607  0.7098
   24MOL   C22115907   7.411   2.232   1.281 -0.1457 -0.1531 -0.3481
   24MOL   C22215908   7.368   2.100   1.260  0.1463  0.5149 -0.4134
   24MOL   C22315909   7.457   1.998   1.236  0.0918  0.2827 -0.4151
   24MOL   C22415910   7.591   2.027   1.251  0.4838 -0.1703  0.5230
   24MOL   C22515911   7.641   2.155   1.284 -0.2117  0.0973 -0.6828
   24MOL   C22615912   7.567   2.400   1.567 -0.5362  0.5561  0.4928
   24MOL   C22715913   7.626   2.422   1.692 -0.1630 -0.0663 -0.5214
   24MOL   H22815914   7.611   2.661   1.839 -1.8337  0.2151 -0.1138
   24MOL   H22915915   7.437   2.689   2.031  0.8528  0.7822 -2.6109
   24MOL   H23015916   7.672   2.421   2.269 -1.6597 -0.7579  0.0100
   24MOL   H23115917   7.825   2.402   2.092 -0.0093  1.1654  0.6531
   24MOL   H23215918   7.953   2.474   1.608 -0.1111 -0.2560  0.5836
   24MOL   H23315919   7.858   2.414   1.387 -1.0838  0.9350 -1.7049
   24MOL   H23415920   7.333   2.306   1.289  0.1708  0.2122 -0.6391
   24MOL   H23515921   7.263   2.080   1.250  0.1725  0.3903 -0.4487
   24MOL   H23615922   7.653   1.949   1.211  0.4961  0.6752 -1.1559
   24MOL   H23715923   7.747   2.177   1.288 -0.6914  2.4449  0.3008
   24MOL   H23815924   7.462   2.375   1.564 -0.2720 -1.0233  3.1670
   24MOL   H23915925   7.558   2.416   1.776  1.8397 -2.6946  0.9910
   24MOL   C24015926   7.146   1.913   0.948 -0.2180  0.1068 -0.2094
   24MOL   C24115927   7.276   1.926   1.012  0.8684  0.1661  0.0124
   24MOL   C24215928   7.301   1.850   1.127 -0.3958 -0.2007  0.7429
   24MOL   O24315929   7.415   1.868   1.200 -0.9897  0.4644  0.5621
   24MOL   C24415930   7.200   1.761   1.180 -0.1760  0.2695 -0.0620
   24MOL   C24515931   7.078   1.747   1.116  0.5235  0.3072  0.1731
   24MOL   C24615932   7.049   1.822   1.000 -0.0058  0.2106  0.0266
   24MOL   C24715933   6.909   1.811   0.946 -0.8624 -0.3231  0.1427
   24MOL   O24815934   6.819   1.777   1.021 -0.0652  0.1920  0.3222
   24MOL   C24915935   6.880   1.848   0.802 -0.0467  0.1318 -0.7229
   24MOL   C25015936   6.747   1.884   0.765  0.8287  0.5983  0.0065
   24MOL   C25115937   6.720   1.924   0.635  0.2769  0.6915 -0.2107
   24MOL   C25215938   6.817   1.927   0.530 -0.9225 -0.4792 -0.4099
   24MOL   O25315939   6.796   1.965   0.399 -0.1648  0.1152 -0.2515
   24MOL   C25415940   6.791   2.100   0.369  0.4836  0.5604 -0.2470
   24MOL   C25515941   6.684   2.159   0.301 -0.0784 -1.1629 -0.0321
   24MOL   C25615942   6.672   2.298   0.298 -0.6398  0.3988  0.5245
   24MOL   C25715943   6.766   2.385   0.354  0.3731 -0.1586 -0.7757
   24MOL   C25815944   6.879   2.327   0.408  0.3259 -0.6677  0.0394
   24MOL   C25915945   6.890   2.187   0.423 -0.7117 -0.4263  0.0944
   24MOL   C26015946   6.947   1.883   0.570 -0.1453  0.0185  0.8253
   24MOL   C26115947   6.978   1.840   0.694 -0.3668 -0.1126  0.2273
   24MOL   H26215948   7.128   1.972   0.860 -0.6378  0.1345 -0.1039
   24MOL   H26315949   7.337   1.998   0.961 -0.5131  0.4277 -1.3173
   24MOL   H26415950   7.212   1.704   1.270  1.2134  1.0474  0.2460
   24MOL   H26515951   7.005   1.685   1.166  0.4679  1.0951  1.0814
   24MOL   H26615952   6.672   1.875   0.843  0.5334  0.7985 -0.2532
   24MOL   H26715953   6.616   1.947   0.616 -0.0591 -0.4304  0.2771
   24MOL   H26815954   6.603   2.101   0.258 -0.1825 -1.6282  0.7788
   24MOL   H26915955   6.596   2.349   0.243  1.3825  0.5717 -2.2067
   24MOL   H27015956   6.960   2.387   0.446  0.9390 -0.7103 -1.1965
   24MOL   H27115957   6.979   2.145   0.468  0.5605 -0.0404 -1.9850
   24MOL   H27215958   7.022   1.870   0.493 -1.4505 -0.0947 -0.4609
   24MOL   H27315959   7.074   1.795   0.710  0.7195  2.5355  1.5233
   24MOL   C27415960   6.951   2.790   0.232 -0.2064 -0.3771 -0.5729
   24MOL   C27515961   6.881   2.703   0.317  0.0788 -0.0708 -0.0283
   24MOL   C27615962   6.806   2.592   0.265 -0.1996  0.0048  0.1372
   24MOL   O27715963   6.740   2.513   0.349 -0.1227  0.0287 -0.2896
   24MOL   C27815964   6.809   2.563   0.127  1.1909  0.2538 -0.1845
   24MOL   C27915965   6.884   2.648   0.048 -0.2733 -0.6237  0.2384
   24MOL   C28015966   6.960   2.758   0.095  0.1438  0.2848  0.1538
   24MOL   C28115967   7.040   2.834   0.004 -0.6880 -0.7408  0.0450
   24MOL   O28215968   7.034   2.956   0.011  0.1261  0.5071 -0.4125
   24MOL   C28315969   7.126   2.763   8.219 -0.0259  0.5631 -0.6064
   24MOL   C28415970   7.165   2.627   8.230  0.9883 -0.3468 -0.4023
   24MOL   C28515971   7.254   2.572   8.140  0.6240  0.5834 -0.3580
   24MOL   C28615972   7.286   2.637   8.024  0.1289 -0.1843 -0.3276
   24MOL   O28715973   7.374   2.585   7.934  0.2900 -0.1019 -0.3541
   24MOL   C28815974   7.342   2.460   7.889  0.2546  0.1930 -0.2445
   24MOL   C28915975   7.427   2.353   7.922  0.8240 -0.6856 -0.7243
   24MOL   C29015976   7.409   2.224   7.869 -0.2494  0.6664  0.5613
   24MOL   C29115977   7.296   2.203   7.789  0.4192 -0.6305  0.2352
   24MOL   C29215978   7.204   2.308   7.761 -0.6675  0.3464  0.6949
   24MOL   C29315979   7.229   2.438   7.807 -0.6477  0.0741 -0.0871
   24MOL   C29415980   7.252   2.771   8.012  0.1799  0.0135 -1.3270
   24MOL   C29515981   7.173   2.830   8.112  0.7883 -0.4705 -0.0134
   24MOL   H29615982   7.005   2.872   0.277  0.3485 -1.2263  0.3113
   24MOL   H29715983   6.885   2.729   0.422  2.7553 -1.1572  0.1862
   24MOL   H29815984   6.755   2.479   0.088 -0.9395  1.7310 -0.4899
   24MOL   H29915985   6.872   2.623   8.256  0.1398  1.2172 -0.2634
   24MOL   H30015986   7.139   2.575   0.009  2.7700  2.4609  1.7917
   24MOL   H30115987   7.297   2.477   8.166 -0.2511 -0.0923 -1.3439
   24MOL   H30215988   7.508   2.368   7.992 -0.0620  1.6723 -0.1456
   24MOL   H30315989   7.477   2.142   7.887 -0.3095  0.5586  0.3083
   24MOL   H30415990   7.115   2.288   7.703 -0.6381  0.9088  0.4521
   24MOL   H30515991   7.164   2.520   7.782 -2.4045 -1.6876 -1.4305
   24MOL   H30615992   7.286   2.831   7.929  0.3354  0.7810 -0.7111
   24MOL   H30715993   7.148   2.935   8.109  0.8674 -0.4446  0.2084
   24MOL   C30815994   7.546   1.929   7.554  0.0272  0.1320  0.2899
   24MOL   C30915995   7.437   2.014   7.586 -0.6425 -0.2035  0.5738
   24MOL   C31015996   7.371   1.991   7.709  0.4266 -0.2504  0.0004
   24MOL   O31115997   7.266   2.070   7.746 -0.5503  0.2160  0.0337
   24MOL   C31215998   7.416   1.885   7.798 -0.4578 -0.3540  0.0113
   24MOL   C31315999   7.525   1.804   7.769  0.7525 -0.1703  0.2728
   24MOL   C31416000   7.594   1.829   7.647  0.6896 -0.3072  0.0091
   24MOL   C31516001   7.714   1.759   7.607  0.3457 -0.1590  0.3360
   24MOL   O31616002   7.821   1.769   7.666  0.4394 -0.1745 -0.4677
   24MOL   C31716003   7.694   1.666   7.490  0.0520 -0.2672 -0.1445
   24MOL   C31816004   7.566   1.629   7.437 -0.0452  0.5030 -0.1841
   24MOL   C31916005   7.555   1.544   7.323 -0.2818 -0.0695  0.3636
   24MOL   C32016006   7.670   1.507   7.252 -0.2849 -0.6681 -0.3829
   24MOL   O32116007   7.664   1.426   7.142  0.1604 -0.3563  0.6166
   24MOL   C32216008   7.688   1.485   7.022  0.0730  0.1439  0.0280
   24MOL   C32316009   7.816   1.475   6.959 -0.1202 -0.7639 -0.2951
   24MOL   C32416010   7.833   1.545   6.838  0.1759  0.2699  0.4688
   24MOL   C32516011   7.728   1.622   6.776  0.3729  0.6479  0.5308
   24MOL   C32616012   7.600   1.623   6.833  0.5828 -0.7122 -0.2454
   24MOL   C32716013   7.585   1.557   6.959  0.4959  0.5017  0.1486
   24MOL   C32816014   7.797   1.543   7.302 -0.2462 -0.0030 -0.1394
   24MOL   C32916015   7.807   1.615   7.419 -0.5386  0.1543 -1.1258
   24MOL   H33016016   7.608   1.951   7.469 -0.4821  0.5084  0.0194
   24MOL   H33116017   7.400   2.083   7.512 -0.3428  0.6924  1.2523
   24MOL   H33216018   7.370   1.869   7.894  1.0018  2.0430  1.1635
   24MOL   H33316019   7.564   1.736   7.843 -0.3405 -2.0530 -0.8592
   24MOL   H33416020   7.475   1.655   7.490 -0.7195 -0.2709 -0.9426
   24MOL   H33516021   7.455   1.521   7.290 -0.7411  0.5652  1.2992
   24MOL   H33616022   7.899   1.420   7.002  1.0492  0.1729 -1.3031
   24MOL   H33716023   7.925   1.542   6.782 -1.1132 -0.8274 -1.6433
   24MOL   H33816024   7.529   1.693   6.791  0.2276 -0.9957 -0.1159
   24MOL   H33916025   7.488   1.555   7.005  0.9990 -0.7222  1.2053
   24MOL   H34016026   7.886   1.529   7.243  0.7332  2.7205  0.6283
   24MOL   H34116027   7.905   1.646   7.454 -1.0763  0.5732  0.0398
   24MOL   C34216028   7.546   1.591   6.361 -0.1351 -0.1543  0.3371
   24MOL   C34316029   7.576   1.632   6.491 -0.0004 -0.1713  0.4375
   24MOL   C34416030   7.708   1.626   6.543  0.1253  0.2946 -0.1048
   24MOL   O34516031   7.747   1.688   6.657  0.5705 -0.3909 -0.4509
   24MOL   C34616032   7.806   1.570   6.460 -1.1140 -0.3754  0.5606
   24MOL   C34716033   7.777   1.530   6.329 -0.7206 -0.2647  0.2918
   24MOL   C34816034   7.648   1.543   6.274  1.2161  0.0607 -0.1353
   24MOL   C34916035   7.624   1.505   6.132  0.2006  0.8240  0.6609
   24MOL   O35016036   7.556   1.404   6.100 -0.6503  0.1495  0.0872
   24MOL   C35116037   7.684   1.593   6.021 -0.0545  0.1912 -0.0792
   24MOL   C35216038   7.695   1.541   5.890 -0.1263 -0.5104 -0.1523
   24MOL   C35316039   7.760   1.611   5.787 -0.0071  0.0540 -0.5291
   24MOL   C35416040   7.813   1.738   5.813 -0.3405  0.3111  0.4677
   24MOL   O35516041   7.879   1.800   5.713 -0.3073 -0.2454  0.5562
   24MOL   C35616042   8.008   1.758   5.685  0.4269  0.4362 -0.2854
   24MOL   C35716043   8.042   1.723   5.554  0.4718  0.1745 -0.2274
   24MOL   C35816044   8.177   1.678   5.528  0.2964 -0.0474  0.4074
   24MOL   C35916045   8.279   1.673   5.628 -0.4417 -0.0830  0.2917
   24MOL   C36016046   8.238   1.710   5.759 -0.9014 -0.1833  0.5999
   24MOL   C36116047   8.106   1.753   5.785 -1.0101  0.3828  0.4375
   24MOL   C36216048   7.797   1.797   5.935  0.2113  0.2454  0.0599
   24MOL   C36316049   7.731   1.723   6.036  0.4279  0.3362 -0.6699
   24MOL   H36416050   7.446   1.590   6.321  0.4025 -0.0276 -1.0468
   24MOL   H36516051   7.487   1.661   6.545 -1.8514 -2.8216 -1.0867
   24MOL   H36616052   7.907   1.572   6.499 -0.6159  0.1958 -0.7408
   24MOL   H36716053   7.860   1.499   6.268 -1.0916 -2.7390  0.9621
   24MOL   H36816054   7.642   1.451   5.862 -1.4244 -0.0220  0.7052
   24MOL   H36916055   7.766   1.563   5.690 -1.2737 -1.7835  0.2694
   24MOL   H37016056   7.962   1.724   5.481 -0.7292  1.7621  1.0964
   24MOL   H37116057   8.195   1.648   5.426 -1.3153  0.9685 -0.1865
   24MOL   H37216058   8.309   1.705   5.840  0.1480 -0.3830 -0.3223
   24MOL   H37316059   8.080   1.789   5.884  0.2257  0.4216  0.7548
   24MOL   H37416060   7.824   1.902   5.937 -0.7318  0.4737  0.9578
   24MOL   H37516061   7.714   1.763   6.135  0.4086 -1.3940  0.0295
   24MOL   C37616062   0.271   1.950   5.681  0.6139  0.6300 -0.2967
   24MOL   C37716063   0.186   1.858   5.618  0.2160 -0.7794  0.2050
   24MOL   C37816064   0.192   1.720   5.647 -0.1872  0.7538  0.5948
   24MOL   O37916065   0.095   1.628   5.609 -0.3535  0.1302 -0.0808
   24MOL   C38016066   0.307   1.674   5.725 -0.0775 -1.0429  0.2348
   24MOL   C38116067   0.388   1.773   5.789  0.7796  0.2961 -0.1985
   24MOL   C38216068   0.365   1.910   5.773  0.2280 -0.1222 -0.1039
   24MOL   C38316069   0.437   2.015   5.853 -0.1558  0.0959  0.0570
   24MOL   O38416070   0.554   2.026   5.846 -0.5671  0.4892  0.1337
   24MOL   C38516071   0.349   2.112   5.926  0.0156  0.9105  0.4826
   24MOL   C38616072   0.217   2.080   5.967  0.5661  0.0941 -0.1364
   24MOL   C38716073   0.137   2.181   6.025 -0.2249  0.3029 -0.2137
   24MOL   C38816074   0.194   2.310   6.054 -0.5954  0.2083 -0.1353
   24MOL   O38916075   0.122   2.402   6.130  0.7943 -0.3603  0.4188
   24MOL   C39016076   0.114   2.396   6.264 -0.1559 -0.0095 -0.0635
   24MOL   C39116077   0.034   2.296   6.324 -0.0437 -0.7204  0.1049
   24MOL   C39216078   0.006   2.298   6.461 -0.1798 -0.7944  0.3561
   24MOL   C39316079   0.072   2.390   6.548  0.0091 -0.4437  0.1223
   24MOL   C39416080   0.162   2.487   6.489 -0.4598  0.1765 -0.1049
   24MOL   C39516081   0.177   2.489   6.351 -0.0286 -0.2001  0.5223
   24MOL   C39616082   0.323   2.336   6.011  0.5968 -0.8773 -0.4232
   24MOL   C39716083   0.397   2.243   5.947  0.0115 -0.8517 -0.3650
   24MOL   H39816084   0.263   2.054   5.655  1.5825  0.3906 -1.6044
   24MOL   H39916085   0.115   1.904   5.552  0.4387 -0.2226  0.3499
   24MOL   H40016086   0.312   1.568   5.746 -2.5532 -0.9568  1.4877
   24MOL   H40116087   0.461   1.734   5.860  2.0979  0.2499 -1.5501
   24MOL   H40216088   0.163   1.989   5.942  0.6378  0.3281 -1.1858
   24MOL   H40316089   0.035   2.150   6.045 -0.9175  0.6803 -2.9948
   24MOL   H40416090   8.305   2.229   6.250 -1.4544  0.4602 -0.2032
   24MOL   H40516091   8.257   2.221   6.505  0.4476 -1.5874 -0.1414
   24MOL   H40616092   0.224   2.557   6.543  0.9562  0.1946 -1.6814
   24MOL   H40716093   0.235   2.570   6.310 -1.5516  0.2494 -0.7874
   24MOL   H40816094   0.367   2.434   6.024 -0.3640 -0.6679  1.4724
   24MOL   H40916095   0.493   2.272   5.907 -0.0854 -0.1474 -0.1038
   24MOL   C41016096   0.380   2.218   6.776  0.6631 -0.2774 -0.7957
   24MOL   C41116097   0.286   2.315   6.737  0.3557  0.0933  0.4486
   24MOL   C41216098   0.147   2.285   6.733  0.2272 -0.0147 -0.6039
   24MOL   O41316099   0.053   2.374   6.681 -0.1083 -0.1016 -0.0663
   24MOL   C41416100   0.103   2.163   6.793  0.2363  0.0237  0.5336
   24MOL   C41516101   0.194   2.062   6.826  0.0317 -0.2887  0.2003
   24MOL   C41616102   0.329   2.086   6.818 -0.5125 -0.4265 -0.8594
   24MOL   C41716103   0.424   1.969   6.846 -0.4720  0.1514 -0.4035
   24MOL   O41816104   0.397   1.852   6.821 -0.5041 -0.1624 -0.3270
   24MOL   C41916105   0.550   1.994   6.918  0.6844 -1.0846 -0.6164
   24MOL   C42016106   0.559   2.104   7.008 -0.1424  0.2828  0.5607
   24MOL   C42116107   0.677   2.123   7.087 -0.6230 -0.1262  0.6424
   24MOL   C42216108   0.783   2.029   7.085 -0.3117  0.1524  0.5648
   24MOL   O42316109   0.886   2.052   7.170 -0.7629 -0.5650  0.5443
   24MOL   C42416110   0.873   2.014   7.306 -0.4205  0.1222 -0.9125
   24MOL   C42516111   0.891   1.879   7.350 -0.5015 -0.0772  0.2202
   24MOL   C42616112   0.877   1.850   7.483  0.0477  0.4430 -0.0176
   24MOL   C42716113   0.837   1.944   7.576 -0.6551 -0.4649  0.5340
   24MOL   C42816114   0.818   2.080   7.531  0.5194 -0.0398 -0.2507
   24MOL   C42916115   0.840   2.114   7.398  0.2745  0.5960 -0.2042
   24MOL   C43016116   0.766   1.918   7.012 -0.4612  0.2681  0.1572
   24MOL   C43116117   0.660   1.901   6.917 -0.4144  0.2550  0.0984
   24MOL   H43216118   0.485   2.239   6.763  1.1447 -1.3406  1.1457
   24MOL   H43316119   0.325   2.408   6.698  1.0404 -0.5049 -0.2954
   24MOL   H43416120   8.310   2.149   6.811  0.5236 -1.6234  1.0489
   24MOL   H43516121   0.151   1.967   6.856  0.4137 -1.6212 -3.2364
   24MOL   H43616122   0.484   2.181   7.014  0.1264  0.7858 -1.9030
   24MOL   H43716123   0.676   2.210   7.150  0.7150 -0.6218  1.3556
   24MOL   H43816124   0.908   1.792   7.287  0.1844  0.0447  0.2392
   24MOL   H43916125   0.893   1.748   7.515  0.7844  1.4229  2.9039
   24MOL   H44016126   0.791   2.160   7.598  2.1988 -0.0893  0.5126
   24MOL   H44116127   0.828   2.217   7.370 -2.9307  0.3700  0.1529
   24MOL   H44216128   0.847   1.847   7.018 -1.5871 -0.9532  1.0681
   24MOL   H44316129   0.655   1.813   6.855  1.4181  0.5213 -0.4365
   24MOL   C44416130   0.488   1.996   7.816  0.0748 -0.1310 -0.0079
   24MOL   C44516131   0.599   1.928   7.753  0.4717 -0.2554 -0.1184
   24MOL   C44616132   0.730   1.962   7.782 -0.4675 -0.4207 -0.6924
   24MOL   O44716133   0.825   1.901   7.707  0.5214 -0.6221  0.0517
   24MOL   C44816134   0.763   2.052   7.881  0.0405 -0.3519  0.1531
   24MOL   C44916135   0.659   2.129   7.936  0.8298 -0.3643  0.0264
   24MOL   C45016136   0.522   2.101   7.911  0.4502  0.1873 -0.3178
   24MOL   C45116137   0.418   2.189   7.974  0.8234 -0.3612  0.0869
   24MOL   O45216138   0.325   2.227   7.914 -0.4236 -0.0433  0.2736
   24MOL   C45316139   0.441   2.233   8.114 -1.1424  0.8016 -0.1823
   24MOL   C45416140   0.433   2.137   8.217 -0.0066  0.4066  0.7417
   24MOL   C45516141   0.477   2.177   0.029  0.5060 -0.4872 -0.1008
   24MOL   C45616142   0.526   2.311   0.054  0.0371  0.1419  0.2506
   24MOL   O45716143   0.580   2.339   0.179  0.4929 -0.6697  0.0671
   24MOL   C45816144   0.509   2.431   0.255  0.2256  0.0950 -1.1684
   24MOL   C45916145   0.378   2.406   0.288  0.0912  0.1473 -0.7597
   24MOL   C46016146   0.304   2.515   0.347 -0.3767  0.0920  0.2170
   24MOL   C46116147   0.359   2.640   0.370  0.7146  0.2157 -0.2532
   24MOL   C46216148   0.497   2.654   0.346  0.2112  0.1957  0.5076
   24MOL   C46316149   0.575   2.553   0.290 -0.0379  0.5728  0.1297
   24MOL   C46416150   0.524   2.405   8.263 -0.6551  0.0785 -0.4541
   24MOL   C46516151   0.479   2.366   8.138  0.2189  0.0394  0.4000
   24MOL   H46616152   0.383   1.973   7.810 -0.6132  2.7112  0.3969
   24MOL   H46716153   0.579   1.843   7.690 -0.9641 -0.3664  0.4599
   24MOL   H46816154   0.866   2.073   7.906 -0.8459  2.1538  1.9206
   24MOL   H46916155   0.681   2.204   8.010  1.5645  1.4175 -1.9496
   24MOL   H47016156   0.389   2.039   8.210 -0.2812  0.6140 -0.6287
   24MOL   H47116157   0.474   2.097   0.101  0.9288 -0.9367 -0.5733
   24MOL   H47216158   0.322   2.316   0.268 -0.3285  0.3114 -0.3380
   24MOL   H47316159   0.203   2.499   0.382 -0.7782 -0.9607 -1.3437
   24MOL   H47416160   0.542   2.748   0.374 -0.5102  0.4827  0.6988
   24MOL   H47516161   0.681   2.563   0.267  0.5753 -3.6277  0.8427
   24MOL   H47616162   0.554   2.508   8.273 -0.2658  0.1585 -2.1737
   24MOL   H47716163   0.481   2.440   8.059 -1.2445 -0.4359 -0.0932
   24MOL   C47816164   0.058   3.023   0.410 -0.0518 -0.8158 -0.3783
   24MOL   C47916165   0.144   2.921   0.463  0.2725  0.0927  0.2217
   24MOL   C48016166   0.227   2.841   0.382 -0.2265 -0.0894 -0.2681
   24MOL   O48116167   0.294   2.737   0.442  0.0908 -0.4364 -0.1693
   24MOL   C48216168   0.228   2.869   0.243 -0.3947 -0.5067  0.3200
   24MOL   C48316169   0.144   2.971   0.187  0.0713 -0.1198  0.5614
   24MOL   C48416170   0.058   3.048   0.267 -0.0367  0.3624 -0.6101
   24MOL   C48516171   8.275   3.157   0.210  0.4935 -0.8484  0.5242
   24MOL   O48616172   8.161   3.167   0.248  0.2103  0.0926  0.6344
   24MOL   C48716173   0.011   3.244   0.101 -0.5302  1.2316 -0.4325
   24MOL   C48816174   0.148   3.279   0.080 -0.0056 -0.2087  0.4256
   24MOL   C48916175   0.191   3.351   8.276  0.1685 -0.0015  0.3916
   24MOL   C49016176   0.093   3.397   8.182 -1.0165  0.1428  1.1576
   24MOL   O49116177   0.131   3.461   8.061 -0.0359 -0.1830 -0.6141
   24MOL   C49216178   0.044   3.564   8.014 -0.0709 -0.2175  0.3974
   24MOL   C49316179   0.037   3.588   7.872  0.0068 -0.3854  0.1862
   24MOL   C49416180   8.278   3.701   7.828  0.3969  0.5564 -0.4833
   24MOL   C49516181   8.201   3.779   7.918  0.0877 -0.1696 -0.2881
   24MOL   C49616182   8.207   3.752   8.061 -0.7695  0.3567 -0.1414
   24MOL   C49716183   8.299   3.654   8.106  0.4971  0.1835  0.1828
   24MOL   C49816184   8.270   3.365   8.202  0.8819 -0.4878 -0.5469
   24MOL   C49916185   8.230   3.291   0.004  0.0176  0.1551 -0.5840
   24MOL   H50016186   8.305   3.080   0.474 -0.2615 -0.2702 -1.0640
   24MOL   H50116187   0.132   2.898   0.568 -0.1522 -0.9149 -0.0352
   24MOL   H50216188   0.284   2.803   0.179  0.1232 -0.9070  1.1785
   24MOL   H50316189   0.149   2.991   0.081 -0.8127 -1.0389  0.3319
   24MOL   H50416190   0.227   3.241   0.142 -0.4057 -1.7571 -0.0005
   24MOL   H50516191   0.295   3.373   8.256  0.5430 -2.3773 -0.3996
   24MOL   H50616192   0.099   3.535   7.802  0.9280  0.5721  0.2662
   24MOL   H50716193   8.282   3.725   7.723 -0.6802 -0.4196 -0.7520
   24MOL   H50816194   8.158   3.809   8.138 -0.8232  1.4079 -0.9527
   24MOL   H50916195   0.026   3.655   8.206  0.6074 -0.8884  0.1561
   24MOL   H51016196   8.199   3.398   8.127  0.1978  1.2423  0.8193
   24MOL   H51116197   8.128   3.257   8.311 -0.4629  1.1777  1.5139
   24MOL   C51216198   7.796   4.002   7.984 -0.0042 -0.0714 -0.7698
   24MOL   C51316199   7.892   3.919   7.923  0.2673 -0.9867  0.0893
   24MOL   C51416200   8.028   3.950   7.931  0.8085 -0.7760  0.5043
   24MOL   O51516201   8.111   3.868   7.864 -0.3446 -0.1898  0.8172
   24MOL   C51616202   8.068   4.058   8.015 -0.5339 -0.1976 -0.3442
   24MOL   C51716203   7.973   4.128   8.084 -0.0412 -0.6068  0.4217
   24MOL   C51816204   7.833   4.109   8.067 -0.0087 -0.5818 -0.0079
   24MOL   C51916205   7.731   4.195   8.127 -0.1550 -0.1867 -0.0451
   24MOL   O52016206   7.628   4.149   8.163  0.3405 -0.1361  0.3416
   24MOL   C52116207   7.765   4.338   8.145  0.5830  0.4396  0.3687
   24MOL   C52216208   7.845   4.404   8.048 -0.0325  0.4502 -0.1610
   24MOL   C52316209   7.900   4.528   8.078 -0.4176 -0.9864 -0.1321
   24MOL   C52416210   7.874   4.587   8.202 -0.3503 -0.6102  0.4936
   24MOL   O52516211   7.936   4.705   8.236  0.2069  0.0996  0.3603
   24MOL   C52616212   8.068   4.715   8.217  0.2141  1.1547 -0.0019
   24MOL   C52716213   8.151   4.635   8.304 -0.9192  0.6406 -0.0608
   24MOL   C52816214   8.292   4.662   8.304  0.1230  0.2236 -0.6641
   24MOL   C52916215   0.029   4.750   8.210 -0.6028  0.8286 -0.1282
   24MOL   C53016216   8.253   4.813   8.123 -0.3183  0.5326  0.3747
   24MOL   C53116217   8.119   4.793   8.118 -0.0103 -0.3573  0.2616
   24MOL   C53216218   7.780   4.536   8.297 -0.3504 -0.7047 -0.4433
   24MOL   C53316219   7.734   4.406   8.266 -0.0583  0.4704  0.4868
   24MOL   H53416220   7.693   3.980   7.960 -0.2333 -0.1970  0.3444
   24MOL   H53516221   7.861   3.832   7.867  0.6935 -1.7640  1.0482
   24MOL   H53616222   8.175   4.073   8.022  0.2882 -4.6856 -1.6488
   24MOL   H53716223   8.005   4.203   8.154  0.2072 -0.5614  0.2624
   24MOL   H53816224   7.873   4.359   7.954  1.4873  0.6452  0.1942
   24MOL   H53916225   7.963   4.587   8.013 -1.8628 -0.9391 -1.5187
   24MOL   H54016226   8.103   4.569   0.063 -0.9831  0.4484 -0.2801
   24MOL   H54116227   0.050   4.609   0.053 -1.8841  0.0522  1.6063
   24MOL   H54216228   8.299   4.880   8.051 -0.9299  0.2603 -0.2808
   24MOL   H54316229   8.055   4.851   8.053  0.6893 -1.0569 -1.0707
   24MOL   H54416230   7.764   4.577   0.083  0.9410  0.8210 -0.8432
   24MOL   H54516231   7.676   4.351   0.026  0.9040 -0.4297  0.5897
   24MOL   C54616232   0.340   4.790   0.194 -0.1947  0.1065 -0.2571
   24MOL   C54716233   0.273   4.732   0.088 -0.6039 -0.4300 -0.4277
   24MOL   C54816234   0.226   4.811   8.296  0.3282  0.1081 -0.0714
   24MOL   O54916235   0.160   4.759   8.192  0.1384 -0.4028  0.7756
   24MOL   C55016236   0.257   4.945   8.287 -0.0083 -0.1482 -0.7452
   24MOL   C55116237   0.327   5.008   0.073  0.9006 -0.1807 -0.1403
   24MOL   C55216238   0.376   4.927   0.184 -0.4668 -0.1393 -0.0137
   24MOL   C55316239   0.453   4.999   0.300  0.3603  0.7576  0.0939
   24MOL   O55416240   0.438   5.121   0.312 -0.1464  0.1753  0.1994
   24MOL   C55516241   0.539   4.922   0.390 -0.1747 -0.2509  0.0058
   24MOL   C55616242   0.542   4.962   0.526 -0.0164 -0.5497 -0.1403
   24MOL   C55716243   0.629   4.908   0.620 -0.0260  0.6931  0.4555
   24MOL   C55816244   0.723   4.815   0.580 -0.1213  0.4503  0.2806
   24MOL   O55916245   0.796   4.753   0.674  0.2914 -0.4775  0.1504
   24MOL   C56016246   0.921   4.807   0.696  0.2210 -1.2871 -0.1320
   24MOL   C56116247   1.034   4.782   0.618  0.1258  0.6542  0.7902
   24MOL   C56216248   1.162   4.829   0.652 -0.1878  0.7841  0.5304
   24MOL   C56316249   1.179   4.900   0.766 -0.7482 -0.1260 -0.2939
   24MOL   C56416250   1.071   4.917   0.855 -0.3583 -0.0923  0.1259
   24MOL   C56516251   0.938   4.875   0.817  0.2404 -0.1308  0.7774
   24MOL   C56616252   0.715   4.769   0.445  0.8099  0.4137  0.0610
   24MOL   C56716253   0.623   4.821   0.352 -0.3410  0.3203  0.3251
   24MOL   H56816254   0.385   4.736   0.275  0.8646 -0.2424 -1.0592
   24MOL   H56916255   0.245   4.629   0.104  1.9330 -1.0173  0.5353
   24MOL   H57016256   0.240   5.010   8.203 -0.1328  1.7224  0.6734
   24MOL   H57116257   0.362   5.110   0.064  0.1829  0.3244  2.4024
   24MOL   H57216258   0.469   5.036   0.557 -0.0422  0.5574 -2.6955
   24MOL   H57316259   0.632   4.943   0.722 -1.2981  0.2390  0.6624
   24MOL   H57416260   1.026   4.715   0.533  0.5692  1.8511 -0.2145
   24MOL   H57516261   1.251   4.807   0.595 -0.5005 -0.3473  0.4640
   24MOL   H57616262   1.076   4.975   0.946  0.5001  1.1987 -0.7468
   24MOL   H57716263   0.852   4.898   0.878  0.5718  0.7851  0.9190
   24MOL   H57816264   0.771   4.681   0.416 -0.2969 -1.1827  2.6233
   24MOL   H57916265   0.616   4.784   0.251  0.1569 -3.1665  1.5225
   24MOL   C58016266   1.438   5.151   1.072 -0.4717 -0.7268  0.1997
   24MOL   C58116267   1.394   5.114   0.939 -0.0008 -0.0847  0.0508
   24MOL   C58216268   1.339   4.986   0.915  0.1002 -0.3300  0.2212
   24MOL   O58316269   1.300   4.958   0.785 -0.0195 -0.2475  0.2035
   24MOL   C58416270   1.340   4.889   1.015 -0.8773  0.4637 -0.3178
   24MOL   C58516271   1.387   4.926   1.139 -0.1216  0.3105 -0.1676
   24MOL   C58616272   1.432   5.055   1.171 -0.3623  0.4895 -0.5572
   24MOL   C58716273   1.475   5.078   1.312 -0.2712 -0.5976  0.2732
   24MOL   O58816274   1.421   5.012   1.404 -0.2260  0.4575 -0.0304
   24MOL   C58916275   1.587   5.175   1.342  0.2958 -0.0078 -0.4190
   24MOL   C59016276   1.615   5.219   1.473 -0.9250 -0.5840 -0.4989
   24MOL   C59116277   1.708   5.321   1.507 -0.6599  0.6107  0.6713
   24MOL   C59216278   1.795   5.365   1.411  0.3433 -0.1725 -0.0411
   24MOL   O59316279   1.887   5.465   1.438  0.2964 -0.2150 -0.4914
   24MOL   C59416280   1.995   5.443   1.526  0.7650 -0.2524  0.2196
   24MOL   C59516281   2.034   5.553   1.605  0.1772 -0.4407 -0.4234
   24MOL   C59616282   2.145   5.550   1.687 -0.2656  0.4056 -0.4685
   24MOL   C59716283   2.219   5.428   1.695  0.0713  0.5895 -0.1306
   24MOL   C59816284   2.170   5.316   1.621  0.1269 -0.1847  0.4177
   24MOL   C59916285   2.065   5.323   1.534 -0.1189  0.0127  0.1350
   24MOL   C60016286   1.787   5.303   1.280  0.3825  0.2672 -0.0006
   24MOL   C60116287   1.684   5.213   1.249 -0.1072 -0.1233  0.0037
   24MOL   H60216288   1.468   5.253   1.091 -1.6973 -0.2660 -0.3298
   24MOL   H60316289   1.411   5.187   0.860 -0.6004 -0.7976 -0.7495
   24MOL   H60416290   1.314   4.786   0.999  0.3527  0.3684 -1.8100
   24MOL   H60516291   1.373   4.857   1.221 -0.4037  1.6202  0.9189
   24MOL   H60616292   1.548   5.176   1.546 -0.1525 -0.4359  0.3019
   24MOL   H60716293   1.721   5.364   1.605 -0.4853 -1.0965  1.4196
   24MOL   H60816294   1.971   5.641   1.615  3.2385  1.6419  1.6031
   24MOL   H60916295   2.172   5.633   1.752 -0.5324 -0.3974  0.6920
   24MOL   H61016296   2.219   5.220   1.622 -1.7705 -1.1981 -0.8480
   24MOL   H61116297   2.047   5.229   1.485 -1.3533  0.0248  0.5497
   24MOL   H61216298   1.866   5.324   1.210  1.5249 -1.9925  0.5640
   24MOL   H61316299   1.670   5.186   1.146 -2.0195  0.1262  0.1908
   24MOL   C61416300   2.635   5.347   1.585  0.2004  0.0618 -0.3537
   24MOL   C61516301   2.512   5.414   1.623 -0.6535 -0.2323 -1.0567
   24MOL   C61616302   2.435   5.359   1.731  0.6336  0.2929 -0.1271
   24MOL   O61716303   2.326   5.423   1.780 -0.4132 -0.0304 -0.0636
   24MOL   C61816304   2.472   5.243   1.797 -0.1272  0.9230 -0.1255
   24MOL   C61916305   2.589   5.179   1.754 -0.1248 -0.2895 -0.3096
   24MOL   C62016306   2.669   5.222   1.642 -0.2990 -0.8581 -0.1159
   24MOL   C62116307   2.778   5.153   1.574 -0.0633 -0.4394  0.5633
   24MOL   O62216308   2.814   5.183   1.464  0.2059 -0.0073 -0.5124
   24MOL   C62316309   2.850   5.042   1.652  0.6361  0.4746 -0.3976
   24MOL   C62416310   2.901   4.926   1.589 -0.0796  0.6999  0.7521
   24MOL   C62516311   2.944   4.813   1.658 -0.2485 -0.3057 -0.1335
   24MOL   C62616312   2.958   4.816   1.798  0.0208  0.2276 -0.2349
   24MOL   O62716313   3.017   4.707   1.861  0.6204 -0.3635  0.4765
   24MOL   C62816314   3.093   4.722   1.969  0.6140  0.3314 -0.5260
   24MOL   C62916315   3.191   4.826   1.979 -0.5989  1.4496 -0.5517
   24MOL   C63016316   3.279   4.830   2.095 -0.4650  0.7990  0.7554
   24MOL   C63116317   3.268   4.725   2.192  0.6264 -0.0115 -0.2277
   24MOL   C63216318   3.172   4.624   2.174 -0.0266  0.0042 -0.0951
   24MOL   C63316319   3.084   4.628   2.069  0.8042  0.0285 -0.4767
   24MOL   C63416320   2.931   4.940   1.861 -0.1887 -1.0316  0.7276
   24MOL   C63516321   2.873   5.049   1.791 -0.1808 -0.9356 -0.6698
   24MOL   H63616322   2.692   5.390   1.503  0.7317 -1.9219 -1.0614
   24MOL   H63716323   2.487   5.511   1.582  1.9898  0.6517 -0.7198
   24MOL   H63816324   2.406   5.202   1.872 -0.0526  0.1664 -0.4661
   24MOL   H63916325   2.606   5.083   1.799  0.6059 -0.8445 -1.7397
   24MOL   H64016326   2.901   4.918   1.481  2.0420  1.5763  0.6571
   24MOL   H64116327   2.971   4.731   1.592  0.4260 -1.7290  1.8500
   24MOL   H64216328   3.199   4.892   1.895 -1.6347  0.3111 -1.5685
   24MOL   H64316329   3.349   4.909   2.118  1.0320  0.4825 -2.5412
   24MOL   H64416330   3.148   4.550   2.249 -1.4442  2.5240  2.0319
   24MOL   H64516331   3.003   4.557   2.057  0.0869  1.1604 -2.4274
   24MOL   H64616332   2.949   4.947   1.967  2.8890 -1.4091  0.2688
   24MOL   H64716333   2.838   5.135   1.845 -2.2047 -2.1469 -0.0055
   24MOL   C64816334   3.621   4.941   2.411 -0.3432  0.6172 -0.6260
   24MOL   C64916335   3.498   4.875   2.413  0.3158  0.0888  0.1152
   24MOL   C65016336   3.473   4.776   2.311 -0.6967  0.1839 -0.7454
   24MOL   O65116337   3.352   4.718   2.303  0.4845 -0.0533  0.0734
   24MOL   C65216338   3.575   4.741   2.221  0.0123 -0.5431 -0.3267
   24MOL   C65316339   3.697   4.803   2.222 -0.4375  0.5046 -0.4962
   24MOL   C65416340   3.720   4.906   2.318 -0.2196  0.2976  0.0437
   24MOL   C65516341   3.858   4.950   2.328 -0.8158 -0.3384 -0.2656
   24MOL   O65616342   3.905   5.037   2.249 -0.0774 -0.0667 -0.0156
   24MOL   C65716343   3.928   4.911   2.454 -0.4485 -1.1699 -0.4603
   24MOL   C65816344   3.908   4.779   2.503 -0.4346 -0.3701 -0.0230
   24MOL   C65916345   3.967   4.748   2.628  0.3417  0.4865 -0.6895
   24MOL   C66016346   4.049   4.845   2.695  0.5447  0.0364 -0.1458
   24MOL   O66116347   4.100   4.815   2.823 -0.5333  0.4630 -0.1777
   24MOL   C66216348   4.220   4.750   2.840  0.0602 -0.1212  0.2773
   24MOL   C66316349   4.213   4.619   2.890 -0.3644 -0.3105 -0.6287
   24MOL   C66416350   4.336   4.550   2.918 -0.4887 -0.2650  0.0733
   24MOL   C66516351   4.462   4.609   2.879 -0.5409  0.2714  0.1809
   24MOL   C66616352   4.468   4.738   2.832 -0.2639 -0.2412 -0.2754
   24MOL   C66716353   4.352   4.812   2.820 -0.1647 -0.4033 -0.5568
   24MOL   C66816354   4.070   4.972   2.636  0.4631  0.1663 -0.0676
   24MOL   C66916355   4.013   5.006   2.514 -0.1585 -0.2284  0.5988
   24MOL   H67016356   3.653   5.009   2.489  1.7590  0.1339 -1.0201
   24MOL   H67116357   3.429   4.888   2.495 -1.0051  1.0240 -1.1098
   24MOL   H67216358   3.554   4.663   2.149 -3.2262  0.0313 -0.0904
   24MOL   H67316359   3.777   4.766   2.160 -0.5981  1.3225 -1.1981
   24MOL   H67416360   3.849   4.707   2.449  0.1406 -0.3781 -0.6473
   24MOL   H67516361   3.952   4.655   2.682  0.1274  1.3775  0.8006
   24MOL   H67616362   4.112   4.585   2.906 -1.6149  1.2915 -4.3890
   24MOL   H67716363   4.329   4.449   2.956 -0.0625 -0.0685  0.6764
   24MOL   H67816364   4.561   4.788   2.814  0.9882 -2.3782  0.0528
   24MOL   H67916365   4.367   4.914   2.788 -0.0195  0.2105  1.4355
   24MOL   H68016366   4.139   5.038   2.688 -0.4290  0.3547  0.8868
   24MOL   H68116367   4.016   5.109   2.481  1.3718 -0.3892  0.1805
   24MOL   H68216368   4.551   4.548   2.887 -0.0589  1.1072  1.1939
   25MOL     C116369   1.243   0.674   0.079  0.4444 -0.3823 -0.5404
   25MOL     C216370   1.363   0.746   0.069  0.4780 -0.0316 -0.0385
   25MOL     C316371   1.484   0.687   0.108 -0.0630 -0.0864  0.6496
   25MOL     O416372   1.601   0.757   0.092  1.0310 -0.1486  0.3171
   25MOL     C516373   1.481   0.568   0.181  0.1716  0.8466 -0.2623
   25MOL     C616374   1.355   0.510   0.212  0.2511 -1.1128  0.2999
   25MOL     C716375   1.233   0.563   0.162 -0.2038 -0.4438 -0.0938
   25MOL     C816376   1.099   0.508   0.210 -0.5806 -0.3824 -0.4277
   25MOL     O916377   1.086   0.385   0.224 -0.0591  0.0723 -0.4172
   25MOL    C1016378   0.994   0.602   0.235 -0.7247  0.5623 -0.1652
   25MOL    C1116379   0.863   0.574   0.191  0.7068 -0.2342  0.5383
   25MOL    C1216380   0.763   0.668   0.215  0.2242  1.2674  0.0193
   25MOL    C1316381   0.790   0.788   0.282 -0.1006  0.1397 -0.1595
   25MOL    O1416382   0.697   0.879   0.326  0.1379  0.0550  0.1681
   25MOL    C1516383   0.566   0.839   0.323 -0.2402 -0.4402  0.4362
   25MOL    C1616384   0.507   0.850   0.193  0.0646 -0.1427 -0.1743
   25MOL    C1716385   0.367   0.824   0.179 -0.4719  0.7735 -0.3534
   25MOL    C1816386   0.295   0.784   0.291 -0.5181 -0.3903 -0.2189
   25MOL    C1916387   0.354   0.780   0.420 -0.6536  0.0027 -0.5584
   25MOL    C2016388   0.489   0.813   0.435 -0.2890  0.1658  0.5011
   25MOL    C2116389   0.925   0.811   0.328  0.4283 -0.1486  0.0033
   25MOL    C2216390   1.027   0.720   0.306  0.3450  0.2164  0.6187
   25MOL    H2316391   1.154   0.718   0.038  1.4353  1.0544 -1.1666
   25MOL    H2416392   1.369   0.843   0.022  1.9816 -0.0873  0.0012
   25MOL    H2516393   1.570   0.524   0.225 -1.8678 -1.6177  1.5517
   25MOL    H2616394   1.360   0.420   0.272  3.0716 -2.6947 -2.1153
   25MOL    H2716395   0.841   0.476   0.151  1.0622 -1.6274  3.6328
   25MOL    H2816396   0.659   0.649   0.194 -0.4515  0.0617  4.0204
   25MOL    H2916397   0.569   0.891   0.115  0.8111 -2.7695 -1.0163
   25MOL    H3016398   0.316   0.830   0.084  0.4735 -1.2759 -1.0371
   25MOL    H3116399   0.308   0.726   0.501  1.3307  0.0209  0.6094
   25MOL    H3216400   0.522   0.809   0.538 -0.4917 -0.2969  0.5491
   25MOL    H3316401   0.946   0.898   0.389  1.1209  0.3574 -0.9459
   25MOL    H3416402   1.127   0.747   0.337  1.2924  0.7981 -2.6639
   25MOL    H3516403   1.670   0.723   0.148 -0.5709 -0.4217  2.1624
   25MOL    C3616404   8.182   0.874   0.125  0.4528  0.6319  0.4467
   25MOL    C3716405   8.275   0.781   0.172 -0.1858  0.2731 -0.2127
   25MOL    C3816406   0.069   0.824   0.248 -0.2635  0.4150 -1.0188
   25MOL    O3916407   0.166   0.733   0.276 -0.1895 -0.2892 -0.0890
   25MOL    C4016408   0.078   0.959   0.291 -0.2502 -0.1546  0.2652
   25MOL    C4116409   8.293   1.051   0.250  0.7706  0.5670 -0.4704
   25MOL    C4216410   8.192   1.013   0.161  0.1712  0.2136  0.4878
   25MOL    C4316411   8.095   1.105   0.093  0.0647 -0.2224  0.1501
   25MOL    O4416412   8.011   1.058   0.015 -0.4646 -0.1301 -0.6589
   25MOL    C4516413   8.121   1.247   0.107  0.2194  0.4069  1.0334
   25MOL    C4616414   8.175   1.320   8.312 -0.3196  0.3995 -0.3915
   25MOL    C4716415   8.242   1.444   0.016  0.4945 -0.1269  0.1673
   25MOL    C4816416   8.241   1.506   0.141 -0.2274 -0.0753  0.1338
   25MOL    O4916417   8.302   1.626   0.151  0.6771  0.2465 -0.3509
   25MOL    C5016418   8.224   1.733   0.190  0.2216  0.1649  0.0549
   25MOL    C5116419   8.227   1.786   0.323 -1.0675 -0.1917 -0.6377
   25MOL    C5216420   8.148   1.897   0.357 -0.2259  0.1183 -0.6667
   25MOL    C5316421   8.067   1.959   0.255 -0.4506 -1.4051 -0.1980
   25MOL    C5416422   8.059   1.898   0.129 -0.1346 -0.2068  0.4691
   25MOL    C5516423   8.146   1.794   0.092  0.2173 -0.2413  0.2009
   25MOL    C5616424   8.183   1.446   0.251 -0.0307  0.3326 -0.5010
   25MOL    C5716425   8.114   1.315   0.232 -1.1374 -0.6227 -0.6043
   25MOL    H5816426   8.104   0.834   0.062 -0.0003  1.1364  0.6886
   25MOL    H5916427   8.270   0.679   0.139  1.6872 -0.1471  0.7272
   25MOL    H6016428   0.161   0.995   0.350 -1.6587  2.5494  0.6638
   25MOL    H6116429   8.298   1.147   0.299  0.2861  0.0886  0.5239
   25MOL    H6216430   8.180   1.263   8.221 -1.8109 -0.1137 -0.1712
   25MOL    H6316431   8.294   1.496   8.249 -1.5607 -0.1232 -1.2124
   25MOL    H6416432   8.290   1.752   0.404 -0.3471  1.5255 -0.4596
   25MOL    H6516433   8.144   1.952   0.450 -1.0309 -0.2074 -0.5046
   25MOL    H6616434   7.981   1.933   0.064  1.3044  1.2628 -0.5109
   25MOL    H6716435   8.152   1.757   8.303 -0.6350 -0.3278  0.1842
   25MOL    H6816436   8.185   1.498   0.346 -0.0608 -0.4393 -0.0775
   25MOL    H6916437   8.070   1.269   0.319 -0.9662 -3.4695 -1.9782
   25MOL    C7016438   7.766   2.149   0.561 -0.3116 -0.5637 -0.1365
   25MOL    C7116439   7.859   2.158   0.452 -0.4621 -0.4399  0.5928
   25MOL    C7216440   7.884   2.041   0.379 -0.3989 -0.3515 -0.4684
   25MOL    O7316441   7.975   2.060   0.282 -0.7216  0.2581  0.5479
   25MOL    C7416442   7.824   1.918   0.409  0.3675  0.2693  0.6111
   25MOL    C7516443   7.726   1.912   0.514 -0.2141  0.1715 -0.1263
   25MOL    C7616444   7.690   2.031   0.585  0.3396  0.0823 -0.3867
   25MOL    C7716445   7.585   2.014   0.684 -0.2483  0.1142 -0.2031
   25MOL    O7816446   7.540   1.905   0.724  0.2819 -0.4983 -0.3357
   25MOL    C7916447   7.527   2.136   0.741  0.1691 -0.0858 -1.3707
   25MOL    C8016448   7.458   2.228   0.660  0.1756 -0.2020 -0.2341
   25MOL    C8116449   7.381   2.331   0.711  0.5078  0.3574 -0.7083
   25MOL    C8216450   7.374   2.354   0.849 -0.2910 -0.0162  0.4374
   25MOL    O8316451   7.298   2.448   0.910 -0.6372  0.7332  0.6065
   25MOL    C8416452   7.182   2.489   0.853 -0.0100 -0.6344 -0.3745
   25MOL    C8516453   7.165   2.625   0.831 -0.6406 -0.8688  1.1491
   25MOL    C8616454   7.049   2.663   0.761 -0.1832 -0.4153  0.0244
   25MOL    C8716455   6.949   2.571   0.734 -0.3705  0.7932  0.6354
   25MOL    C8816456   6.964   2.444   0.786  0.2302 -0.4947 -0.6664
   25MOL    C8916457   7.078   2.403   0.843  0.0785  0.4266  0.3685
   25MOL    C9016458   7.447   2.270   0.929  0.0987 -0.4589  0.3728
   25MOL    C9116459   7.524   2.160   0.882  0.2606 -0.2247 -1.3081
   25MOL    H9216460   7.751   2.235   0.624 -1.0245 -1.2741  0.6836
   25MOL    H9316461   7.908   2.250   0.425  1.1253 -0.5828  2.9104
   25MOL    H9416462   7.844   1.830   0.350 -2.4636  0.3500 -0.5806
   25MOL    H9516463   7.681   1.817   0.539 -0.3869  0.0055 -1.0545
   25MOL    H9616464   7.459   2.218   0.553 -0.6883 -0.0993 -0.2615
   25MOL    H9716465   7.326   2.398   0.646 -2.5657 -0.0316  1.3798
   25MOL    H9816466   7.249   2.694   0.836 -1.0268 -0.2008 -1.1035
   25MOL    H9916467   7.044   2.763   0.719 -0.6239 -0.9721 -1.2635
   25MOL   H10016468   6.888   2.369   0.772 -1.6149  1.1221  0.4441
   25MOL   H10116469   7.088   2.305   0.887 -4.3261  0.5103  1.8438
   25MOL   H10216470   7.440   2.292   1.035  1.9936  1.5557  0.1109
   25MOL   H10316471   7.577   2.091   0.946  0.6884 -1.6490 -3.1402
   25MOL   C10416472   6.522   2.779   0.700  0.2342  0.8762 -0.0401
   25MOL   C10516473   6.628   2.711   0.641 -0.3693 -0.8415  0.2490
   25MOL   C10616474   6.735   2.673   0.723  0.5917 -0.1515  0.2508
   25MOL   O10716475   6.840   2.606   0.659 -0.1244  0.5376 -0.1896
   25MOL   C10816476   6.748   2.725   0.853  0.3071  0.0567 -0.3595
   25MOL   C10916477   6.649   2.814   0.894 -0.0609  0.0373 -1.1683
   25MOL   C11016478   6.537   2.840   0.824 -0.5014 -0.4571  0.5122
   25MOL   C11116479   6.441   2.939   0.875  0.2955 -0.1167  1.1650
   25MOL   O11216480   6.483   3.051   0.909  0.0745  0.2702 -0.0632
   25MOL   C11316481   6.301   2.902   0.890  0.3093 -0.5829 -0.4187
   25MOL   C11416482   6.261   2.769   0.887  0.3220 -0.7213 -0.4356
   25MOL   C11516483   6.129   2.734   0.910  0.2549 -0.1623  0.2122
   25MOL   C11616484   6.032   2.830   0.925  0.0740 -1.0529 -0.4788
   25MOL   O11716485   5.902   2.797   0.933 -0.5058  0.3317  0.1326
   25MOL   C11816486   5.839   2.783   0.813 -0.4401 -0.1726  0.3524
   25MOL   C11916487   5.795   2.652   0.774  0.1363  0.1211 -0.2551
   25MOL   C12016488   5.731   2.629   0.651 -0.1379 -0.6876  0.0947
   25MOL   C12116489   5.720   2.739   0.562  0.1674 -0.4532 -0.1153
   25MOL   C12216490   5.764   2.869   0.598 -0.2792 -0.3889 -0.3592
   25MOL   C12316491   5.820   2.894   0.725 -0.3370  0.2667  0.0260
   25MOL   C12416492   6.065   2.969   0.923  0.3652  0.2879 -0.3952
   25MOL   C12516493   6.200   3.001   0.899 -0.3130  0.1500  0.2438
   25MOL   H12616494   6.436   2.799   0.638 -0.8354 -0.8339  0.8488
   25MOL   H12716495   6.623   2.673   0.541 -1.5294  2.7234 -1.1233
   25MOL   H12816496   6.829   2.688   0.914 -0.3592 -2.2599 -0.8105
   25MOL   H12916497   6.665   2.868   0.986  0.7442 -0.5390 -0.9665
   25MOL   H13016498   6.336   2.692   0.882  1.2351  0.1632 -0.4748
   25MOL   H13116499   6.101   2.630   0.909 -0.2393 -0.0191 -2.1053
   25MOL   H13216500   5.813   2.576   0.848  0.1664  1.8989  1.6106
   25MOL   H13316501   5.690   2.530   0.636  1.1229 -1.0414 -1.1360
   25MOL   H13416502   5.759   2.953   0.531  0.0343  2.4353  3.0478
   25MOL   H13516503   5.858   2.989   0.759  0.9098 -0.8057  1.7070
   25MOL   H13616504   5.985   3.038   0.943 -1.1627 -1.2334 -1.2069
   25MOL   H13716505   6.221   3.106   0.918  0.3094  0.0792 -0.0381
   25MOL   C13816506   5.380   2.912   0.318 -0.1909 -0.9257  0.2562
   25MOL   C13916507   5.462   2.827   0.396  0.0018 -0.1892 -0.2334
   25MOL   C14016508   5.597   2.812   0.372  0.3807 -0.2841  0.6382
   25MOL   O14116509   5.668   2.715   0.436 -0.0258 -0.3003 -0.1150
   25MOL   C14216510   5.656   2.899   0.275  0.0981 -0.0388  0.0818
   25MOL   C14316511   5.577   2.979   0.189  0.5677  0.1233 -0.7654
   25MOL   C14416512   5.438   2.993   0.213 -0.4376 -0.4222 -0.0318
   25MOL   C14516513   5.344   3.075   0.133 -0.3087 -0.6606 -0.6898
   25MOL   O14616514   5.284   3.170   0.187  0.2929  0.1166  0.9238
   25MOL   C14716515   5.311   3.032   8.304 -1.2287 -0.0486 -0.5932
   25MOL   C14816516   5.362   2.915   8.247 -0.5352  0.0453 -0.0778
   25MOL   C14916517   5.329   2.875   8.117  0.9948  0.3608 -1.0115
   25MOL   C15016518   5.247   2.961   8.037 -0.2443  0.5572  0.0584
   25MOL   O15116519   5.211   2.939   7.909  0.2208 -0.0766  1.0191
   25MOL   C15216520   5.171   2.816   7.879 -0.0730  0.4137  0.6602
   25MOL   C15316521   5.041   2.780   7.895  0.0826  0.5707  0.1696
   25MOL   C15416522   4.988   2.650   7.861  0.0447 -0.4034 -0.7182
   25MOL   C15516523   5.086   2.554   7.821 -0.1336  1.1733 -0.0781
   25MOL   C15616524   5.220   2.585   7.808 -0.1810 -0.2500  0.7608
   25MOL   C15716525   5.268   2.715   7.837 -0.0706  0.4568  0.8394
   25MOL   C15816526   5.200   3.086   8.094  0.3204  0.2024  0.1968
   25MOL   C15916527   5.234   3.121   8.231  0.1602 -0.5037 -0.1242
   25MOL   H16016528   5.273   2.909   0.331 -0.3315 -0.4670 -0.7517
   25MOL   H16116529   5.406   2.755   0.454 -1.2927  2.0800  1.4273
   25MOL   H16216530   5.763   2.892   0.260  0.1317  0.4159  0.0877
   25MOL   H16316531   5.632   3.036   0.115 -2.3503  1.5558 -1.9333
   25MOL   H16416532   5.430   2.850   8.299 -1.5715 -1.1764 -0.2341
   25MOL   H16516533   5.374   2.782   8.088 -1.1361 -0.2637 -2.4116
   25MOL   H16616534   4.970   2.855   7.927  3.0450  3.7259 -0.3832
   25MOL   H16716535   4.886   2.622   7.882 -0.0979  0.9384  0.4561
   25MOL   H16816536   5.295   2.516   7.772 -0.8115 -0.1034 -0.9119
   25MOL   H16916537   5.370   2.742   7.816  0.3291 -2.1350 -0.7818
   25MOL   H17016538   5.130   3.148   8.040 -0.1381  0.7881  1.4305
   25MOL   H17116539   5.195   3.217   8.263  0.3067  0.0723 -1.6181
   25MOL   C17216540   4.956   2.441   7.423 -0.5082  0.3013 -0.1091
   25MOL   C17316541   4.953   2.457   7.562  0.1615 -0.3812 -1.2878
   25MOL   C17416542   5.050   2.408   7.651 -0.0094  0.2214  0.2513
   25MOL   O17516543   5.041   2.426   7.785  0.4003 -0.6054  0.0311
   25MOL   C17616544   5.156   2.332   7.597  0.4020  0.5846 -0.9619
   25MOL   C17716545   5.163   2.319   7.456  0.2541  0.1162  0.0337
   25MOL   C17816546   5.059   2.367   7.366  0.1512 -0.2825 -0.0522
   25MOL   C17916547   5.067   2.341   7.223  0.2084 -0.6110  0.1094
   25MOL   O18016548   5.014   2.416   7.138  0.2957 -0.0576  0.2660
   25MOL   C18116549   5.136   2.221   7.179 -0.4835 -0.2545  0.2370
   25MOL   C18216550   5.233   2.224   7.077  0.1605  0.7247  0.5430
   25MOL   C18316551   5.283   2.112   7.013 -0.2661 -0.0611  0.4596
   25MOL   C18416552   5.269   1.988   7.076  0.6517  0.1462 -0.6885
   25MOL   O18516553   5.324   1.873   7.030  0.4389 -0.3603  0.3383
   25MOL   C18616554   5.459   1.869   7.035 -0.4454  0.5459  0.0013
   25MOL   C18716555   5.531   1.880   7.152  0.1223 -0.0228 -0.3332
   25MOL   C18816556   5.671   1.865   7.145  0.4121  0.6243 -0.3272
   25MOL   C18916557   5.739   1.868   7.021  0.6273  0.0100 -0.0246
   25MOL   C19016558   5.661   1.864   6.907  0.2873 -0.0871 -0.0620
   25MOL   C19116559   5.518   1.864   6.907 -1.0219  0.8742 -0.9707
   25MOL   C19216560   5.180   1.978   7.182  0.1960  0.3400  0.1208
   25MOL   C19316561   5.112   2.092   7.232  0.6603 -0.3861  0.0167
   25MOL   H19416562   4.872   2.488   7.374 -0.0144  0.1761 -1.0781
   25MOL   H19516563   4.870   2.504   7.612 -0.3334  0.2661 -2.6855
   25MOL   H19616564   5.226   2.298   7.671 -0.3384  2.4121  0.6123
   25MOL   H19716565   5.249   2.267   7.415 -1.7023 -3.2589  0.0614
   25MOL   H19816566   5.245   2.322   7.033  0.2710 -0.3819 -1.9665
   25MOL   H19916567   5.344   2.129   6.925  1.2850 -0.3546  1.4636
   25MOL   H20016568   5.481   1.884   7.247 -0.1718  0.3678 -0.5046
   25MOL   H20116569   5.731   1.861   7.234  2.9117  2.6158 -1.8823
   25MOL   H20216570   5.715   1.877   6.813  4.8117 -3.5639  1.8502
   25MOL   H20316571   5.451   1.868   6.823 -3.2596 -0.1839  0.7143
   25MOL   H20416572   5.157   1.882   7.226  0.1927  0.1265 -0.3486
   25MOL   H20516573   5.041   2.090   7.313 -0.5789  1.4205 -0.9971
   25MOL   C20616574   6.140   2.100   6.885 -0.4694  0.0142  0.0191
   25MOL   C20716575   6.067   1.982   6.915 -0.0884 -0.3466  0.5704
   25MOL   C20816576   5.939   1.993   6.976 -0.8920 -0.5740 -0.1960
   25MOL   O20916577   5.874   1.878   7.019 -0.0246 -0.5145  0.3000
   25MOL   C21016578   5.882   2.118   7.001 -0.5775 -0.1625 -0.1397
   25MOL   C21116579   5.944   2.234   6.963  0.2551 -0.5970  0.0520
   25MOL   C21216580   6.077   2.228   6.909 -0.6086  0.6108  0.2599
   25MOL   C21316581   6.149   2.362   6.883 -0.4017 -0.1310 -0.4216
   25MOL   O21416582   6.124   2.457   6.958 -0.4735  0.2192  0.3210
   25MOL   C21516583   6.251   2.371   6.770  0.7163 -0.6781 -0.9610
   25MOL   C21616584   6.349   2.478   6.779 -0.8498  0.6241  0.1209
   25MOL   C21716585   6.451   2.478   6.679  0.5112  0.0177  0.1820
   25MOL   C21816586   6.438   2.397   6.559 -0.5111  0.0024  0.6709
   25MOL   O21916587   6.533   2.408   6.459  1.0963 -0.2323  0.6163
   25MOL   C22016588   6.558   2.303   6.378 -0.5488 -0.4695  0.4483
   25MOL   C22116589   6.498   2.295   6.249 -0.3633 -0.2955  0.4033
   25MOL   C22216590   6.537   2.189   6.160  0.1555 -0.1466  0.0912
   25MOL   C22316591   6.629   2.093   6.198 -0.3408  0.1984  0.4559
   25MOL   C22416592   6.688   2.103   6.325 -0.2845  0.3954  0.3428
   25MOL   C22516593   6.655   2.209   6.419  0.4070  0.2246 -0.3816
   25MOL   C22616594   6.331   2.303   6.557 -0.0123  0.0588 -0.1663
   25MOL   C22716595   6.245   2.284   6.662  0.2640  0.2919 -0.1492
   25MOL   H22816596   6.245   2.098   6.860 -0.5451  0.0436 -0.2980
   25MOL   H22916597   6.121   1.889   6.901  1.4887  0.5648  0.5904
   25MOL   H23016598   5.784   2.116   7.045 -0.2971 -0.3822  0.4788
   25MOL   H23116599   5.891   2.328   6.972  2.2286  0.4544  1.0444
   25MOL   H23216600   6.358   2.549   6.860  0.0949  0.7034 -0.0530
   25MOL   H23316601   6.536   2.544   6.681  0.2313  0.4274 -0.8905
   25MOL   H23416602   6.421   2.368   6.224  0.7267  0.6504 -0.2192
   25MOL   H23516603   6.482   2.171   6.068  2.5650 -2.1301 -1.0386
   25MOL   H23616604   6.754   2.027   6.363 -0.2242  0.3277  0.1018
   25MOL   H23716605   6.699   2.206   6.518 -1.2872 -1.0743  0.3645
   25MOL   H23816606   6.335   2.227   6.480  0.2233  0.9917 -1.0857
   25MOL   H23916607   6.168   2.209   6.663  0.0486  0.5060 -0.4392
   25MOL   C24016608   6.647   1.968   5.745 -0.2383 -0.2694  0.2463
   25MOL   C24116609   6.621   1.949   5.883  0.2958  0.3973 -0.4236
   25MOL   C24216610   6.686   2.025   5.980  0.6774 -0.6016  0.3505
   25MOL   O24316611   6.656   1.995   6.113  0.4770 -0.0215  0.2246
   25MOL   C24416612   6.779   2.124   5.939  0.4500  0.2883 -0.0365
   25MOL   C24516613   6.808   2.144   5.804 -0.3041  0.8386  1.4278
   25MOL   C24616614   6.743   2.066   5.707 -0.4179 -0.6396  0.4302
   25MOL   C24716615   6.761   2.095   5.563 -0.6462  0.6766 -0.5508
   25MOL   O24816616   6.685   2.049   5.478  0.8537  0.1594  0.2002
   25MOL   C24916617   6.879   2.182   5.518 -0.1288  0.8151 -0.1060
   25MOL   C25016618   6.870   2.325   5.526  0.0026  0.7529  0.3967
   25MOL   C25116619   6.975   2.397   5.470  0.0280 -0.1413  0.2516
   25MOL   C25216620   7.087   2.332   5.415  0.1092  0.2283 -0.8390
   25MOL   O25316621   7.188   2.411   5.384  0.3880  0.2501  0.3169
   25MOL   C25416622   7.187   2.463   5.259  0.1682  0.4188  0.3284
   25MOL   C25516623   7.089   2.553   5.208 -0.1844 -0.4031 -0.0225
   25MOL   C25616624   7.090   2.590   5.072 -0.5007 -0.5258 -0.1744
   25MOL   C25716625   7.197   2.552   4.987 -0.3122 -0.2346 -0.5415
   25MOL   C25816626   7.304   2.472   5.038  0.0684 -0.8271  0.5456
   25MOL   C25916627   7.294   2.424   5.170 -0.0268 -0.1494 -0.5876
   25MOL   C26016628   7.090   2.192   5.401 -0.5441 -0.1207  0.5354
   25MOL   C26116629   6.984   2.118   5.450 -0.1998  0.1921  0.4600
   25MOL   H26216630   6.609   1.913   5.660 -0.1798 -0.5299  0.3911
   25MOL   H26316631   6.557   1.867   5.911 -0.6463  0.5915 -1.9127
   25MOL   H26416632   6.829   2.172   6.022  3.2918  1.0888 -2.1236
   25MOL   H26516633   6.883   2.221   5.790  1.0609 -0.4408  1.6260
   25MOL   H26616634   6.788   2.382   5.566 -0.7794  0.7231 -1.1389
   25MOL   H26716635   6.973   2.505   5.477 -1.1045 -0.1846  0.8530
   25MOL   H26816636   7.007   2.584   5.271 -1.1154  0.0002 -1.4092
   25MOL   H26916637   7.008   2.644   5.026 -0.3685  0.8487  1.1386
   25MOL   H27016638   7.381   2.452   4.964 -0.6393  0.2800 -0.5135
   25MOL   H27116639   7.357   2.342   5.202  0.1575 -0.4796 -1.8040
   25MOL   H27216640   7.171   2.139   5.354 -0.1873 -0.0918  1.1070
   25MOL   H27316641   6.980   2.011   5.444  1.5628 -0.0664  3.0511
   25MOL   C27416642   6.924   2.584   4.612  0.1124  0.0700 -0.2064
   25MOL   C27516643   7.022   2.630   4.704  0.1267 -0.4762  0.4337
   25MOL   C27616644   7.112   2.540   4.768 -0.6148 -0.6485 -0.1946
   25MOL   O27716645   7.198   2.597   4.856  0.2805 -0.4953  0.5837
   25MOL   C27816646   7.114   2.404   4.737  0.0681 -0.2221 -0.2833
   25MOL   C27916647   7.018   2.362   4.642 -0.2102 -0.3970 -0.6992
   25MOL   C28016648   6.921   2.447   4.590  0.4425  0.4315  0.1552
   25MOL   C28116649   6.811   2.382   4.504  0.4721  0.7577  0.6050
   25MOL   O28216650   6.831   2.277   4.434  0.2130  0.3061  0.3992
   25MOL   C28316651   6.685   2.458   4.496 -0.1867  0.0334 -0.8263
   25MOL   C28416652   6.607   2.464   4.376  0.4889  0.1586 -0.1919
   25MOL   C28516653   6.493   2.543   4.377  0.8351  0.3830 -0.8201
   25MOL   C28616654   6.438   2.601   4.494 -0.0390 -0.6633 -0.3625
   25MOL   O28716655   6.313   2.658   4.487 -0.5125  0.3774 -0.1782
   25MOL   C28816656   6.209   2.574   4.521  0.2045 -0.2424  0.0577
   25MOL   C28916657   6.145   2.495   4.422 -0.7371 -0.2073 -0.2250
   25MOL   C29016658   6.044   2.404   4.463 -0.6890 -0.0400 -0.2105
   25MOL   C29116659   6.003   2.398   4.599 -0.5113  0.4302  0.2366
   25MOL   C29216660   6.071   2.478   4.697 -0.1875 -0.1085 -0.0827
   25MOL   C29316661   6.169   2.571   4.656 -0.8294 -0.4241 -0.4763
   25MOL   C29416662   6.512   2.585   4.612  0.3831 -0.3563 -0.1098
   25MOL   C29516663   6.632   2.518   4.616  0.3520  0.0704  0.5106
   25MOL   H29616664   6.846   2.650   4.577  1.9293 -0.0396 -4.7545
   25MOL   H29716665   7.018   2.728   4.749  2.8176  0.7119 -1.6889
   25MOL   H29816666   7.177   2.340   4.798  1.3964  1.1203 -0.2239
   25MOL   H29916667   7.010   2.255   4.627  0.0642 -0.7050  1.2012
   25MOL   H30016668   6.657   2.438   4.283  0.0182  2.2767 -1.0670
   25MOL   H30116669   6.439   2.558   4.285 -0.3199 -1.3182 -0.4404
   25MOL   H30216670   6.186   2.489   4.322  0.8806  2.0495  0.2729
   25MOL   H30316671   6.009   2.340   4.383 -2.7439 -0.7622  1.2230
   25MOL   H30416672   6.049   2.463   4.802  0.2027 -0.2538 -0.0216
   25MOL   H30516673   6.221   2.629   4.730 -1.2997 -0.1447 -0.3637
   25MOL   H30616674   6.475   2.627   4.704  1.4485  0.6796 -0.1349
   25MOL   H30716675   6.692   2.521   4.706 -0.1736 -0.1911  0.8742
   25MOL   C30816676   5.661   2.422   4.880  0.4666 -0.2502 -0.3482
   25MOL   C30916677   5.736   2.414   4.767 -0.2422 -0.0342  0.0494
   25MOL   C31016678   5.840   2.320   4.751  0.4664 -0.4823  0.0249
   25MOL   O31116679   5.903   2.311   4.629  0.0965  0.1104 -0.2165
   25MOL   C31216680   5.872   2.245   4.863  0.0936 -0.4043  0.1391
   25MOL   C31316681   5.795   2.254   4.979  0.3195  0.4257 -0.2094
   25MOL   C31416682   5.688   2.345   4.991 -0.0333  0.6304  0.3619
   25MOL   C31516683   5.610   2.359   5.120 -0.1045  0.7075 -0.1145
   25MOL   O31616684   5.577   2.474   5.152  0.1468  0.1038  0.6693
   25MOL   C31716685   5.556   2.241   5.195  0.6073 -0.0536 -0.8812
   25MOL   C31816686   5.526   2.119   5.136 -0.0718  0.0693 -0.5075
   25MOL   C31916687   5.455   2.026   5.205  0.3946  0.0941 -0.6348
   25MOL   C32016688   5.416   2.051   5.340 -0.4949  0.6529 -0.0399
   25MOL   O32116689   5.356   1.951   5.411 -0.0041 -0.0785 -0.1698
   25MOL   C32216690   5.242   1.891   5.363  0.2348 -0.2156  0.7922
   25MOL   C32316691   5.241   1.753   5.353  0.0166 -0.7597  0.8475
   25MOL   C32416692   5.127   1.681   5.306 -0.4675  0.0433 -0.1007
   25MOL   C32516693   5.017   1.752   5.263 -0.1589  0.3618  0.3547
   25MOL   C32616694   5.026   1.897   5.263  0.0478  0.9541  0.6287
   25MOL   C32716695   5.136   1.966   5.309  0.2797  0.3380  0.8743
   25MOL   C32816696   5.458   2.168   5.404  0.9590 -0.1419  0.3481
   25MOL   C32916697   5.518   2.268   5.327  0.7793 -0.0713 -0.4031
   25MOL   H33016698   5.595   2.506   4.890  0.0599 -0.2920 -2.4973
   25MOL   H33116699   5.720   2.483   4.686 -1.0102  1.5574  1.5217
   25MOL   H33216700   5.956   2.177   4.866  0.7928  0.2496 -3.1518
   25MOL   H33316701   5.824   2.180   5.051 -0.9374 -1.3842 -1.5163
   25MOL   H33416702   5.536   2.106   5.029  0.0098 -1.3592 -0.3283
   25MOL   H33516703   5.414   1.935   5.162  0.7837  0.0661 -0.9541
   25MOL   H33616704   5.320   1.693   5.396 -2.2728 -3.1286  1.8643
   25MOL   H33716705   5.126   1.573   5.307  0.3932  0.0416  1.0474
   25MOL   H33816706   4.944   1.954   5.223 -1.4779 -0.5622  1.5288
   25MOL   H33916707   5.130   2.074   5.315 -0.8547  0.2054  2.3910
   25MOL   H34016708   5.430   2.182   5.507  3.2097 -2.3442  1.3157
   25MOL   H34116709   5.533   2.364   5.376  0.5703 -0.7720  1.0791
   25MOL   C34216710   4.550   1.802   5.315 -0.7184  0.3405 -0.1241
   25MOL   C34316711   4.665   1.763   5.236  0.2327 -0.3129  0.4668
   25MOL   C34416712   4.786   1.730   5.298 -0.1515  0.4263  0.9944
   25MOL   O34516713   4.899   1.692   5.225  0.2206  0.1535 -0.2889
   25MOL   C34616714   4.791   1.737   5.437  0.6079 -0.7819 -0.4916
   25MOL   C34716715   4.684   1.776   5.517  0.7795 -0.6398 -0.1545
   25MOL   C34816716   4.562   1.798   5.455 -0.5724 -1.2060 -0.1052
   25MOL   C34916717   4.448   1.858   5.539  0.4021  0.3020 -0.4736
   25MOL   O35016718   4.437   1.829   5.659 -0.0013  0.0169 -0.0060
   25MOL   C35116719   4.372   1.965   5.477 -0.1121  0.0646 -0.9473
   25MOL   C35216720   4.440   2.081   5.430  0.3738 -0.0726 -0.0888
   25MOL   C35316721   4.365   2.191   5.383  0.2089 -0.3832 -0.2499
   25MOL   C35416722   4.221   2.174   5.388  0.3781  0.8875  0.2816
   25MOL   O35516723   4.145   2.274   5.341 -0.2863 -0.3310 -0.0142
   25MOL   C35616724   4.078   2.241   5.222  0.1384  0.0428 -0.3629
   25MOL   C35716725   4.135   2.196   5.099  0.2422  0.4283 -0.0096
   25MOL   C35816726   4.049   2.174   4.986  0.1555  0.2085 -0.2235
   25MOL   C35916727   3.912   2.202   4.993 -0.6828 -0.2517  0.5159
   25MOL   C36016728   3.848   2.253   5.109 -0.2348  0.3213 -0.1868
   25MOL   C36116729   3.940   2.276   5.218 -0.2113 -0.4372  0.4867
   25MOL   C36216730   4.157   2.059   5.440 -0.9614  0.2607 -0.1770
   25MOL   C36316731   4.235   1.959   5.497  0.2487  0.0736 -0.2320
   25MOL   H36416732   4.459   1.824   5.261 -0.8311 -1.8400 -0.8960
   25MOL   H36516733   4.653   1.756   5.129  0.3425  1.9124  0.2891
   25MOL   H36616734   4.884   1.715   5.487  0.1290  0.4234  0.9292
   25MOL   H36716735   4.705   1.772   5.623 -0.6752 -0.5066  0.1471
   25MOL   H36816736   4.546   2.074   5.416  0.0372 -2.8513 -1.6320
   25MOL   H36916737   4.398   2.285   5.342 -3.3332  0.8655 -0.4624
   25MOL   H37016738   4.239   2.170   5.088  0.1124  0.0191 -0.2709
   25MOL   H37116739   4.092   2.135   4.895  1.6694  1.9760 -0.3105
   25MOL   H37216740   3.744   2.275   5.125  0.3455  2.8567  0.2846
   25MOL   H37316741   3.901   2.324   5.307 -2.9723  1.0808 -1.4720
   25MOL   H37416742   4.049   2.053   5.436 -0.9143  0.6656 -2.4841
   25MOL   H37516743   4.195   1.879   5.557 -0.9220 -0.4552 -1.6868
   25MOL   C37616744   3.473   2.135   4.861 -0.2803 -0.8598 -0.0532
   25MOL   C37716745   3.606   2.107   4.891 -0.5844  0.0615  0.4480
   25MOL   C37816746   3.706   2.205   4.865  0.2444 -0.3446  0.0066
   25MOL   O37916747   3.839   2.170   4.880  0.2190 -0.2851 -0.3162
   25MOL   C38016748   3.672   2.333   4.830 -0.2103  0.3682 -0.1669
   25MOL   C38116749   3.538   2.365   4.803  0.2891 -0.1351  0.3632
   25MOL   C38216750   3.439   2.264   4.825 -0.6855 -0.4165  0.7521
   25MOL   C38316751   3.298   2.298   4.781 -0.5842 -0.7904 -0.5732
   25MOL   O38416752   3.248   2.400   4.835  1.0635  0.1443 -0.4107
   25MOL   C38516753   3.232   2.214   4.674 -0.7055 -0.1698  0.7173
   25MOL   C38616754   3.301   2.137   4.576 -0.4716 -0.0964 -0.5467
   25MOL   C38716755   3.230   2.084   4.468  0.0521  0.1760 -0.2440
   25MOL   C38816756   3.090   2.078   4.474  0.3352  0.4833 -0.2004
   25MOL   O38916757   3.012   2.007   4.392  0.0451  1.0800  0.1373
   25MOL   C39016758   3.028   1.871   4.367  0.5238  0.7181 -0.3786
   25MOL   C39116759   2.996   1.812   4.244 -0.0370  0.5297  0.6714
   25MOL   C39216760   3.017   1.673   4.227 -0.5849  0.1468 -0.1841
   25MOL   C39316761   3.078   1.592   4.326  0.2801  0.4542 -0.7524
   25MOL   C39416762   3.104   1.651   4.452 -0.1852 -0.7151 -0.1747
   25MOL   C39516763   3.093   1.788   4.466  0.0111 -0.5949  0.2659
   25MOL   C39616764   3.020   2.155   4.566 -0.2047 -0.4810  0.5118
   25MOL   C39716765   3.090   2.222   4.661 -0.2707  0.0856 -0.7376
   25MOL   H39816766   3.400   2.062   4.891 -0.2837 -0.1488  1.7242
   25MOL   H39916767   3.631   2.012   4.935 -0.5481 -0.1988 -0.1373
   25MOL   H40016768   3.754   2.401   4.813 -0.3104  0.4835 -0.1859
   25MOL   H40116769   3.503   2.461   4.767 -0.7887 -0.2726  1.0240
   25MOL   H40216770   3.409   2.130   4.575 -0.5189 -0.6567 -1.7552
   25MOL   H40316771   3.285   2.050   4.382 -0.7533 -0.7876 -0.3985
   25MOL   H40416772   2.969   1.874   4.159  0.6157  1.2281  0.9721
   25MOL   H40516773   2.989   1.621   4.137 -0.1910  1.3239 -0.9982
   25MOL   H40616774   3.147   1.593   4.533 -0.0035  1.2321  1.1634
   25MOL   H40716775   3.142   1.825   4.554  0.2172 -3.7007  1.5250
   25MOL   H40816776   2.912   2.165   4.570 -0.1571 -0.3357  1.6632
   25MOL   H40916777   3.031   2.274   4.735 -0.4217 -2.4641  1.0097
   25MOL   C41016778   3.398   1.320   4.467  0.3600 -0.2324 -0.2164
   25MOL   C41116779   3.311   1.384   4.381  0.4500  0.2219  0.8872
   25MOL   C41216780   3.174   1.378   4.383 -0.2829 -0.2274  0.8437
   25MOL   O41316781   3.088   1.458   4.303  0.9768 -0.0051  0.6599
   25MOL   C41416782   3.119   1.291   4.475 -0.7625 -0.1919 -0.7511
   25MOL   C41516783   3.202   1.208   4.555 -0.6496 -0.9100 -0.0559
   25MOL   C41616784   3.343   1.223   4.548 -0.6588 -0.5808  0.0965
   25MOL   C41716785   3.439   1.147   4.643  0.3320 -0.8066  0.5766
   25MOL   O41816786   3.553   1.134   4.615 -0.5763 -0.1984 -0.0282
   25MOL   C41916787   3.381   1.097   4.764  0.5277  0.0870  0.0273
   25MOL   C42016788   3.313   1.182   4.860 -0.6920  0.1053  0.4367
   25MOL   C42116789   3.272   1.139   4.993  0.1109  0.1885  0.8092
   25MOL   C42216790   3.297   1.002   5.027  0.4069 -0.2208  0.4423
   25MOL   O42316791   3.276   0.962   5.156 -0.0829  0.2564  0.4258
   25MOL   C42416792   3.355   1.033   5.250 -0.0758 -0.4390  0.0755
   25MOL   C42516793   3.296   1.099   5.360  0.5083 -0.0169  0.3301
   25MOL   C42616794   3.379   1.159   5.461 -0.5535  0.4261 -0.2194
   25MOL   C42716795   3.517   1.157   5.452  0.0389 -0.2423  0.3405
   25MOL   C42816796   3.574   1.094   5.339  0.0557 -0.3118  0.4592
   25MOL   C42916797   3.499   1.031   5.233  0.5400  0.4369  0.2491
   25MOL   C43016798   3.353   0.916   4.935  0.4181 -0.6534  0.1100
   25MOL   C43116799   3.391   0.962   4.803 -0.4174  0.0245  0.2597
   25MOL   H43216800   3.499   1.360   4.465  0.6378 -0.7717  1.8267
   25MOL   H43316801   3.366   1.444   4.309  0.2673 -2.1230 -1.2752
   25MOL   H43416802   3.012   1.282   4.490 -0.5070 -0.2729  1.1452
   25MOL   H43516803   3.161   1.129   4.616  0.2289 -2.5964 -1.6169
   25MOL   H43616804   3.291   1.283   4.831  1.1005  0.0133 -1.3413
   25MOL   H43716805   3.230   1.206   5.066 -0.1476 -1.3095  2.0855
   25MOL   H43816806   3.188   1.100   5.366  0.4232 -2.0076 -0.3480
   25MOL   H43916807   3.329   1.198   5.549 -0.0604  0.4181  0.0676
   25MOL   H44016808   3.681   1.101   5.326  0.6197 -0.1542  4.4281
   25MOL   H44116809   3.555   0.991   5.150  2.4859  1.3077  1.1226
   25MOL   H44216810   3.361   0.812   4.962 -1.4246 -1.3660 -1.9112
   25MOL   H44316811   3.419   0.887   4.731 -2.0454  0.0980 -0.4591
   25MOL   C44416812   3.605   1.589   5.564  0.0804  0.4118 -1.1603
   25MOL   C44516813   3.618   1.458   5.515 -0.7681  0.7311 -0.5844
   25MOL   C44616814   3.568   1.348   5.583 -0.4891  0.0091  0.0212
   25MOL   O44716815   3.594   1.210   5.553  0.0589  0.0873  0.4169
   25MOL   C44816816   3.488   1.378   5.699 -0.1982  0.0209 -0.3000
   25MOL   C44916817   3.462   1.514   5.737 -0.0558 -0.8131 -0.7779
   25MOL   C45016818   3.528   1.623   5.674 -0.1929  0.8086 -0.4478
   25MOL   C45116819   3.509   1.760   5.731  0.4725 -0.2099 -0.3473
   25MOL   O45216820   3.412   1.787   5.808  0.1535 -0.0191 -0.0723
   25MOL   C45316821   3.597   1.870   5.687  0.2076  0.0939 -0.5404
   25MOL   C45416822   3.530   1.984   5.649  0.1141 -0.8035  0.5579
   25MOL   C45516823   3.609   2.091   5.592  0.0367 -0.4169 -0.3696
   25MOL   C45616824   3.749   2.084   5.584  0.2446 -0.3116  0.9893
   25MOL   O45716825   3.819   2.189   5.520 -0.2185 -0.0441 -0.1555
   25MOL   C45816826   3.861   2.289   5.607 -0.5857  0.5411  0.1343
   25MOL   C45916827   3.994   2.300   5.644  0.1772  1.0833  0.2190
   25MOL   C46016828   4.025   2.410   5.722  0.1174  0.2647  0.4381
   25MOL   C46116829   3.928   2.508   5.757 -0.0852 -1.3309  0.4229
   25MOL   C46216830   3.793   2.497   5.715  0.4257 -1.1123 -0.2325
   25MOL   C46316831   3.760   2.386   5.639 -0.3577 -0.7598 -0.6117
   25MOL   C46416832   3.814   1.969   5.638 -0.1156  0.3771 -0.7079
   25MOL   C46516833   3.739   1.859   5.685  0.0719  0.7997  1.1686
   25MOL   H46616834   3.672   1.664   5.524  0.5755 -0.3859 -1.8499
   25MOL   H46716835   3.671   1.450   5.421  0.5009 -1.6053  0.2878
   25MOL   H46816836   3.439   1.299   5.755  1.3090  0.8328  2.2667
   25MOL   H46916837   3.391   1.537   5.814  1.8149  1.3306  0.3883
   25MOL   H47016838   3.423   1.997   5.653 -0.0772 -2.6593  2.0094
   25MOL   H47116839   3.563   2.179   5.551  2.4972  1.0768 -0.0225
   25MOL   H47216840   4.078   2.238   5.616 -0.7083  0.3522 -0.8447
   25MOL   H47316841   4.123   2.426   5.764  0.7938  0.2738 -1.1328
   25MOL   H47416842   3.727   2.580   5.738  0.6369 -0.4161 -2.0763
   25MOL   H47516843   3.654   2.375   5.619 -0.9847  1.1722  1.4295
   25MOL   H47616844   3.921   1.961   5.633 -0.0792 -0.9044  1.4129
   25MOL   H47716845   3.783   1.764   5.713  3.1477  1.8947  0.2861
   25MOL   C47816846   3.878   2.671   6.181  0.5245  0.1519 -0.8088
   25MOL   C47916847   3.877   2.672   6.039  0.5506 -1.1246  0.1844
   25MOL   C48016848   3.978   2.619   5.959  0.1886 -0.9007  0.3095
   25MOL   O48116849   3.971   2.621   5.818 -0.7807 -0.1363 -0.0745
   25MOL   C48216850   4.096   2.574   6.019  0.1190  0.2345  0.0983
   25MOL   C48316851   4.104   2.575   6.160 -0.6973  0.5966 -0.0750
   25MOL   C48416852   3.996   2.616   6.246 -0.3330  0.1720  0.4781
   25MOL   C48516853   4.012   2.598   6.391 -1.0858  0.0283  0.1269
   25MOL   O48616854   4.007   2.482   6.437 -0.0327  0.4663 -0.1463
   25MOL   C48716855   4.025   2.722   6.477 -0.1187  0.1538  0.2313
   25MOL   C48816856   4.061   2.691   6.612 -0.4711  0.0486  0.6485
   25MOL   C48916857   4.085   2.802   6.696  0.7454 -0.4963  0.1643
   25MOL   C49016858   4.079   2.933   6.654 -0.5481  0.9189 -0.6564
   25MOL   O49116859   4.109   3.040   6.736  1.0527  0.2591 -0.4000
   25MOL   C49216860   4.004   3.124   6.764 -0.5739  0.3368  0.4503
   25MOL   C49316861   4.013   3.267   6.749 -0.8029 -0.1969  0.0956
   25MOL   C49416862   3.904   3.349   6.774  0.1490 -0.3336  0.3481
   25MOL   C49516863   3.783   3.296   6.823  0.5356 -0.0041  0.7914
   25MOL   C49616864   3.776   3.156   6.845  0.6162  0.0979 -0.5111
   25MOL   C49716865   3.882   3.073   6.815 -0.2668 -0.1418  0.4080
   25MOL   C49816866   4.048   2.957   6.520  0.1033 -0.0340 -1.0624
   25MOL   C49916867   4.013   2.856   6.430  0.1285  0.4387  0.4055
   25MOL   H50016868   3.795   2.707   6.240  0.7718  0.5351 -0.6907
   25MOL   H50116869   3.791   2.709   5.985 -0.1716  0.7905  2.5557
   25MOL   H50216870   4.171   2.552   5.945 -1.7263 -1.9056 -1.2095
   25MOL   H50316871   4.194   2.534   6.205 -1.8955 -1.1056  0.8075
   25MOL   H50416872   4.081   2.589   6.639 -1.9681 -0.0145  1.5419
   25MOL   H50516873   4.117   2.796   6.799 -1.4209  3.3627  1.1427
   25MOL   H50616874   4.102   3.298   6.696 -0.1854 -1.0311  0.6335
   25MOL   H50716875   3.924   3.454   6.762 -0.8395 -0.4529 -2.5592
   25MOL   H50816876   3.691   3.106   6.888  0.8197  0.5191  0.4051
   25MOL   H50916877   3.873   2.967   6.837 -1.9436 -0.1478 -0.2046
   25MOL   H51016878   4.042   3.058   6.482  0.8369  1.2461  2.0814
   25MOL   H51116879   3.986   2.876   6.327  1.0437 -1.7879 -0.3109
   25MOL   C51216880   3.832   3.682   7.007  0.6809  0.1660 -0.5351
   25MOL   C51316881   3.802   3.548   6.981 -0.7757  0.8023  0.5544
   25MOL   C51416882   3.710   3.507   6.885 -0.0104  0.2267 -0.4329
   25MOL   O51516883   3.677   3.377   6.853 -0.3179  0.2168  0.1412
   25MOL   C51616884   3.644   3.607   6.812  0.2875  0.5138  0.0493
   25MOL   C51716885   3.664   3.744   6.840  0.0450  0.3581  0.0881
   25MOL   C51816886   3.768   3.783   6.929 -0.2956 -0.1545 -0.6366
   25MOL   C51916887   3.782   3.927   6.953 -0.3406  0.6742 -0.4087
   25MOL   O52016888   3.687   4.001   6.935 -0.1603 -0.1073 -0.6056
   25MOL   C52116889   3.915   3.973   6.988 -0.3959 -0.6838  0.3066
   25MOL   C52216890   3.926   4.080   7.071  0.4127 -0.1543  0.5421
   25MOL   C52316891   4.052   4.120   7.115  0.3743 -0.3133  0.5198
   25MOL   C52416892   4.169   4.041   7.083  0.3216  0.2387  0.1991
   25MOL   O52516893   4.293   4.080   7.130  0.2200 -0.4990 -0.0080
   25MOL   C52616894   4.298   4.124   7.257  0.0180  0.2347 -1.0007
   25MOL   C52716895   4.234   4.060   7.368  0.1236  0.5921  0.4587
   25MOL   C52816896   4.252   4.110   7.505  0.2605  0.3405 -0.3917
   25MOL   C52916897   4.345   4.218   7.522 -0.2030 -0.2922 -0.0080
   25MOL   C53016898   4.404   4.281   7.410  0.6635 -0.4567 -0.4032
   25MOL   C53116899   4.379   4.239   7.280  0.4292  0.4332  0.8970
   25MOL   C53216900   4.161   3.929   6.999  0.0501 -0.0047 -0.1634
   25MOL   C53316901   4.034   3.894   6.951  0.5713 -0.7911  0.3128
   25MOL   H53416902   3.904   3.710   7.083  1.1999 -2.1468 -0.1488
   25MOL   H53516903   3.844   3.471   7.044 -0.4183 -0.1874 -0.8580
   25MOL   H53616904   3.578   3.582   6.730 -0.0583  0.1991  0.4163
   25MOL   H53716905   3.597   3.813   6.792 -0.0111 -0.7440 -1.4530
   25MOL   H53816906   3.839   4.139   7.098 -0.6618 -2.4958  2.2980
   25MOL   H53916907   4.060   4.208   7.177 -1.2714  2.0328 -2.5049
   25MOL   H54016908   4.170   3.974   7.357  2.1223 -0.7303 -1.1939
   25MOL   H54116909   4.213   4.048   7.585  0.9619 -0.2340 -0.4895
   25MOL   H54216910   4.460   4.371   7.433 -1.4060  0.6748  0.4413
   25MOL   H54316911   4.420   4.294   7.196  0.5349 -0.8136  0.1194
   25MOL   H54416912   4.248   3.877   6.961 -1.2781 -2.3345 -0.1326
   25MOL   H54516913   4.018   3.818   6.876 -2.5985 -1.1714  1.3136
   25MOL   C54616914   4.117   4.372   7.863 -0.3058 -0.6647 -0.2802
   25MOL   C54716915   4.202   4.284   7.793 -0.2797  0.0297 -0.0179
   25MOL   C54816916   4.298   4.338   7.706  1.0417  0.0781 -0.3516
   25MOL   O54916917   4.383   4.252   7.645  0.2667  0.2525  0.2757
   25MOL   C55016918   4.302   4.479   7.685  0.9029 -0.0884  0.0484
   25MOL   C55116919   4.210   4.563   7.747  0.3249  0.7096 -0.2167
   25MOL   C55216920   4.114   4.511   7.835  0.4802  0.2583  0.0603
   25MOL   C55316921   4.013   4.606   7.894  0.2550 -0.1133 -0.1137
   25MOL   O55416922   3.991   4.607   8.019  0.5603  0.2334 -0.1501
   25MOL   C55516923   3.948   4.702   7.799  0.6582  0.2053 -0.5316
   25MOL   C55616924   3.893   4.657   7.678  0.4307 -0.5056  0.2425
   25MOL   C55716925   3.813   4.742   7.602  0.2422 -1.8275  0.3080
   25MOL   C55816926   3.798   4.880   7.643  0.5151 -0.3183  0.2544
   25MOL   O55916927   3.730   4.971   7.565  0.1530 -0.0303 -0.3413
   25MOL   C56016928   3.595   4.945   7.547  0.3647 -0.4204  0.6541
   25MOL   C56116929   3.509   4.939   7.661  0.2704  0.5295 -0.0825
   25MOL   C56216930   3.371   4.927   7.648  0.6778  1.0828  0.9784
   25MOL   C56316931   3.315   4.916   7.518 -0.1235  0.1360 -0.4778
   25MOL   C56416932   3.398   4.925   7.403 -0.3406 -0.0184 -0.1930
   25MOL   C56516933   3.543   4.940   7.417  0.1692  0.4391  0.6715
   25MOL   C56616934   3.846   4.928   7.768  0.3322  0.2931 -0.0193
   25MOL   C56716935   3.925   4.837   7.847  0.2831 -0.2613  0.8211
   25MOL   H56816936   4.043   4.327   7.928 -1.3078  2.7742  1.0980
   25MOL   H56916937   4.193   4.178   7.814  1.0971 -0.0131  0.3997
   25MOL   H57016938   4.380   4.518   7.621  2.8025 -0.2089  2.2374
   25MOL   H57116939   4.219   4.670   7.738 -1.7830  0.8510 -0.9045
   25MOL   H57216940   3.889   4.551   7.658 -3.2221 -0.4135  0.2668
   25MOL   H57316941   3.770   4.698   7.513  1.0635  0.2207 -1.1411
   25MOL   H57416942   3.552   4.948   7.760  3.5059  0.9628 -1.4654
   25MOL   H57516943   3.312   4.918   7.739  2.8208  1.0537  2.4122
   25MOL   H57616944   3.356   4.933   7.304 -1.3489  0.6655  0.2872
   25MOL   H57716945   3.618   4.944   7.340  1.3295  1.8247  1.8509
   25MOL   H57816946   3.840   5.033   7.792  0.7795  0.1802  0.5770
   25MOL   H57916947   3.956   4.864   7.947  2.5740  0.2193 -0.0024
   25MOL   C58016948   2.974   4.746   7.766 -0.1604  0.4601  1.0006
   25MOL   C58116949   3.062   4.752   7.650  0.0606 -0.4221  0.0179
   25MOL   C58216950   3.098   4.876   7.597 -0.7182 -0.3311 -0.1112
   25MOL   O58316951   3.180   4.893   7.486 -0.1096  0.2713 -0.5416
   25MOL   C58416952   3.040   4.994   7.648 -0.3698 -0.1706 -0.3280
   25MOL   C58516953   2.943   4.985   7.750 -0.3636 -1.0684 -0.2334
   25MOL   C58616954   2.916   4.864   7.814  0.2466  0.9153 -0.0960
   25MOL   C58716955   2.833   4.854   7.929 -0.3203 -0.8021 -0.2972
   25MOL   O58816956   2.884   4.842   8.041  0.3395 -0.2371  0.0337
   25MOL   C58916957   2.680   4.852   7.909  0.1443 -0.6361  0.4803
   25MOL   C59016958   2.595   4.831   8.021  0.8265 -0.2386  0.5048
   25MOL   C59116959   2.453   4.818   8.004 -0.5190 -0.4050  0.6961
   25MOL   C59216960   2.401   4.834   7.877  0.4695  0.1597 -0.3580
   25MOL   O59316961   2.270   4.800   7.859  0.1326  0.2192  0.6064
   25MOL   C59416962   2.174   4.881   7.917  0.1050 -0.1005 -0.3097
   25MOL   C59516963   2.194   5.012   7.968 -0.4408  0.0938 -0.1988
   25MOL   C59616964   2.094   5.080   8.039 -0.8004  0.2513 -0.7051
   25MOL   C59716965   1.966   5.020   8.052  0.0626  0.6976  0.0426
   25MOL   C59816966   1.940   4.894   7.985 -0.3603  0.9966  0.0860
   25MOL   C59916967   2.045   4.826   7.924  0.5981 -0.0782 -0.0961
   25MOL   C60016968   2.479   4.862   7.765 -0.3880 -0.2321 -0.2937
   25MOL   C60116969   2.618   4.866   7.779  0.8694 -0.2929  0.5451
   25MOL   H60216970   2.943   4.654   7.813 -0.6538  0.2007  0.1987
   25MOL   H60316971   3.109   4.666   7.605 -0.6563  0.0974 -1.7343
   25MOL   H60416972   3.062   5.093   7.611  1.6865  0.4962  2.4687
   25MOL   H60516973   2.895   5.078   7.777 -1.9280 -2.2451  1.1551
   25MOL   H60616974   2.636   4.810   8.118  0.0087  1.8411  1.3281
   25MOL   H60716975   2.385   4.798   8.086 -1.7835 -0.2951 -0.3138
   25MOL   H60816976   2.294   5.051   7.956 -0.9050  1.9491  1.7237
   25MOL   H60916977   2.114   5.182   8.071  0.0588 -0.2971  0.5767
   25MOL   H61016978   1.845   4.846   7.998  0.9793 -1.8848 -0.2944
   25MOL   H61116979   2.030   4.724   7.891 -0.3036  0.4152 -1.2331
   25MOL   H61216980   2.433   4.868   7.668  1.1260 -0.0632 -1.0289
   25MOL   H61316981   2.677   4.879   7.690 -0.6137 -1.9851 -0.7300
   25MOL   C61416982   1.739   5.373   7.955  0.6551  0.9894 -0.0404
   25MOL   C61516983   1.776   5.238   7.973  0.2455  0.0266 -0.4666
   25MOL   C61616984   1.835   5.206   8.091 -0.6007 -0.4539 -0.3189
   25MOL   O61716985   1.860   5.073   8.119  0.4207 -0.0795 -0.1634
   25MOL   C61816986   1.866   5.302   8.189  0.3294 -0.3582 -0.4377
   25MOL   C61916987   1.816   5.434   8.176  0.2951  0.3602 -0.1464
   25MOL   C62016988   1.753   5.473   8.054 -0.2032  0.1355  0.4253
   25MOL   C62116989   1.700   5.610   8.035 -0.3018  0.0305 -0.3549
   25MOL   O62216990   1.771   5.707   8.059 -0.0970  0.3190 -0.3688
   25MOL   C62316991   1.556   5.629   8.013  0.1583 -0.2867 -0.3772
   25MOL   C62416992   1.509   5.742   7.950 -0.2674  0.0842  0.2170
   25MOL   C62516993   1.377   5.765   7.920 -0.7815  0.3423  0.4963
   25MOL   C62616994   1.285   5.659   7.942 -0.2481  0.2446 -0.5657
   25MOL   O62716995   1.156   5.685   7.893  0.1119 -0.2852  0.6312
   25MOL   C62816996   1.129   5.626   7.768 -0.4673 -0.2673  0.5780
   25MOL   C62916997   1.074   5.710   7.664 -0.6387  0.3543 -0.4356
   25MOL   C63016998   1.042   5.663   7.537  0.3459  0.4322  0.2381
   25MOL   C63116999   1.047   5.522   7.516 -0.3373  0.8359  0.0072
   25MOL   C63217000   1.104   5.435   7.610  0.1638  1.1061  0.3444
   25MOL   C63317001   1.150   5.488   7.734 -0.5703  0.2359 -0.4182
   25MOL   C63417002   1.323   5.539   8.010  0.0381  0.1840  0.6350
   25MOL   C63517003   1.459   5.527   8.037  0.1671  0.0626  0.1961
   25MOL   H63617004   1.694   5.385   7.858  1.8523  1.3166 -0.5631
   25MOL   H63717005   1.750   5.161   7.901 -2.9284  0.4369  0.1657
   25MOL   H63817006   1.917   5.268   8.279  0.8450 -1.0591 -0.9872
   25MOL   H63917007   1.820   5.511   8.251  1.4116 -0.0022  0.1754
   25MOL   H64017008   1.573   5.828   7.937  0.5341 -0.3614  1.1518
   25MOL   H64117009   1.347   5.857   7.873 -0.2403  0.9658  1.3681
   25MOL   H64217010   1.057   5.815   7.682 -0.8160  0.0801  1.0428
   25MOL   H64317011   1.002   5.722   7.455  1.4753 -0.1611 -0.7516
   25MOL   H64417012   1.108   5.331   7.584 -0.7705  1.4299 -1.1715
   25MOL   H64517013   1.176   5.416   7.811 -0.9934  0.4626 -0.0564
   25MOL   H64617014   1.252   5.461   8.030  0.6141 -0.7770 -0.9387
   25MOL   H64717015   1.490   5.438   8.091 -1.1010 -0.3283  0.3020
   25MOL   C64817016   0.638   5.502   7.357  1.1806  0.1859  0.4524
   25MOL   C64917017   0.761   5.455   7.401  0.5107 -0.1322 -0.5150
   25MOL   C65017018   0.881   5.503   7.351 -0.5151 -0.2390 -0.0448
   25MOL   O65117019   1.003   5.462   7.396  0.1225 -0.1407  0.0042
   25MOL   C65217020   0.874   5.592   7.240  0.6598  0.1149 -0.3330
   25MOL   C65317021   0.749   5.648   7.205  0.4553 -0.9785  0.8334
   25MOL   C65417022   0.631   5.605   7.261  0.4669 -0.2491 -0.0013
   25MOL   C65517023   0.497   5.671   7.230  1.0447  0.5955 -0.1919
   25MOL   O65617024   0.470   5.696   7.112  0.6016  0.0820 -0.3456
   25MOL   C65717025   0.410   5.707   7.332 -0.1742 -0.0251  0.6711
   25MOL   C65817026   0.461   5.736   7.457  0.3227 -0.1862 -0.3171
   25MOL   C65917027   0.366   5.766   7.558 -0.2555 -0.4013 -0.0910
   25MOL   C66017028   0.233   5.787   7.522  0.2107  0.2583 -0.2120
   25MOL   O66117029   0.148   5.839   7.617 -0.2328 -0.2510  0.3537
   25MOL   C66217030   0.070   5.750   7.692  0.2658 -0.2723  0.0740
   25MOL   C66317031   8.241   5.745   7.674 -0.3664  0.2214  0.4065
   25MOL   C66417032   8.164   5.656   7.745 -0.2237 -0.1851 -0.1236
   25MOL   C66517033   8.223   5.568   7.838  0.4369  0.3109 -0.6210
   25MOL   C66617034   0.047   5.572   7.864  0.2521 -0.2016 -0.0507
   25MOL   C66717035   0.123   5.663   7.788 -0.3607  0.1671 -0.4167
   25MOL   C66817036   0.188   5.770   7.392  0.0192 -0.4722  0.5909
   25MOL   C66917037   0.278   5.731   7.294 -0.5790  0.9399 -0.0546
   25MOL   H67017038   0.548   5.449   7.386  1.9896 -1.2731  0.3378
   25MOL   H67117039   0.765   5.377   7.476  1.5280 -0.3421 -0.7816
   25MOL   H67217040   0.961   5.620   7.183  0.2932 -0.0295 -0.9654
   25MOL   H67317041   0.737   5.718   7.123 -0.7506 -0.9658  1.0154
   25MOL   H67417042   0.567   5.731   7.476  0.6860 -1.4765 -2.5453
   25MOL   H67517043   0.404   5.781   7.658  0.8027 -1.6326 -0.2874
   25MOL   H67617044   8.189   5.812   7.607 -1.6105 -0.0849  1.0608
   25MOL   H67717045   8.058   5.655   7.727 -0.1687  1.9968 -0.7071
   25MOL   H67817046   0.099   5.506   7.932 -2.2082 -0.1211  1.9764
   25MOL   H67917047   0.231   5.667   7.796 -0.4479 -1.1077  1.9024
   25MOL   H68017048   0.085   5.782   7.364  0.2543  1.2025  0.3730
   25MOL   H68117049   0.239   5.726   7.193  0.6665  0.4692 -0.5233
   25MOL   H68217050   8.161   5.493   7.885  0.0447  0.4257 -0.9496
   26MOL     C117051   4.187   0.065   3.638 -0.3196  0.5555  0.5251
   26MOL     C217052   4.116   0.128   3.736  0.2216 -0.6167 -0.1751
   26MOL     C317053   4.181   0.184   3.849  0.3924  0.5023 -0.3368
   26MOL     O417054   4.108   0.251   3.940  0.0405  0.2400  0.0216
   26MOL     C517055   4.320   0.158   3.865  0.1868 -0.0041 -0.3990
   26MOL     C617056   4.396   0.084   3.768  0.2328 -0.3280  0.5167
   26MOL     C717057   4.331   0.053   3.644 -0.4591 -0.1455 -0.2768
   26MOL     C817058   4.416   0.007   3.528  0.4154 -0.4368  0.6621
   26MOL     O917059   4.526   8.281   3.551 -0.0186 -0.0143  0.5379
   26MOL    C1017060   4.361   0.009   3.398 -0.0045  0.1259  0.2079
   26MOL    C1117061   4.272   0.110   3.356 -0.2344 -0.2681  0.0822
   26MOL    C1217062   4.221   0.113   3.229  0.4258 -0.1202  0.1230
   26MOL    C1317063   4.254   0.011   3.133  0.6773 -0.2758 -0.3830
   26MOL    O1417064   4.198   0.027   3.013 -0.5191 -0.0808 -0.5463
   26MOL    C1517065   4.274   0.086   2.913  0.0197 -0.0878  0.3339
   26MOL    C1617066   4.341   0.209   2.928 -0.3880 -0.2767 -0.6121
   26MOL    C1717067   4.406   0.261   2.815 -0.0138  0.7941 -0.5000
   26MOL    C1817068   4.402   0.201   2.692  0.1044  0.7100  0.0421
   26MOL    C1917069   4.336   0.078   2.676 -0.1136  0.1884 -0.3738
   26MOL    C2017070   4.268   0.027   2.787  0.5413  0.2734  0.4323
   26MOL    C2117071   4.346   8.226   3.174 -0.3426  0.6648 -0.1079
   26MOL    C2217072   4.400   8.226   3.305  0.1509 -0.2811 -0.2433
   26MOL    H2317073   4.126   0.050   3.550  1.6029  0.1328 -0.7743
   26MOL    H2417074   4.008   0.129   3.731  0.2994  0.0033 -2.5142
   26MOL    H2517075   4.371   0.211   3.944  3.5245 -1.4464 -1.4795
   26MOL    H2617076   4.503   0.081   3.781  0.1427 -0.4944  1.2677
   26MOL    H2717077   4.244   0.184   3.429  2.2945  0.5832  0.2499
   26MOL    H2817078   4.165   0.200   3.201 -2.0369 -0.6481  3.1919
   26MOL    H2917079   4.349   0.265   3.020 -1.0928 -1.4274  0.1731
   26MOL    H3017080   4.461   0.353   2.823 -0.9988  1.5606 -2.3916
   26MOL    H3117081   4.326   0.035   2.577  0.9694  1.2193 -0.9405
   26MOL    H3217082   4.207   8.253   2.765  0.0070  0.6502  0.4124
   26MOL    H3317083   4.379   8.149   3.105 -0.6169 -0.0376  0.5466
   26MOL    H3417084   4.475   8.149   3.320  0.1054 -0.8281 -2.6470
   26MOL    H3517085   4.017   0.224   3.942  0.1734 -0.5409 -2.3698
   26MOL    C3617086   4.847   0.286   2.561  0.0607 -0.3100  0.0374
   26MOL    C3717087   4.714   0.318   2.592  0.3442  0.0544  0.4977
   26MOL    C3817088   4.615   0.223   2.581  0.1327 -0.3423 -0.0228
   26MOL    O3917089   4.474   0.252   2.591  0.0180  0.0779  0.3885
   26MOL    C4017090   4.647   0.095   2.544 -0.0047 -0.3529 -0.6560
   26MOL    C4117091   4.778   0.060   2.504  0.3608  0.7457 -0.8993
   26MOL    C4217092   4.883   0.152   2.514  0.6085 -0.3351  0.1266
   26MOL    C4317093   5.021   0.133   2.471  0.0110  0.5304 -0.1672
   26MOL    O4417094   5.072   0.218   2.396  0.2152 -0.0728  0.1318
   26MOL    C4517095   5.097   0.013   2.538 -0.6379 -0.1967 -0.4604
   26MOL    C4617096   5.212   8.269   2.475  0.2022 -0.8825  0.1172
   26MOL    C4717097   5.289   8.180   2.545 -1.2106 -0.3102  0.0570
   26MOL    C4817098   5.247   8.132   2.674 -0.1776 -0.4245 -0.1439
   26MOL    O4917099   5.307   8.032   2.740  0.1820 -0.0468 -0.1068
   26MOL    C5017100   5.417   8.071   2.804  0.1190 -0.3249  0.4062
   26MOL    C5117101   5.542   8.020   2.772  0.1619 -0.3096  0.1855
   26MOL    C5217102   5.655   8.057   2.844  0.0960 -0.3563 -0.1105
   26MOL    C5317103   5.653   8.158   2.938  0.0297  0.2018  0.1437
   26MOL    C5417104   5.530   8.209   2.983  0.0624  0.5804  0.5826
   26MOL    C5517105   5.413   8.166   2.914  0.2475 -0.2998 -0.5117
   26MOL    C5617106   5.123   8.179   2.728 -0.3052  0.7062  0.1451
   26MOL    C5717107   5.050   8.278   2.663  0.1041 -0.0951 -0.8012
   26MOL    H5817108   4.921   0.363   2.576  0.0259 -0.4895  1.1980
   26MOL    H5917109   4.696   0.419   2.627  1.0940 -0.5781  2.7695
   26MOL    H6017110   4.583   0.009   2.546  0.2456 -0.5034  1.1467
   26MOL    H6117111   4.797   8.269   2.481  1.7643  0.5114  1.1818
   26MOL    H6217112   5.246   0.002   2.384 -0.7274 -1.9658 -0.7900
   26MOL    H6317113   5.377   8.147   2.490 -1.1201  0.4822 -0.2752
   26MOL    H6417114   5.562   7.950   2.693  1.0360 -0.6517  0.7042
   26MOL    H6517115   5.747   8.016   2.804  0.8226  2.1375 -1.1060
   26MOL    H6617116   5.522   8.294   3.049  0.9040  1.1712 -0.0526
   26MOL    H6717117   5.319   8.212   2.942  0.0265 -0.1953 -1.3925
   26MOL    H6817118   5.092   8.144   2.825 -3.6641 -1.7130 -1.6838
   26MOL    H6917119   4.971   0.014   2.719 -0.8471 -0.0443 -2.1630
   26MOL    C7017120   5.740   8.132   3.352  0.4180  0.1134  0.4371
   26MOL    C7117121   5.753   8.111   3.214  0.4228  0.4575 -0.6468
   26MOL    C7217122   5.774   8.217   3.127 -0.0843 -0.0020  0.1833
   26MOL    O7317123   5.775   8.189   2.993 -0.4701  0.7679  0.7030
   26MOL    C7417124   5.798   0.033   3.175  0.4326 -0.1112 -0.2156
   26MOL    C7517125   5.790   0.056   3.317  0.5689  0.5327 -0.0809
   26MOL    C7617126   5.762   8.259   3.405 -0.0536 -0.3762 -0.1198
   26MOL    C7717127   5.761   8.281   3.555  0.1069 -0.0463 -0.4908
   26MOL    O7817128   5.871   8.308   3.611  0.4528 -0.7398  0.1646
   26MOL    C7917129   5.624   8.270   3.634 -0.4240  0.1087 -0.1263
   26MOL    C8017130   5.500   8.263   3.563 -0.5569  0.0852 -0.2225
   26MOL    C8117131   5.382   8.260   3.642  0.9624 -0.0090 -0.8130
   26MOL    C8217132   5.391   8.245   3.782  0.0256  0.2479  0.2654
   26MOL    O8317133   5.273   8.240   3.846  0.7433 -0.0259 -0.0820
   26MOL    C8417134   5.274   8.222   3.985 -0.2106  0.3875 -0.4029
   26MOL    C8517135   5.229   0.006   4.078 -0.1189 -0.9590 -0.2418
   26MOL    C8617136   5.217   8.288   4.217  0.0811 -0.4596 -0.0652
   26MOL    C8717137   5.246   8.157   4.262  0.1777 -0.2857  0.5814
   26MOL    C8817138   5.293   8.062   4.169  0.3303 -0.1444  0.3600
   26MOL    C8917139   5.304   8.095   4.036 -0.3239 -0.0464 -0.0922
   26MOL    C9017140   5.515   8.247   3.844 -0.1463 -0.0568 -0.1004
   26MOL    C9117141   5.630   8.262   3.773  0.3798 -0.4275  0.3908
   26MOL    H9217142   5.720   8.045   3.414  0.4439 -0.6499 -0.6065
   26MOL    H9317143   5.747   8.012   3.171 -0.7855  0.2307  0.0195
   26MOL    H9417144   5.828   0.109   3.105 -1.4043  2.3948  1.6047
   26MOL    H9517145   5.807   0.150   3.368  1.1185 -0.0022  0.7341
   26MOL    H9617146   5.494   8.277   3.457  2.0610 -1.9826 -0.6817
   26MOL    H9717147   5.287   8.257   3.592  0.8205  2.3219 -0.7576
   26MOL    H9817148   5.202   0.103   4.037 -0.3244 -0.7599  0.3704
   26MOL    H9917149   5.169   0.047   4.282  0.1709  0.3384 -0.8805
   26MOL   H10017150   5.314   7.957   4.189 -1.5521 -0.9530 -1.6703
   26MOL   H10117151   5.318   8.028   3.952  0.5058  0.3434 -0.2699
   26MOL   H10217152   5.530   8.231   3.950 -2.5633 -1.0092  0.1265
   26MOL   H10317153   5.721   8.259   3.830 -0.4766 -1.4732  1.7612
   26MOL   C10417154   4.887   8.151   4.535 -0.0985  0.4475  0.1868
   26MOL   C10517155   5.022   8.181   4.513  0.1381 -0.0369  0.2733
   26MOL   C10617156   5.099   8.095   4.433  0.0717 -0.2306  0.5345
   26MOL   O10717157   5.229   8.125   4.391 -0.0878  0.1687 -0.2520
   26MOL   C10817158   5.047   7.971   4.385  0.0277 -0.3062 -0.2550
   26MOL   C10917159   4.915   7.933   4.409  0.0770  0.1818  0.3783
   26MOL   C11017160   4.841   8.019   4.496  0.1137 -0.2476  0.6219
   26MOL   C11117161   4.704   7.981   4.539  0.1289  0.0158  0.1216
   26MOL   O11217162   4.692   7.918   4.645  0.6169 -0.0323 -0.4135
   26MOL   C11317163   4.590   8.000   4.444  1.2176 -0.2552 -0.1332
   26MOL   C11417164   4.479   7.907   4.451  0.4089  0.0532 -0.2378
   26MOL   C11517165   4.360   7.944   4.378  0.2472  0.5289 -0.6306
   26MOL   C11617166   4.360   8.054   4.291  0.2609 -0.0819 -0.6471
   26MOL   O11717167   4.257   8.081   4.205  0.2214 -0.8266 -0.1544
   26MOL   C11817168   4.258   8.024   4.080  0.3762  0.2228  0.1579
   26MOL   C11917169   4.314   8.087   3.963 -0.2669 -0.2792 -0.3033
   26MOL   C12017170   4.313   8.022   3.837 -0.1149  0.0157  0.0905
   26MOL   C12117171   4.240   7.902   3.815 -0.4035 -0.4416  0.5578
   26MOL   C12217172   4.179   7.842   3.926  0.2368 -0.1192 -0.2247
   26MOL   C12317173   4.189   7.905   4.053 -0.5713 -0.1867  0.0212
   26MOL   C12417174   4.467   8.139   4.286  0.0298 -0.3370 -0.1466
   26MOL   C12517175   4.585   8.107   4.357  0.9573  0.0329  0.4254
   26MOL   H12617176   4.826   8.222   4.587  0.2894 -0.1825  1.5129
   26MOL   H12717177   5.063   8.270   4.558 -0.9153  0.4559  0.2682
   26MOL   H12817178   5.110   7.904   4.329 -1.8078 -1.9867 -0.3446
   26MOL   H12917179   4.887   7.831   4.383 -0.4919  0.4853 -0.2183
   26MOL   H13017180   4.490   7.817   4.510 -1.5123 -0.6434 -0.9067
   26MOL   H13117181   4.272   7.882   4.391  1.0112 -0.0909  1.7518
   26MOL   H13217182   4.364   8.180   3.985 -1.6656  0.0898  1.4030
   26MOL   H13317183   4.370   8.068   3.757 -2.5232  2.1868 -0.4356
   26MOL   H13417184   4.123   7.752   3.905 -0.8188 -0.0522  2.1886
   26MOL   H13517185   4.147   7.861   4.142 -3.0718 -0.5705 -1.3018
   26MOL   H13617186   4.471   8.216   4.211  0.9839 -2.1723 -2.0422
   26MOL   H13717187   4.664   8.180   4.346  1.0917 -0.2796 -0.8609
   26MOL   C13817188   3.957   8.049   3.541 -0.3133 -0.1330  0.0011
   26MOL   C13917189   4.023   7.975   3.634  0.7626  0.4685 -0.6063
   26MOL   C14017190   4.146   7.913   3.595 -0.1347 -0.6934 -0.5710
   26MOL   O14117191   4.218   7.846   3.689 -0.8533 -0.7507  0.4866
   26MOL   C14217192   4.195   7.936   3.469  0.6139  0.2858 -0.2907
   26MOL   C14317193   4.124   8.009   3.370  0.3824  0.3920  0.1027
   26MOL   C14417194   3.999   8.068   3.409 -0.3617 -0.1965 -0.3019
   26MOL   C14517195   3.934   8.171   3.323  0.5207 -0.5962  0.0594
   26MOL   O14617196   3.902   8.284   3.366 -0.2913  0.1641 -0.3660
   26MOL   C14717197   3.916   8.139   3.173  0.8204 -0.2176  0.7417
   26MOL   C14817198   3.912   8.242   3.074 -0.1764 -0.2579 -0.3478
   26MOL   C14917199   3.879   8.220   2.941 -0.7181 -0.0946 -0.3765
   26MOL   C15017200   3.851   8.089   2.903  0.2830  0.0257  0.6715
   26MOL   O15117201   3.805   8.062   2.780 -0.6543  0.2364  0.2819
   26MOL   C15217202   3.830   8.150   2.679  0.0477 -0.1962 -0.9694
   26MOL   C15317203   3.955   8.168   2.626  0.0404  0.3878  0.1551
   26MOL   C15417204   3.971   8.249   2.504  0.2658  0.6171 -0.0886
   26MOL   C15517205   3.859   8.305   2.441  0.0382 -0.1440 -0.5229
   26MOL   C15617206   3.732   8.297   2.504  0.2858 -0.2354 -0.1976
   26MOL   C15717207   3.720   8.215   2.623  0.1925  0.7678  0.4343
   26MOL   C15817208   3.867   7.977   2.995 -0.0387  0.1541 -0.1065
   26MOL   C15917209   3.887   8.007   3.128 -0.0815 -0.1069 -0.7856
   26MOL   H16017210   3.866   8.090   3.583 -0.6643 -1.6924  0.8115
   26MOL   H16117211   3.974   7.957   3.728 -0.7327 -0.6795 -1.5920
   26MOL   H16217212   4.285   7.887   3.436  0.4608 -2.2436  2.8292
   26MOL   H16317213   4.158   8.019   3.268 -0.7394  4.3374  0.0511
   26MOL   H16417214   3.920   0.031   3.108 -0.9852 -0.2755 -0.0829
   26MOL   H16517215   3.872   8.306   2.876  0.0733 -1.5176 -2.3745
   26MOL   H16617216   4.037   8.118   2.675 -0.3763 -0.4763 -0.0245
   26MOL   H16717217   4.067   8.263   2.455 -1.1311  0.6115 -2.9290
   26MOL   H16817218   3.640   0.025   2.464 -0.6544 -3.1090 -1.1009
   26MOL   H16917219   3.625   8.193   2.670 -0.9417  0.1550 -2.0677
   26MOL   H17017220   3.846   7.877   2.959 -0.0435  0.5490 -1.2248
   26MOL   H17117221   3.882   7.924   3.198 -1.8406  0.9577  0.3898
   26MOL   C17217222   3.728   0.068   1.992 -0.1658  0.2316 -0.2036
   26MOL   C17317223   3.781   0.106   2.119 -0.1452 -0.2322 -0.7776
   26MOL   C17417224   3.825   0.010   2.214  0.2763 -0.2443 -0.3783
   26MOL   O17517225   3.889   0.060   2.327  0.4546 -0.0422 -0.3693
   26MOL   C17617226   3.794   8.185   2.191  0.7179 -0.5785 -0.0663
   26MOL   C17717227   3.730   8.147   2.071 -0.4281  0.9331 -0.2996
   26MOL   C17817228   3.704   8.241   1.969  0.1249  0.2592 -0.5242
   26MOL   C17917229   3.638   8.184   1.848  0.0670  0.6282  0.1477
   26MOL   O18017230   3.705   8.146   1.753 -0.1039 -0.5763 -0.3947
   26MOL   C18117231   3.484   8.175   1.852 -0.6311 -0.0158  0.9656
   26MOL   C18217232   3.410   8.222   1.969  0.5139  0.3079  0.2455
   26MOL   C18317233   3.270   8.222   1.967 -0.0689  1.8491 -0.0949
   26MOL   C18417234   3.198   8.164   1.862 -1.4871  0.4104  0.4191
   26MOL   O18517235   3.062   8.168   1.866  0.2893  0.1688  0.2103
   26MOL   C18617236   2.996   8.055   1.908  0.3131 -0.0999 -0.2952
   26MOL   C18717237   3.002   7.939   1.826  0.0700  0.2435  0.3264
   26MOL   C18817238   2.918   7.833   1.858  0.1434 -0.5252  0.6148
   26MOL   C18917239   2.844   7.832   1.976 -0.8045 -0.0532 -0.7411
   26MOL   C19017240   2.847   7.943   2.063  0.1088 -0.3727 -0.1712
   26MOL   C19117241   2.927   8.055   2.032  0.1792  0.8164  0.2579
   26MOL   C19217242   3.271   8.108   1.753 -0.4075 -0.5224  0.5105
   26MOL   C19317243   3.408   8.123   1.739 -0.2876 -0.1409  0.0586
   26MOL   H19417244   3.707   0.143   1.917  1.6226  0.7741 -0.1998
   26MOL   H19517245   3.798   0.211   2.135  0.0838 -0.2257 -1.0659
   26MOL   H19617246   3.831   8.112   2.261 -0.1391 -1.0537 -0.1036
   26MOL   H19717247   3.709   8.044   2.048 -0.0200  0.7517  0.1430
   26MOL   H19817248   3.455   8.272   2.054 -0.7478 -0.4535  1.3658
   26MOL   H19917249   3.216   8.267   2.049 -0.2529 -1.2225  1.5832
   26MOL   H20017250   3.062   7.936   1.736 -0.1627  0.6835  0.1542
   26MOL   H20117251   2.906   7.750   1.790  1.8487 -1.4296  1.3664
   26MOL   H20217252   2.778   7.943   2.145  0.7428 -2.3017  0.3753
   26MOL   H20317253   2.919   8.144   2.092 -0.9464  0.6780  0.3339
   26MOL   H20417254   3.217   8.055   1.676  2.1293  0.0858 -1.7688
   26MOL   H20517255   3.464   8.075   1.660 -1.4920 -3.2662  1.0392
   26MOL   C20617256   2.523   7.609   1.727 -0.0755  0.5296  0.2700
   26MOL   C20717257   2.628   7.618   1.819 -1.1170  0.2512  0.1299
   26MOL   C20817258   2.644   7.728   1.898  0.3788  0.9420 -0.2188
   26MOL   O20917259   2.751   7.731   1.986  0.3140  0.0725 -0.3742
   26MOL   C21017260   2.559   7.840   1.886  0.7141  0.1288  0.2277
   26MOL   C21117261   2.446   7.827   1.802 -0.0255 -0.4657 -0.4729
   26MOL   C21217262   2.433   7.716   1.716  0.3114 -0.2106  0.7045
   26MOL   C21317263   2.332   7.731   1.604  0.0270  0.6823  0.5176
   26MOL   O21417264   2.311   7.847   1.559 -0.7904 -0.2056  0.1805
   26MOL   C21517265   2.283   7.612   1.534  0.5194  0.0533 -0.0511
   26MOL   C21617266   2.277   7.610   1.390  0.7901 -0.3948  0.1681
   26MOL   C21717267   2.216   7.500   1.324 -0.1181  0.3294 -0.2237
   26MOL   C21817268   2.178   7.387   1.403  0.1702  0.5408  0.1158
   26MOL   O21917269   2.128   7.269   1.348 -0.0508  0.4846  0.1170
   26MOL   C22017270   2.210   7.176   1.296 -0.1709  0.1549 -0.3900
   26MOL   C22117271   2.282   7.100   1.390  0.0665 -0.7780  0.4220
   26MOL   C22217272   2.369   7.005   1.335 -0.5314  0.0308  1.0009
   26MOL   C22317273   2.400   6.999   1.200 -0.6466  0.4427 -0.6585
   26MOL   C22417274   2.324   7.076   1.111  0.1743  0.4706 -0.4601
   26MOL   C22517275   2.233   7.167   1.156  0.2249 -0.4924  0.3828
   26MOL   C22617276   2.184   7.391   1.544 -0.3590  0.2388 -0.0112
   26MOL   C22717277   2.236   7.502   1.603 -0.2592 -0.6008 -0.6532
   26MOL   H22817278   2.530   7.534   1.650  2.3322  1.3074 -0.2909
   26MOL   H22917279   2.689   7.529   1.827 -0.0914  0.7745 -1.5828
   26MOL   H23017280   2.563   7.931   1.945 -0.0556  0.5072 -0.2889
   26MOL   H23117281   2.382   7.913   1.791 -0.8970 -1.0683 -0.2453
   26MOL   H23217282   2.307   7.695   1.330 -2.2719 -0.0702 -0.9997
   26MOL   H23317283   2.211   7.484   1.217  0.1018 -1.7377  0.0471
   26MOL   H23417284   2.267   7.112   1.496 -0.4198 -1.6534  0.4602
   26MOL   H23517285   2.433   6.948   1.402  2.2036  1.5053 -0.3079
   26MOL   H23617286   2.338   7.084   1.004  1.2822 -0.4417 -0.3945
   26MOL   H23717287   2.182   7.236   1.091  0.7053 -1.2889 -0.8476
   26MOL   H23817288   2.156   7.303   1.599 -0.9469  0.2305 -0.3230
   26MOL   H23917289   2.250   7.501   1.711  1.0114  0.7393 -0.7969
   26MOL   C24017290   2.840   7.089   1.202 -0.2395 -0.1896  0.1787
   26MOL   C24117291   2.724   7.015   1.239 -0.6968  0.8918 -0.9659
   26MOL   C24217292   2.627   6.994   1.139 -0.1744 -0.3270  0.0097
   26MOL   O24317293   2.512   6.922   1.159 -0.1404 -0.3299 -0.0288
   26MOL   C24417294   2.650   7.045   1.012 -0.1359  0.0136  0.3405
   26MOL   C24517295   2.772   7.104   0.971 -0.1933  0.8435  0.6894
   26MOL   C24617296   2.867   7.129   1.070 -0.4479  0.4614 -0.3369
   26MOL   C24717297   2.991   7.202   1.027  0.7633  0.2728 -1.3848
   26MOL   O24817298   3.094   7.139   0.999 -0.3466  0.0068  0.1391
   26MOL   C24917299   2.976   7.352   1.012  0.5952  0.1044  0.3683
   26MOL   C25017300   3.068   7.422   0.939 -0.5420  1.1464 -0.1966
   26MOL   C25117301   3.062   7.559   0.920  0.2505 -0.3243  0.1439
   26MOL   C25217302   2.977   7.633   1.005 -0.9450  0.4573  0.4938
   26MOL   O25317303   3.012   7.760   1.027 -0.2747 -0.1684 -0.4350
   26MOL   C25417304   2.957   7.856   0.949 -1.4312  0.9140 -0.0188
   26MOL   C25517305   3.019   7.893   0.829  0.0643 -0.0050  0.9195
   26MOL   C25617306   2.971   8.006   0.757 -0.1268  0.0893  0.4065
   26MOL   C25717307   2.860   8.076   0.810  0.4801 -0.7657 -0.4476
   26MOL   C25817308   2.800   8.042   0.933  0.2436  0.3441  0.5603
   26MOL   C25917309   2.849   7.928   1.001 -0.2421 -1.1610 -0.2762
   26MOL   C26017310   2.889   7.569   1.086  0.1303 -0.0629 -0.6124
   26MOL   C26117311   2.883   7.424   1.091  0.1619  0.0551  0.3049
   26MOL   H26217312   2.920   7.114   1.271  0.2859 -0.8670 -0.1814
   26MOL   H26317313   2.709   6.988   1.342 -0.6101  1.7936 -0.7184
   26MOL   H26417314   2.571   7.024   0.942  2.1808 -2.6737 -1.5537
   26MOL   H26517315   2.795   7.138   0.872 -0.9277  0.6724  0.4556
   26MOL   H26617316   3.148   7.369   0.890 -0.9451  0.3986 -0.0544
   26MOL   H26717317   3.137   7.610   0.862  2.1952 -0.6854  2.2624
   26MOL   H26817318   3.105   7.839   0.790 -1.6763 -0.6660 -2.1522
   26MOL   H26917319   3.027   8.039   0.671 -1.3944  0.3997 -0.2930
   26MOL   H27017320   2.718   8.101   0.972 -0.9681 -0.7192 -0.3137
   26MOL   H27117321   2.795   7.910   1.093  1.5204 -0.6005  0.8840
   26MOL   H27217322   2.836   7.631   1.156  1.0782  0.3935 -0.2824
   26MOL   H27317323   2.812   7.374   1.155 -1.0230  0.3233 -0.7728
   26MOL   C27417324   2.961   0.174   0.575 -0.5674 -0.1184  0.5652
   26MOL   C27517325   2.890   0.054   0.592  0.2887  0.7533 -0.1775
   26MOL   C27617326   2.890   8.301   0.713 -0.2834  0.5792 -0.1893
   26MOL   O27717327   2.811   8.190   0.742  0.5859  0.3163 -0.0630
   26MOL   C27817328   2.953   0.043   0.822  0.5821  0.0808 -0.2399
   26MOL   C27917329   3.007   0.174   0.817  0.1651  0.6532  0.0586
   26MOL   C28017330   3.018   0.236   0.692 -0.3258  0.6197  0.1840
   26MOL   C28117331   3.098   0.357   0.657  0.2212 -0.2887  0.3806
   26MOL   O28217332   3.123   0.396   0.541 -0.2909  0.0854 -0.1485
   26MOL   C28317333   3.147   0.445   0.767 -0.7232  0.0756  0.2427
   26MOL   C28417334   3.279   0.506   0.754  0.4239  0.2313 -0.2565
   26MOL   C28517335   3.326   0.592   0.856 -0.3116 -0.3285  0.6633
   26MOL   C28617336   3.240   0.627   0.968 -0.1780 -0.2093  0.2408
   26MOL   O28717337   3.285   0.711   1.070  0.3635 -0.1062 -0.0796
   26MOL   C28817338   3.204   0.808   1.121  0.5275  0.2503 -0.0198
   26MOL   C28917339   3.225   0.841   1.253 -0.0231  0.0654 -0.0099
   26MOL   C29017340   3.169   0.958   1.306 -0.5984  0.0642 -0.5019
   26MOL   C29117341   3.096   1.044   1.224  0.8682 -0.6972 -0.0765
   26MOL   C29217342   3.075   1.011   1.089  0.0508 -0.1391 -0.2502
   26MOL   C29317343   3.129   0.891   1.035  0.4587  0.0920  0.0873
   26MOL   C29417344   3.107   0.569   0.975 -0.7305 -0.4230  0.0161
   26MOL   C29517345   3.057   0.480   0.877  0.3862 -0.5902  0.3447
   26MOL   H29617346   2.972   0.224   0.480  1.1030 -0.6941  0.4406
   26MOL   H29717347   2.838   8.311   0.516 -1.2508 -0.1395  1.4793
   26MOL   H29817348   2.960   8.308   0.919 -0.7356  1.5052  0.5884
   26MOL   H29917349   3.057   0.224   0.898 -0.7221 -0.9941  1.6610
   26MOL   H30017350   3.344   0.478   0.673 -1.0920 -1.3941 -0.9371
   26MOL   H30117351   3.424   0.638   0.855  0.3060 -1.6186  0.5231
   26MOL   H30217352   3.275   0.768   1.314  1.0649 -0.1344 -1.1254
   26MOL   H30317353   3.179   0.981   1.411  0.1148  2.1428 -0.9989
   26MOL   H30417354   3.020   1.081   1.027  0.2767  1.8012  1.7060
   26MOL   H30517355   3.127   0.860   0.932  0.7098 -0.5634  0.2760
   26MOL   H30617356   3.039   0.579   1.057 -0.5773  0.5064  0.0275
   26MOL   H30717357   2.956   0.443   0.891  1.0915 -1.9922  1.8796
   26MOL   C30817358   3.116   1.456   1.091  0.7275  0.1144 -0.2054
   26MOL   C30917359   3.046   1.337   1.122 -1.2364  0.3015 -0.4344
   26MOL   C31017360   3.092   1.271   1.237 -0.0354 -0.2394  0.1065
   26MOL   O31117361   3.035   1.156   1.278  0.8641 -0.0696 -0.4124
   26MOL   C31217362   3.192   1.326   1.320  0.1469 -0.3718  0.5674
   26MOL   C31317363   3.247   1.452   1.295  0.0837  0.7983  0.7289
   26MOL   C31417364   3.216   1.510   1.173  0.5751 -0.2358  0.2658
   26MOL   C31517365   3.268   1.641   1.122 -0.2031 -1.0129 -0.6584
   26MOL   O31617366   3.276   1.739   1.194 -0.3261 -0.5319  0.1274
   26MOL   C31717367   3.315   1.639   0.986 -0.0547  0.0149  1.0972
   26MOL   C31817368   3.398   1.532   0.947 -0.5517  0.1178 -0.2439
   26MOL   C31917369   3.460   1.532   0.824 -0.0301 -0.0428 -0.2299
   26MOL   C32017370   3.428   1.632   0.728  0.9368  0.0252  0.6583
   26MOL   O32117371   3.476   1.628   0.596 -1.3081 -0.3578 -0.3097
   26MOL   C32217372   3.401   1.585   0.490  0.1921 -0.0651 -0.4880
   26MOL   C32317373   3.453   1.595   0.360 -0.0836 -0.5371 -0.7716
   26MOL   C32417374   3.378   1.557   0.248  0.1353  0.2109  0.7156
   26MOL   C32517375   3.248   1.504   0.260  0.5033 -0.4484 -0.4739
   26MOL   C32617376   3.200   1.484   0.392  0.1430  0.1331 -0.3799
   26MOL   C32717377   3.274   1.520   0.505  0.9382 -0.2098  0.3258
   26MOL   C32817378   3.333   1.731   0.762 -0.4224  0.0656  0.2384
   26MOL   C32917379   3.272   1.739   0.890  0.2125  0.1262 -0.1324
   26MOL   H33017380   3.084   1.519   1.009  0.2876 -0.3550 -0.3984
   26MOL   H33117381   2.964   1.296   1.066 -0.7136  1.4797 -2.1333
   26MOL   H33217382   3.226   1.269   1.405  1.8337 -1.3315 -0.7072
   26MOL   H33317383   3.323   1.485   1.364 -0.0114  0.3121  1.0688
   26MOL   H33417384   3.431   1.455   1.016  1.3510  0.2819 -0.9414
   26MOL   H33517385   3.537   1.458   0.813 -0.5035 -1.0378  2.7550
   26MOL   H33617386   3.554   1.630   0.341  0.2335  0.5265  2.5543
   26MOL   H33717387   3.413   1.570   0.147  0.1113  2.2034  0.9479
   26MOL   H33817388   3.094   1.462   0.401  0.1490  0.8947  1.9793
   26MOL   H33917389   3.226   1.493   0.598  2.1766 -1.5436  0.5965
   26MOL   H34017390   3.313   1.804   0.686 -0.6979  0.8330  1.0401
   26MOL   H34117391   3.201   1.818   0.905 -2.0612 -1.8697 -0.1940
   26MOL   C34217392   2.852   1.313   0.068 -0.1920  0.3176  0.2287
   26MOL   C34317393   2.952   1.409   0.082 -0.7708  0.3499  0.6846
   26MOL   C34417394   3.069   1.383   0.155  0.0693  0.1157  0.3090
   26MOL   O34517395   3.168   1.481   0.148  0.3516 -0.7491 -0.0354
   26MOL   C34617396   3.089   1.254   0.208 -0.4599 -0.1455 -0.0289
   26MOL   C34717397   3.003   1.153   0.175 -0.6039  0.2292  0.7110
   26MOL   C34817398   2.880   1.183   0.108 -0.6124  0.0199  0.1886
   26MOL   C34917399   2.780   1.078   0.086  0.1410 -0.0105  0.0446
   26MOL   O35017400   2.744   1.044   8.284  0.2483 -0.0902 -0.7878
   26MOL   C35117401   2.697   1.037   0.198 -0.1220  0.1318  0.3775
   26MOL   C35217402   2.694   1.099   0.322 -0.3425  0.5562  0.4037
   26MOL   C35317403   2.614   1.055   0.431 -0.0099  0.0232 -0.0943
   26MOL   C35417404   2.520   0.945   0.403  0.5682 -0.2717  0.2005
   26MOL   O35517405   2.434   0.890   0.501  0.3061 -0.0358 -0.2180
   26MOL   C35617406   2.345   0.979   0.568 -0.6086  0.0920 -0.0425
   26MOL   C35717407   2.371   1.016   0.702  0.3605  0.0345  0.0429
   26MOL   C35817408   2.273   1.088   0.772 -0.3956  0.2523  0.2202
   26MOL   C35917409   2.161   1.139   0.704  0.3201  0.1698 -0.4448
   26MOL   C36017410   2.139   1.103   0.574  0.1978  0.0458  0.2602
   26MOL   C36117411   2.230   1.022   0.501  0.1007  0.1362  0.0411
   26MOL   C36217412   2.535   0.872   0.282 -0.1963  0.1096  0.3294
   26MOL   C36317413   2.627   0.914   0.185  0.0174  0.4390 -0.0431
   26MOL   H36417414   2.766   1.339   0.008  0.9848 -2.4766 -2.8734
   26MOL   H36517415   2.937   1.503   0.032 -2.8842  0.2627  1.0909
   26MOL   H36617416   3.181   1.232   0.260  1.6754  1.5000 -2.8999
   26MOL   H36717417   3.011   1.053   0.216 -0.9410 -0.7326 -1.4849
   26MOL   H36817418   2.758   1.185   0.333 -0.2028  0.3399  1.3820
   26MOL   H36917419   2.610   1.112   0.522 -0.3386  1.0465 -0.7415
   26MOL   H37017420   2.464   0.984   0.747  0.4120 -0.3245 -0.3238
   26MOL   H37117421   2.296   1.119   0.873 -0.1712  1.2622 -0.1352
   26MOL   H37217422   2.049   1.133   0.522  1.3898  2.3078 -0.5381
   26MOL   H37317423   2.208   0.997   0.399 -0.6269 -1.9698  0.6765
   26MOL   H37417424   2.476   0.785   0.259  0.0115  0.4437 -1.6120
   26MOL   H37517425   2.626   0.871   0.085  0.3277  0.2201  0.0488
   26MOL   C37617426   2.047   1.147   1.142 -0.4108  0.6425 -0.5095
   26MOL   C37717427   2.082   1.205   1.021 -0.0341  0.0173 -0.2079
   26MOL   C37817428   2.030   1.157   0.897 -0.7975 -0.3274  0.1519
   26MOL   O37917429   2.064   1.209   0.777 -0.1157  0.0997  0.0818
   26MOL   C38017430   1.932   1.055   0.905 -0.7539  0.3730  0.3073
   26MOL   C38117431   1.897   0.998   1.025 -0.2026  0.0667 -0.6515
   26MOL   C38217432   1.960   1.033   1.145  0.3492 -0.0744 -0.4376
   26MOL   C38317433   1.923   0.965   1.277  0.1731 -0.7614  0.5397
   26MOL   O38417434   1.828   0.889   1.280 -0.1228  0.0791  0.4889
   26MOL   C38517435   2.000   1.009   1.400  0.1049 -0.5844  0.2168
   26MOL   C38617436   1.936   1.113   1.475 -0.3538  0.9783 -0.5059
   26MOL   C38717437   2.006   1.170   1.584  0.0320 -0.1542 -0.2422
   26MOL   C38817438   2.131   1.125   1.621 -0.4842 -0.0363 -0.0232
   26MOL   O38917439   2.203   1.197   1.714  0.2914  0.8850  0.6648
   26MOL   C39017440   2.272   1.138   1.814  0.3668  0.0098  0.5717
   26MOL   C39117441   2.406   1.101   1.781 -0.2186 -0.2641  0.4561
   26MOL   C39217442   2.491   1.053   1.883  0.5559 -1.2936 -0.5542
   26MOL   C39317443   2.437   1.044   2.018  0.0055  0.2755 -0.3590
   26MOL   C39417444   2.297   1.076   2.046  0.2509 -0.5386 -0.3856
   26MOL   C39517445   2.219   1.131   1.945  0.0388  0.2284  0.1725
   26MOL   C39617446   2.191   1.018   1.550  0.6028 -0.1139  0.3449
   26MOL   C39717447   2.127   0.963   1.437 -0.8771 -0.5281  0.7907
   26MOL   H39817448   2.087   1.177   1.237 -0.1741 -0.8999 -0.1079
   26MOL   H39917449   2.152   1.288   1.015 -0.4345  0.2255 -2.4156
   26MOL   H40017450   1.878   1.029   0.816 -0.5970  1.5801 -0.1539
   26MOL   H40117451   1.823   0.919   1.021  1.1024 -1.0988 -2.7379
   26MOL   H40217452   1.838   1.150   1.448 -0.5834  0.9074  0.2218
   26MOL   H40317453   1.965   1.251   1.642  0.2326 -0.0763 -0.2066
   26MOL   H40417454   2.438   1.116   1.679  1.4134  0.4081  1.0509
   26MOL   H40517455   2.595   1.039   1.857  1.4151 -0.1618  2.1012
   26MOL   H40617456   2.265   1.074   2.149  0.1148 -0.8268 -0.4325
   26MOL   H40717457   2.127   1.182   1.969  1.3633  2.9440 -0.3045
   26MOL   H40817458   2.292   0.981   1.566  1.0450  0.0363 -1.9228
   26MOL   H40917459   2.162   0.882   1.374 -2.5063 -0.0832 -0.7184
   26MOL   C41017460   2.412   0.683   2.278 -0.4453  0.1659 -0.4781
   26MOL   C41117461   2.465   0.775   2.190  0.4180 -0.2945 -0.0378
   26MOL   C41217462   2.466   0.912   2.215 -0.2726 -0.3641  0.4494
   26MOL   O41317463   2.517   1.001   2.122 -0.1859 -0.0813  0.0976
   26MOL   C41417464   2.403   0.962   2.334 -0.4361  0.0061  0.3812
   26MOL   C41517465   2.338   0.871   2.419 -0.0258 -0.1861  0.1099
   26MOL   C41617466   2.351   0.730   2.396 -0.3389 -0.0295 -0.3244
   26MOL   C41717467   2.298   0.626   2.495  0.5908 -1.0765  0.0009
   26MOL   O41817468   2.330   0.508   2.493  0.3602 -0.0243  0.0036
   26MOL   C41917469   2.199   0.674   2.591  0.1513 -0.1789 -0.1687
   26MOL   C42017470   2.220   0.629   2.722  0.2266 -0.4400 -0.2602
   26MOL   C42117471   2.127   0.647   2.825  0.2964 -0.3717  0.7640
   26MOL   C42217472   2.007   0.724   2.798  0.4361 -0.0161 -0.5952
   26MOL   O42317473   1.910   0.738   2.893  0.6238 -0.2239  0.0699
   26MOL   C42417474   1.909   0.857   2.959  0.2353  0.6364 -0.3880
   26MOL   C42517475   2.021   0.916   3.021  0.1428 -0.1963  0.1868
   26MOL   C42617476   2.009   1.022   3.114 -0.2196  0.1416 -0.3743
   26MOL   C42717477   1.878   1.079   3.131 -0.6491 -0.7475  0.0727
   26MOL   C42817478   1.767   1.029   3.060  0.1632  0.2452  0.2817
   26MOL   C42917479   1.784   0.917   2.981  0.1851  0.6452 -0.0418
   26MOL   C43017480   1.999   0.787   2.669 -0.3732 -0.2145 -0.6845
   26MOL   C43117481   2.084   0.752   2.562 -0.0352 -0.4952 -0.2175
   26MOL   H43217482   2.412   0.576   2.260 -0.7299  0.1626 -0.4717
   26MOL   H43317483   2.515   0.745   2.099  0.8749  0.9513 -0.2087
   26MOL   H43417484   2.397   1.069   2.346  1.0579  0.0099  1.2102
   26MOL   H43517485   2.291   0.915   2.506 -2.1730 -0.0468 -1.0808
   26MOL   H43617486   2.307   0.574   2.754 -0.1819 -1.8702 -1.5637
   26MOL   H43717487   2.136   0.612   2.927 -2.7365 -0.9031  0.9157
   26MOL   H43817488   2.118   0.870   3.007  0.3497 -0.1165  1.3047
   26MOL   H43917489   2.093   1.060   3.170  0.0614  3.6497 -2.9535
   26MOL   H44017490   1.668   1.060   3.089 -0.1494  1.2074 -1.7019
   26MOL   H44117491   1.696   0.872   2.938  1.7465 -3.3120  0.7566
   26MOL   H44217492   1.915   0.852   2.649  0.9461  1.1225 -1.8931
   26MOL   H44317493   2.065   0.780   2.460  1.7155 -2.1034 -1.0201
   26MOL   C44417494   1.575   1.367   3.134 -0.3768  0.0584  0.3382
   26MOL   C44517495   1.699   1.311   3.122 -0.1579 -0.6739 -0.0834
   26MOL   C44617496   1.751   1.245   3.234 -0.8905  0.1335 -0.1123
   26MOL   O44717497   1.869   1.181   3.226  0.0663 -0.0076  0.0801
   26MOL   C44817498   1.689   1.262   3.358 -0.0716 -0.7389  0.2711
   26MOL   C44917499   1.570   1.328   3.373  0.3272 -0.1703 -0.3826
   26MOL   C45017500   1.501   1.363   3.256 -0.8351 -0.4063  0.2490
   26MOL   C45117501   1.362   1.409   3.255  0.2296  0.2825  0.2213
   26MOL   O45217502   1.340   1.518   3.190 -0.6287  0.2845 -0.4040
   26MOL   C45317503   1.260   1.322   3.311 -0.3094  0.2737  0.4422
   26MOL   C45417504   1.127   1.367   3.299 -0.2173 -0.0670  0.4063
   26MOL   C45517505   1.026   1.283   3.339  0.0773 -0.2918 -0.6043
   26MOL   C45617506   1.048   1.161   3.401  0.7498  0.1189  0.0514
   26MOL   O45717507   0.949   1.080   3.451 -0.2186 -0.1347 -0.4284
   26MOL   C45817508   0.843   1.047   3.369  0.1740 -0.5621  0.3006
   26MOL   C45917509   0.871   0.987   3.247  0.4789  0.3665 -1.1454
   26MOL   C46017510   0.763   0.961   3.158 -0.2152 -0.2159 -0.6833
   26MOL   C46117511   0.632   0.986   3.195 -0.5427  1.1763  0.1195
   26MOL   C46217512   0.604   1.044   3.314  0.5016  0.2703  0.3766
   26MOL   C46317513   0.711   1.075   3.402  0.1815  0.3120 -0.9269
   26MOL   C46417514   1.182   1.119   3.421  0.5405  0.8643 -0.2855
   26MOL   C46517515   1.285   1.201   3.376  0.3232  0.4900 -0.0119
   26MOL   H46617516   1.537   1.406   3.041 -0.2667  0.8233  0.6117
   26MOL   H46717517   1.744   1.318   3.024 -0.1282  1.5214  0.0471
   26MOL   H46817518   1.734   1.210   3.441 -0.7731  0.4422  1.4151
   26MOL   H46917519   1.515   1.329   3.466 -0.9438  1.3810 -1.1118
   26MOL   H47017520   1.110   1.459   3.245 -2.7835 -0.2811  0.8020
   26MOL   H47117521   0.924   1.300   3.307  0.2442  0.1909 -0.8792
   26MOL   H47217522   0.968   0.955   3.211  0.7437 -2.4593  1.8352
   26MOL   H47317523   0.780   0.921   3.059 -2.2792 -2.0116 -0.3530
   26MOL   H47417524   0.505   1.074   3.347 -0.1926 -3.5831  2.0733
   26MOL   H47517525   0.686   1.122   3.496  0.6200  1.9210 -1.5887
   26MOL   H47617526   1.187   1.017   3.457  2.4647  1.1651  0.3747
   26MOL   H47717527   1.386   1.164   3.369 -0.3734 -1.5217  0.2288
   26MOL   C47817528   0.319   1.167   2.895  0.3364 -0.5856 -0.1431
   26MOL   C47917529   0.360   1.066   2.981 -0.1448 -0.6162 -0.4171
   26MOL   C48017530   0.493   1.055   3.022 -0.0432 -0.5266 -0.3350
   26MOL   O48117531   0.529   0.961   3.110 -0.3805 -0.4617 -0.2833
   26MOL   C48217532   0.583   1.148   2.977  0.0977 -0.3604  0.0082
   26MOL   C48317533   0.550   1.246   2.881 -0.7658 -0.5426 -0.5464
   26MOL   C48417534   0.414   1.255   2.840  0.0594 -1.1975  0.1361
   26MOL   C48517535   0.367   1.357   2.740  0.0811 -0.0204  0.2137
   26MOL   O48617536   0.261   1.415   2.761  0.2671 -0.0440  0.3000
   26MOL   C48717537   0.455   1.379   2.619 -0.3019  0.2895  0.4391
   26MOL   C48817538   0.536   1.270   2.574 -0.5344 -0.2608 -0.5554
   26MOL   C48917539   0.608   1.284   2.454 -0.2292  0.3336  0.2730
   26MOL   C49017540   0.608   1.406   2.383 -0.2435 -0.3642 -0.2016
   26MOL   O49117541   0.691   1.424   2.272 -0.5669  0.1534 -1.0430
   26MOL   C49217542   0.817   1.456   2.308 -0.4773 -0.4209 -0.0960
   26MOL   C49317543   0.843   1.590   2.325 -0.8390 -0.1560 -0.2258
   26MOL   C49417544   0.970   1.634   2.368 -0.0982  0.4385  0.4790
   26MOL   C49517545   1.073   1.542   2.381 -0.2021  0.4622 -0.3818
   26MOL   C49617546   1.052   1.403   2.355 -0.6582 -0.1322  0.3437
   26MOL   C49717547   0.922   1.362   2.322  0.0168  0.0405  0.4903
   26MOL   C49817548   0.532   1.517   2.441  0.3738  0.7547 -0.5880
   26MOL   C49917549   0.455   1.503   2.558 -1.0923 -0.3247 -0.6587
   26MOL   H50017550   0.216   1.179   2.865 -0.4060 -1.0108  2.1306
   26MOL   H50117551   0.287   0.996   3.019  1.4308  0.0149  4.1504
   26MOL   H50217552   0.684   1.156   3.015 -0.2443  1.4170  0.5852
   26MOL   H50317553   0.619   1.324   2.854  0.1194 -0.6305  1.3629
   26MOL   H50417554   0.532   1.173   2.620  1.8864  0.1423  0.5830
   26MOL   H50517555   0.648   1.194   2.411 -0.4294  0.6479 -0.5754
   26MOL   H50617556   0.772   1.672   2.319 -0.0581  0.5265 -0.2396
   26MOL   H50717557   0.986   1.740   2.377 -1.9949  0.7335  0.4330
   26MOL   H50817558   1.128   1.332   2.385 -0.0199  0.5845  0.4407
   26MOL   H50917559   0.900   1.258   2.304  2.1845 -0.2413 -0.7744
   26MOL   H51017560   0.533   1.607   2.382  0.1033  0.9099 -0.3568
   26MOL   H51117561   0.390   1.578   2.602  0.8268  0.3777  1.0563
   26MOL   C51217562   1.383   1.879   2.358  0.2651  0.6447 -0.2221
   26MOL   C51317563   1.277   1.797   2.403 -0.0485 -0.4165  0.0090
   26MOL   C51417564   1.283   1.659   2.385  0.0298 -0.0830 -0.2549
   26MOL   O51517565   1.189   1.576   2.447  0.6155  0.2237 -0.2052
   26MOL   C51617566   1.390   1.604   2.308  0.3603  0.2805  0.8088
   26MOL   C51717567   1.492   1.681   2.255 -0.2412  0.0393 -0.3629
   26MOL   C51817568   1.494   1.819   2.292 -0.2184 -0.0489 -0.3449
   26MOL   C51917569   1.607   1.903   2.259 -0.0711  0.1844  0.6988
   26MOL   O52017570   1.669   1.907   2.151  0.7387  0.1242  0.1704
   26MOL   C52117571   1.665   1.983   2.374 -1.1117 -0.2451  0.1301
   26MOL   C52217572   1.758   2.085   2.352 -0.3593  0.2546 -0.5744
   26MOL   C52317573   1.797   2.166   2.458 -0.3226  0.1116  0.4605
   26MOL   C52417574   1.744   2.156   2.586 -0.0946  0.9681 -0.0382
   26MOL   O52517575   1.776   2.250   2.680  0.3525  0.6179  0.1243
   26MOL   C52617576   1.875   2.218   2.766  0.4881  0.4450 -0.3249
   26MOL   C52717577   1.980   2.312   2.785  0.0457  0.2756  0.1589
   26MOL   C52817578   2.092   2.279   2.862 -0.5200 -0.2095 -0.5779
   26MOL   C52917579   2.095   2.156   2.931  0.6773  0.7335  0.1568
   26MOL   C53017580   1.991   2.064   2.913  0.4522  0.3131  0.0199
   26MOL   C53117581   1.880   2.091   2.830 -0.3679 -0.6463 -0.5362
   26MOL   C53217582   1.652   2.051   2.610 -0.0564 -0.2810  1.0236
   26MOL   C53317583   1.621   1.965   2.505  0.0044 -0.6617 -0.3492
   26MOL   H53417584   1.379   1.984   2.381  0.6168  0.2646  1.6331
   26MOL   H53517585   1.194   1.830   2.464 -0.1070  0.2525 -0.4221
   26MOL   H53617586   1.412   1.499   2.302  1.0326  0.6116 -4.1919
   26MOL   H53717587   1.586   1.649   2.215 -0.0545  3.2436 -2.7121
   26MOL   H53817588   1.813   2.091   2.259 -1.5418 -2.1920 -1.4716
   26MOL   H53917589   1.867   2.244   2.433  0.9985 -1.2897 -0.3483
   26MOL   H54017590   1.979   2.402   2.725  0.0270 -0.0117 -0.2803
   26MOL   H54117591   2.177   2.345   2.876 -0.5557 -0.5784  1.7211
   26MOL   H54217592   1.996   1.968   2.963  2.7144  0.4809  0.1797
   26MOL   H54317593   1.797   2.023   2.820 -2.6694  1.8910  0.6059
   26MOL   H54417594   1.610   2.049   2.709 -0.2703  1.5248  0.9849
   26MOL   H54517595   1.564   1.875   2.523  0.6616 -0.6896  1.7236
   26MOL   C54617596   2.450   1.954   2.839  0.7279  0.2058  0.3714
   26MOL   C54717597   2.347   2.043   2.865  0.0308 -0.1466 -0.0774
   26MOL   C54817598   2.291   2.048   2.988  0.4107 -0.2673  0.2672
   26MOL   O54917599   2.193   2.134   3.023  0.2679 -0.3355  0.3646
   26MOL   C55017600   2.323   1.957   3.091 -0.3392  0.2116 -0.1550
   26MOL   C55117601   2.438   1.884   3.069  0.2661 -0.3021 -0.5450
   26MOL   C55217602   2.500   1.873   2.943  0.1482 -0.4245 -0.2705
   26MOL   C55317603   2.600   1.768   2.926  0.8215  0.4118  0.1196
   26MOL   O55417604   2.590   1.658   2.983 -0.1906 -0.3041 -0.4290
   26MOL   C55517605   2.711   1.794   2.825  0.1730  0.0691 -0.0782
   26MOL   C55617606   2.759   1.699   2.731 -0.3704  0.2670  0.3088
   26MOL   C55717607   2.862   1.725   2.646  0.6382  0.2457  0.5226
   26MOL   C55817608   2.916   1.857   2.643 -0.3133  0.5981 -0.1517
   26MOL   O55917609   3.017   1.876   2.556 -0.4346  0.1326  0.1099
   26MOL   C56017610   3.142   1.826   2.587 -0.4348  0.2087 -0.0167
   26MOL   C56117611   3.173   1.704   2.541 -0.3369  0.1031  0.1524
   26MOL   C56217612   3.294   1.642   2.573 -0.0921 -0.0225 -0.1066
   26MOL   C56317613   3.387   1.711   2.659 -1.2150  0.1257 -0.5504
   26MOL   C56417614   3.358   1.845   2.701  0.1653  0.7374  0.2948
   26MOL   C56517615   3.240   1.900   2.661  0.3139 -0.2228  0.3057
   26MOL   C56617616   2.867   1.961   2.723  0.0473 -0.2229 -0.1952
   26MOL   C56717617   2.762   1.926   2.818  0.0303  0.1397  0.2202
   26MOL   H56817618   2.498   1.945   2.743 -0.5310 -1.0761 -0.1587
   26MOL   H56917619   2.318   2.115   2.790 -0.6244 -0.6032 -0.2675
   26MOL   H57017620   2.274   1.963   3.187  0.3783 -0.5558  0.2716
   26MOL   H57117621   2.474   1.814   3.143  1.0530 -0.3670 -0.9824
   26MOL   H57217622   2.718   1.600   2.723  0.7568 -0.2959  1.3347
   26MOL   H57317623   2.902   1.646   2.584  1.4566  0.1946  1.0968
   26MOL   H57417624   3.101   1.650   2.482  0.7934 -1.3710  0.0773
   26MOL   H57517625   3.308   1.542   2.537 -2.0103  0.4748 -2.3421
   26MOL   H57617626   3.423   1.913   2.754  1.5191 -1.9928  2.2843
   26MOL   H57717627   3.227   1.994   2.713 -1.5055  0.1145 -0.7136
   26MOL   H57817628   2.905   2.061   2.712 -1.0985  0.0423 -1.9375
   26MOL   H57917629   2.718   1.996   2.888 -1.3076 -2.0204  1.6298
   26MOL   C58017630   3.421   1.444   2.992  0.0559 -0.3175  0.1011
   26MOL   C58117631   3.431   1.554   2.903  0.0497  0.5018  0.0092
   26MOL   C58217632   3.490   1.537   2.781  0.5726 -0.2193 -0.5992
   26MOL   O58317633   3.505   1.646   2.700 -0.0617 -0.2608  0.3420
   26MOL   C58417634   3.552   1.419   2.737  0.2247 -0.2617  0.3632
   26MOL   C58517635   3.543   1.304   2.819  0.1175 -0.3099  0.2851
   26MOL   C58617636   3.480   1.316   2.952 -0.4429  0.6936 -0.0450
   26MOL   C58717637   3.478   1.201   3.046 -0.0016  0.4694 -0.2185
   26MOL   O58817638   3.580   1.169   3.101  0.4878  0.2541  0.6741
   26MOL   C58917639   3.352   1.129   3.061  0.1872  0.3434 -0.2807
   26MOL   C59017640   3.243   1.140   2.972  0.6012  0.3094  0.6307
   26MOL   C59117641   3.127   1.055   2.980  0.4444 -0.3216 -0.7853
   26MOL   C59217642   3.122   0.961   3.084 -0.3024  0.2143 -0.8066
   26MOL   O59317643   3.010   0.885   3.106 -0.2397  0.4657  0.6816
   26MOL   C59417644   3.017   0.746   3.076 -0.1314 -0.4928 -0.1471
   26MOL   C59517645   3.064   0.652   3.165  0.4625  0.1808  0.6522
   26MOL   C59617646   3.067   0.514   3.135  0.3896 -0.3060 -0.4461
   26MOL   C59717647   3.017   0.479   3.010  0.8551 -0.0201 -0.0079
   26MOL   C59817648   2.960   0.572   2.918  0.6337 -0.7500 -0.1958
   26MOL   C59917649   2.950   0.706   2.964 -0.4061  0.8181 -0.3633
   26MOL   C60017650   3.234   0.941   3.166 -0.3579  0.0370 -0.0910
   26MOL   C60117651   3.346   1.028   3.166  0.1766 -0.6751 -0.6432
   26MOL   H60217652   3.370   1.455   3.086 -0.9795 -0.0930 -0.4820
   26MOL   H60317653   3.392   1.651   2.930 -0.0457  0.6673 -0.7173
   26MOL   H60417654   3.618   1.428   2.653  0.1553  0.8267  0.4081
   26MOL   H60517655   3.605   1.219   2.795 -1.0607 -1.3166  0.7389
   26MOL   H60617656   3.243   1.210   2.890  0.0112  0.6151  0.8866
   26MOL   H60717657   3.048   1.058   2.907  0.3352  3.3008 -0.6164
   26MOL   H60817658   3.116   0.674   3.257  0.5804 -0.3589  0.7133
   26MOL   H60917659   3.100   0.444   3.211 -1.3066 -0.5277  0.1071
   26MOL   H61017660   2.906   0.549   2.827  1.6380 -1.7751 -0.5517
   26MOL   H61117661   2.916   0.786   2.901  0.4604  1.9432  0.5724
   26MOL   H61217662   3.235   0.861   3.240 -0.8386 -0.0403 -0.1698
   26MOL   H61317663   3.430   0.998   3.227 -0.2365 -0.8200 -0.1426
   26MOL   C61417664   3.064   0.241   2.640 -0.4562 -0.6636 -0.1260
   26MOL   C61517665   3.006   0.280   2.757 -0.1413  0.1103  0.3403
   26MOL   C61617666   3.080   0.296   2.875  0.5657 -0.0219 -0.4901
   26MOL   O61717667   3.002   0.347   2.979 -0.2590  0.8510  0.1688
   26MOL   C61817668   3.219   0.270   2.884  0.4170 -0.2903 -0.5391
   26MOL   C61917669   3.285   0.234   2.761 -0.0507 -0.1737  0.5350
   26MOL   C62017670   3.208   0.222   2.644 -0.0224  0.6863 -0.4526
   26MOL   C62117671   3.280   0.186   2.512 -0.1079  0.9323 -0.4900
   26MOL   O62217672   3.309   0.274   2.436  0.2866 -0.0747  0.2148
   26MOL   C62317673   3.314   0.042   2.485  0.1852  0.8787 -0.5459
   26MOL   C62417674   3.280   8.252   2.582 -0.4991  0.1541  0.0840
   26MOL   C62517675   3.323   8.120   2.554  0.2449 -0.0856  0.0491
   26MOL   C62617676   3.396   8.092   2.433 -0.3889  0.1379  0.1145
   26MOL   O62717677   3.443   7.968   2.409 -0.4860  0.3618 -0.1639
   26MOL   C62817678   3.423   7.916   2.281  0.1882 -0.1830 -0.0174
   26MOL   C62917679   3.293   7.905   2.234 -0.2438 -0.4638  0.0636
   26MOL   C63017680   3.274   7.853   2.108  0.0399 -0.2174  0.1174
   26MOL   C63117681   3.383   7.828   2.023 -0.5296 -0.4381  0.0762
   26MOL   C63217682   3.519   7.828   2.071  0.3398  0.3201 -0.2535
   26MOL   C63317683   3.532   7.867   2.208 -0.4975  0.5336  0.0888
   26MOL   C63417684   3.441   8.198   2.350 -0.4254 -0.2122 -0.1378
   26MOL   C63517685   3.386   0.012   2.365  0.1888 -0.2254 -0.3823
   26MOL   H63617686   3.011   0.242   2.546 -2.7917 -1.9621  1.1022
   26MOL   H63717687   2.900   0.299   2.748  0.1012  1.0236 -0.7142
   26MOL   H63817688   3.278   0.285   2.973  1.2405  0.8731 -1.2703
   26MOL   H63917689   3.393   0.238   2.753  0.0332 -1.6034  0.8442
   26MOL   H64017690   3.225   8.277   2.671 -2.2885 -0.3205 -0.8696
   26MOL   H64117691   3.306   8.040   2.624 -1.5743  0.0228 -0.2430
   26MOL   H64217692   3.209   7.925   2.298 -1.1495 -2.3379 -0.5126
   26MOL   H64317693   3.169   7.846   2.082  0.5540 -3.6157 -1.2855
   26MOL   H64417694   3.603   7.797   2.011 -0.6908 -1.8434 -0.6304
   26MOL   H64517695   3.622   7.873   2.267 -1.1216 -0.2886  1.1267
   26MOL   H64617696   3.509   8.175   2.269 -1.0221 -2.3882 -0.0397
   26MOL   H64717697   3.407   0.096   2.300  0.5903 -1.5259 -1.9583
   26MOL   C64817698   3.274   7.447   1.833 -0.2021 -0.5085 -0.1025
   26MOL   C64917699   3.264   7.583   1.867 -0.5562 -0.8376  0.0599
   26MOL   C65017700   3.368   7.676   1.841  0.1119  0.6645  0.0398
   26MOL   O65117701   3.364   7.807   1.892  0.2999  0.2522  0.9882
   26MOL   C65217702   3.479   7.628   1.774 -0.5228 -0.1273  0.5096
   26MOL   C65317703   3.494   7.492   1.744 -0.2368 -0.7138  0.5096
   26MOL   C65417704   3.391   7.404   1.771  0.3224 -0.3548 -0.5624
   26MOL   C65517705   3.401   7.254   1.752  0.1225  0.0096 -0.7748
   26MOL   O65617706   3.330   7.178   1.818 -0.0318  0.4296  0.2120
   26MOL   C65717707   3.499   7.197   1.658 -0.0944 -0.1936  0.2883
   26MOL   C65817708   3.526   7.265   1.533 -0.2246 -0.1254 -0.0485
   26MOL   C65917709   3.608   7.209   1.433 -0.9899 -0.1409 -0.5466
   26MOL   C66017710   3.675   7.087   1.458  0.5176 -0.0152 -0.2218
   26MOL   O66117711   3.766   7.037   1.370  0.3695  0.1717  0.0230
   26MOL   C66217712   3.882   7.109   1.342  0.0885  0.5807 -0.5117
   26MOL   C66317713   3.942   7.121   1.213  0.3449  0.1016  0.3430
   26MOL   C66417714   4.054   7.196   1.191  0.0157 -0.1076 -0.6304
   26MOL   C66517715   4.114   7.266   1.298  1.4454  0.2756 -0.8162
   26MOL   C66617716   4.052   7.263   1.423  0.1504 -0.8321 -0.3095
   26MOL   C66717717   3.939   7.179   1.446  0.9438  0.4260 -0.4758
   26MOL   C66817718   3.648   7.021   1.582 -0.4381  0.5019 -0.3523
   26MOL   C66917719   3.550   7.067   1.673 -0.2318  0.1166  0.6611
   26MOL   H67017720   3.194   7.378   1.853  1.5981 -2.3520  0.9520
   26MOL   H67117721   3.178   7.614   1.923 -1.1695 -0.9719 -0.7920
   26MOL   H67217722   3.568   7.690   1.774 -1.1952  0.8393  0.7667
   26MOL   H67317723   3.591   7.458   1.712  0.4194  1.9605 -0.4591
   26MOL   H67417724   3.480   7.361   1.514 -0.0412  0.3293  1.7115
   26MOL   H67517725   3.629   7.258   1.339  0.5128  1.4647  0.5890
   26MOL   H67617726   3.889   7.057   1.144  1.1868 -1.1937  0.8765
   26MOL   H67717727   4.099   7.206   1.093  1.0290 -1.8822 -0.3556
   26MOL   H67817728   4.099   7.322   1.500 -0.4750 -0.6927 -0.0265
   26MOL   H67917729   3.907   7.161   1.547  0.6712 -0.0788 -0.6526
   26MOL   H68017730   3.695   6.926   1.600 -0.6562  0.2877 -0.8950
   26MOL   H68117731   3.535   7.014   1.766  0.0837  1.0034  1.2226
   26MOL   H68217732   4.209   7.315   1.282  0.6731  2.5409  1.2613
   27MOL     C117733   1.129   5.163   1.422 -0.2906  0.0027 -0.2325
   27MOL     C217734   1.212   5.216   1.516  0.1030  0.5245 -0.0437
   27MOL     C317735   1.216   5.352   1.534  0.1466 -0.6370  0.4446
   27MOL     O417736   1.294   5.423   1.622 -0.4238  0.0658  0.2102
   27MOL     C517737   1.136   5.438   1.454 -0.2743  0.1544  0.2542
   27MOL     C617738   1.055   5.390   1.357 -1.2059  0.2432  0.1758
   27MOL     C717739   1.052   5.249   1.340 -0.4063  0.1733  0.5701
   27MOL     C817740   0.969   5.189   1.237 -0.4274 -0.5487  0.6786
   27MOL     O917741   0.888   5.098   1.257  0.1677  0.2477 -0.3331
   27MOL    C1017742   0.994   5.240   1.099 -0.0257  0.7656  0.6513
   27MOL    C1117743   1.118   5.283   1.049 -0.1405 -0.1748 -0.2586
   27MOL    C1217744   1.132   5.321   0.914  0.4383 -1.0928 -0.2544
   27MOL    C1317745   1.022   5.323   0.823  0.7037  0.7297 -0.1440
   27MOL    O1417746   1.030   5.366   0.690  0.3637  0.5594  0.0184
   27MOL    C1517747   1.146   5.324   0.621 -0.7404  0.0164  0.0701
   27MOL    C1617748   1.249   5.419   0.599  1.2333  0.1985 -0.7173
   27MOL    C1717749   1.366   5.380   0.534 -0.3669  0.2745  0.7978
   27MOL    C1817750   1.377   5.247   0.492 -0.2055  0.4482 -0.5624
   27MOL    C1917751   1.269   5.158   0.509 -0.2370  0.5785  0.0413
   27MOL    C2017752   1.154   5.194   0.579  0.1759  0.5955  0.8862
   27MOL    C2117753   0.897   5.282   0.874  0.0075 -0.4960  0.8386
   27MOL    C2217754   0.884   5.238   1.005  0.5742 -0.2274  0.1405
   27MOL    H2317755   1.129   5.055   1.413 -0.4368 -0.1118  1.1238
   27MOL    H2417756   1.279   5.149   1.567 -1.6067 -1.5495 -0.4257
   27MOL    H2517757   1.134   5.545   1.473 -1.3370  0.2275 -0.2214
   27MOL    H2617758   1.005   5.462   1.293 -0.1829  0.6515 -0.1719
   27MOL    H2717759   1.204   5.276   1.114 -1.2573 -0.4576  1.2145
   27MOL    H2817760   1.224   5.367   0.882 -0.5686  1.5162  0.4325
   27MOL    H2917761   1.244   5.520   0.635  0.4438  0.5479 -1.7710
   27MOL    H3017762   1.437   5.455   0.501 -0.1455 -1.5214 -3.1852
   27MOL    H3117763   1.269   5.052   0.486 -0.9193  0.1620  1.8626
   27MOL    H3217764   1.083   5.114   0.597 -0.5176  0.6576 -1.5118
   27MOL    H3317765   0.818   5.286   0.800  0.0402 -2.9888  0.6207
   27MOL    H3417766   0.795   5.185   1.036  0.3262 -0.7035 -1.3575
   27MOL    H3517767   1.297   5.516   1.608  1.3868 -0.2715 -2.1088
   27MOL    C3617768   1.585   4.838   0.395 -0.1850 -0.2604  0.0545
   27MOL    C3717769   1.539   4.969   0.369 -0.2192  0.7030  0.0048
   27MOL    C3817770   1.532   5.068   0.466 -0.1891 -0.7105  0.6619
   27MOL    O3917771   1.490   5.197   0.431  0.3083  0.4143  0.2317
   27MOL    C4017772   1.553   5.031   0.600  0.1559 -0.2779  0.6439
   27MOL    C4117773   1.601   4.903   0.630 -1.0573 -0.0275 -0.2182
   27MOL    C4217774   1.615   4.805   0.528 -0.1881 -0.5596  0.1973
   27MOL    C4317775   1.668   4.662   0.565 -0.4970  0.3959 -0.5728
   27MOL    O4417776   1.660   4.621   0.683  0.3053 -0.2713 -0.3086
   27MOL    C4517777   1.739   4.580   0.460 -0.0570 -0.0046  0.5871
   27MOL    C4617778   1.867   4.617   0.410 -0.6157  0.0319  0.1370
   27MOL    C4717779   1.939   4.545   0.314  0.2751  0.3171 -0.0503
   27MOL    C4817780   1.882   4.419   0.287 -0.1883 -0.1650 -0.0049
   27MOL    O4917781   1.950   4.338   0.197 -0.5769  0.5650  0.1625
   27MOL    C5017782   2.004   4.222   0.233 -0.8064  0.7507  0.4453
   27MOL    C5117783   1.983   4.158   0.360 -1.1031  0.3369  0.0876
   27MOL    C5217784   2.045   4.033   0.396 -0.3052 -0.4519 -0.9657
   27MOL    C5317785   2.139   3.970   0.308  0.5980  0.8601  0.5794
   27MOL    C5417786   2.174   4.039   0.190  0.4988  0.2397 -0.0581
   27MOL    C5517787   2.105   4.160   0.155 -0.1975 -0.0168  0.3652
   27MOL    C5617788   1.754   4.383   0.328  0.1204 -0.9489 -0.1959
   27MOL    C5717789   1.680   4.465   0.414 -0.0679  0.2558 -0.4997
   27MOL    H5817790   1.594   4.768   0.313  1.7780 -2.5664  2.1614
   27MOL    H5917791   1.509   4.990   0.268  0.7444 -1.7566 -0.8421
   27MOL    H6017792   1.545   5.106   0.677 -0.7711 -0.3235  0.5940
   27MOL    H6117793   1.624   4.890   0.734  0.9123  0.4047 -0.5805
   27MOL    H6217794   1.909   4.711   0.444 -2.1154  0.5467  0.6144
   27MOL    H6317795   2.035   4.572   0.274 -0.1471  2.2529  0.2079
   27MOL    H6417796   1.910   4.200   0.429 -1.9412  0.3665 -0.8052
   27MOL    H6517797   2.026   3.989   0.493  1.2178  0.9631 -0.0055
   27MOL    H6617798   2.246   4.005   0.116  0.6516 -1.9526  1.0806
   27MOL    H6717799   2.121   4.204   0.057  1.5285 -0.2852  0.5018
   27MOL    H6817800   1.715   4.292   0.285  1.1824 -0.3514 -2.5206
   27MOL    H6917801   1.578   4.442   0.441  0.2107  0.2453  0.6055
   27MOL    C7017802   2.313   3.701   0.652 -0.0892  0.0415  0.3365
   27MOL    C7117803   2.318   3.771   0.532  0.2595  0.4199  0.0783
   27MOL    C7217804   2.204   3.780   0.444  0.1535 -0.4433 -0.1863
   27MOL    O7317805   2.207   3.849   0.327 -0.5822  0.2691  0.3270
   27MOL    C7417806   2.078   3.720   0.489  0.0233 -0.5660 -0.2030
   27MOL    C7517807   2.076   3.638   0.600  0.0046 -0.1783  0.0566
   27MOL    C7617808   2.195   3.629   0.683 -0.2511  0.2788  0.1301
   27MOL    C7717809   2.193   3.547   0.811  0.4286  0.8632 -0.6792
   27MOL    O7817810   2.291   3.537   0.880  1.0058 -0.4990 -0.5038
   27MOL    C7917811   2.079   3.454   0.827 -0.1148  0.4558  0.3793
   27MOL    C8017812   1.992   3.480   0.934 -0.3844 -0.1342 -0.0498
   27MOL    C8117813   1.874   3.408   0.941 -0.1138  0.0956 -0.2401
   27MOL    C8217814   1.835   3.319   0.841 -0.0776  0.2259  0.5389
   27MOL    O8317815   1.711   3.266   0.841 -0.8349  0.1652 -0.2498
   27MOL    C8417816   1.616   3.330   0.771 -0.7246  0.9557  0.0825
   27MOL    C8517817   1.640   3.404   0.656  0.0869  0.1133  0.5978
   27MOL    C8617818   1.530   3.463   0.585  0.0094  0.4915  0.6442
   27MOL    C8717819   1.403   3.457   0.632  0.7742  0.0417 -0.6500
   27MOL    C8817820   1.381   3.387   0.755  0.4426  0.1443 -0.5089
   27MOL    C8917821   1.485   3.331   0.823  0.5919  0.3322  0.2786
   27MOL    C9017822   1.921   3.293   0.731 -1.1789 -0.8436  0.2880
   27MOL    C9117823   2.048   3.358   0.727  0.2958  0.3013 -0.2791
   27MOL    H9217824   2.396   3.689   0.720  1.9472  0.5060 -2.0171
   27MOL    H9317825   2.408   3.827   0.510  0.3283 -0.1875 -1.2201
   27MOL    H9417826   1.989   3.726   0.427  0.6483  2.1716 -0.9042
   27MOL    H9517827   1.980   3.596   0.626 -0.7418  1.4712  0.0562
   27MOL    H9617828   2.010   3.558   1.007 -1.5706 -2.0195  2.3221
   27MOL    H9717829   1.805   3.443   1.016 -1.4628  1.4567 -2.0690
   27MOL    H9817830   1.736   3.427   0.612 -1.3595  0.7303 -2.4130
   27MOL    H9917831   1.546   3.519   0.494 -1.6693  1.2724  0.8109
   27MOL   H10017832   1.286   3.398   0.805  0.6105  2.6847 -0.6524
   27MOL   H10117833   1.465   3.285   0.919 -0.4198  1.7884  0.7890
   27MOL   H10217834   1.886   3.219   0.661  0.3704 -1.9429  0.6598
   27MOL   H10317835   2.112   3.348   0.641  1.4563 -1.9561  0.8231
   27MOL   C10417836   0.985   3.385   0.454 -0.2267  0.9707  0.0297
   27MOL   C10517837   1.078   3.445   0.540 -0.2698  0.1290  0.5250
   27MOL   C10617838   1.211   3.460   0.500 -0.0378  0.5911  0.6430
   27MOL   O10717839   1.298   3.528   0.576  0.0884 -0.4917 -0.1791
   27MOL   C10817840   1.254   3.408   0.382 -0.3292  0.6621  0.4084
   27MOL   C10917841   1.160   3.350   0.291  0.0161 -0.1695  0.4416
   27MOL   C11017842   1.024   3.331   0.332  0.0522  0.4295 -0.0446
   27MOL   C11117843   0.922   3.271   0.238  0.0730 -0.6036  0.5638
   27MOL   O11217844   0.940   3.261   0.119 -0.2552 -0.1713 -0.3951
   27MOL   C11317845   0.791   3.237   0.294  0.4122 -0.7869  0.3546
   27MOL   C11417846   0.679   3.312   0.258 -0.6208 -0.3339 -0.8508
   27MOL   C11517847   0.554   3.283   0.322 -0.7769  0.3097  0.0710
   27MOL   C11617848   0.540   3.168   0.399  1.0384 -0.2231 -0.2304
   27MOL   O11717849   0.429   3.131   0.464 -0.5561 -0.5000  0.5254
   27MOL   C11817850   0.421   3.195   0.590  0.3717 -0.1011 -0.1059
   27MOL   C11917851   0.502   3.159   0.695  0.2322 -0.9016 -0.5069
   27MOL   C12017852   0.511   3.228   0.821  0.0532  0.3848  0.0210
   27MOL   C12117853   0.424   3.339   0.838  0.0415  0.1862 -0.5825
   27MOL   C12217854   0.328   3.367   0.737  0.0563 -0.0883 -0.7765
   27MOL   C12317855   0.329   3.308   0.607 -0.1416 -0.9086  0.1090
   27MOL   C12417856   0.653   3.085   0.419 -0.6963  0.6133 -0.2131
   27MOL   C12517857   0.781   3.120   0.376 -0.1699 -0.7500  1.0342
   27MOL   H12617858   0.880   3.394   0.476 -0.5725  2.4564 -2.1041
   27MOL   H12717859   1.039   3.501   0.624 -2.3550  2.3788 -1.8507
   27MOL   H12817860   1.360   3.417   0.362 -0.0336  0.1167  1.6465
   27MOL   H12917861   1.192   3.323   0.191  1.1254  2.0287  0.1797
   27MOL   H13017862   0.678   3.398   0.194  0.1527 -0.3888 -0.9445
   27MOL   H13117863   0.472   3.349   0.301 -2.0050 -0.8097  1.2411
   27MOL   H13217864   0.559   3.068   0.682 -0.5923 -1.2539 -1.7692
   27MOL   H13317865   0.580   3.183   0.892  0.5944  0.5480 -0.4007
   27MOL   H13417866   0.260   3.448   0.757  0.2156 -0.2705  0.5692
   27MOL   H13517867   0.259   3.334   0.529  1.1903 -1.9656 -1.4718
   27MOL   H13617868   0.629   2.995   0.474 -1.6479  2.3878  2.3447
   27MOL   H13717869   0.874   3.068   0.395 -0.3954 -1.5764 -0.1325
   27MOL   C13817870   0.638   3.650   1.129 -0.0478  0.3057  0.2245
   27MOL   C13917871   0.545   3.548   1.100 -0.9615 -0.1077 -0.5087
   27MOL   C14017872   0.505   3.520   0.971  0.2640  0.0404  0.1682
   27MOL   O14117873   0.426   3.412   0.952  0.0024 -0.1041 -0.6834
   27MOL   C14217874   0.563   3.595   0.864 -0.5215  0.0881  0.2392
   27MOL   C14317875   0.659   3.698   0.893 -0.8445  0.1975  0.1750
   27MOL   C14417876   0.698   3.722   1.025  0.0670  0.0786 -0.1636
   27MOL   C14517877   0.805   3.829   1.060  0.3604 -0.1411  0.0744
   27MOL   O14617878   0.786   3.907   1.155  0.1320  0.5563 -0.6800
   27MOL   C14717879   0.928   3.841   0.976  0.8800  0.5308 -0.0223
   27MOL   C14817880   1.010   3.955   1.006  0.1465  0.0978  0.8611
   27MOL   C14917881   1.131   3.974   0.942 -0.4721  0.1974  0.5310
   27MOL   C15017882   1.175   3.882   0.850  0.1270 -0.2391 -0.0550
   27MOL   O15117883   1.303   3.884   0.795 -0.1077 -0.5741 -0.1653
   27MOL   C15217884   1.404   3.843   0.880  0.6389  0.3622  0.2704
   27MOL   C15317885   1.448   3.930   0.980 -0.2490  1.0043 -0.0577
   27MOL   C15417886   1.532   3.878   1.079  0.5897 -0.4641  1.0619
   27MOL   C15517887   1.584   3.743   1.077 -0.5026 -0.9209 -0.6120
   27MOL   C15617888   1.552   3.664   0.965  0.1757 -0.6530 -0.2787
   27MOL   C15717889   1.447   3.707   0.883  0.5297  0.2251 -0.0963
   27MOL   C15817890   1.095   3.773   0.814  0.6879 -0.0121  0.5180
   27MOL   C15917891   0.970   3.750   0.880 -0.2733  0.0941  0.1606
   27MOL   H16017892   0.658   3.676   1.232  2.2417  0.0922 -0.1320
   27MOL   H16117893   0.497   3.490   1.177 -3.0434  2.7913  0.4525
   27MOL   H16217894   0.528   3.573   0.764  0.9016 -3.9069  0.5578
   27MOL   H16317895   0.708   3.749   0.811  1.5929 -2.3854 -0.0395
   27MOL   H16417896   0.982   4.033   1.075 -2.2397 -0.6428  0.7692
   27MOL   H16517897   1.199   4.054   0.965  0.4505  0.0293 -1.5340
   27MOL   H16617898   1.404   4.029   0.978 -4.2080 -0.6795 -2.4450
   27MOL   H16717899   1.559   3.939   1.165 -0.5006 -2.9504  3.2546
   27MOL   H16817900   1.593   3.565   0.955 -3.8554 -2.3454 -0.9695
   27MOL   H16917901   1.408   3.638   0.810  1.3545 -0.3746  0.0332
   27MOL   H17017902   1.131   3.703   0.739  0.7792 -1.2141  1.6556
   27MOL   H17117903   0.918   3.661   0.848 -2.2381  0.9745  0.8809
   27MOL   C17217904   1.439   3.534   1.422 -0.6135  0.0909 -0.0811
   27MOL   C17317905   1.518   3.550   1.304  0.2203 -0.2809 -0.1998
   27MOL   C17417906   1.590   3.674   1.294  0.8618 -0.4359  1.2204
   27MOL   O17517907   1.659   3.695   1.177  0.4565  0.2041  0.0247
   27MOL   C17617908   1.582   3.770   1.400 -0.4249 -0.7481 -0.3600
   27MOL   C17717909   1.511   3.749   1.519 -0.3903  0.4721 -0.4806
   27MOL   C17817910   1.441   3.621   1.529  0.5706 -0.0479 -0.6895
   27MOL   C17917911   1.365   3.582   1.651  0.0789 -0.6896 -0.3283
   27MOL   O18017912   1.356   3.463   1.687 -0.2341  0.2856  0.4089
   27MOL   C18117913   1.324   3.676   1.749  0.3488 -0.1139  0.2814
   27MOL   C18217914   1.336   3.644   1.887  0.1712 -0.6607 -0.3862
   27MOL   C18317915   1.292   3.734   1.988 -0.6230  0.1830 -0.5915
   27MOL   C18417916   1.241   3.857   1.943 -0.4773 -0.5847 -0.2453
   27MOL   O18517917   1.204   3.940   2.047  0.4244  0.8964  0.7032
   27MOL   C18617918   1.273   4.056   2.067 -0.0331  0.0606  0.3688
   27MOL   C18717919   1.388   4.047   2.151  0.4897  0.1531  0.8666
   27MOL   C18817920   1.472   4.161   2.175 -0.5264  0.5054  0.1233
   27MOL   C18917921   1.425   4.286   2.126 -0.4348  0.0758  0.1369
   27MOL   C19017922   1.314   4.301   2.046 -0.4776  0.5606 -0.6152
   27MOL   C19117923   1.242   4.182   2.014  0.5553 -0.6308  0.0445
   27MOL   C19217924   1.224   3.886   1.808  0.0699 -0.6904  0.6591
   27MOL   C19317925   1.273   3.801   1.711 -0.7914 -0.1886 -0.5497
   27MOL   H19417926   1.376   3.447   1.416  1.7496 -1.5995 -1.3026
   27MOL   H19517927   1.529   3.475   1.227  0.7118 -1.1440  0.6987
   27MOL   H19617928   1.653   3.851   1.401 -2.6627  1.3557 -2.4441
   27MOL   H19717929   1.505   3.830   1.589  0.2727  0.0981  0.0119
   27MOL   H19817930   1.380   3.549   1.912  0.3040 -0.2090  1.1192
   27MOL   H19917931   1.297   3.714   2.094  1.9873 -0.1990 -0.7541
   27MOL   H20017932   1.422   3.951   2.187  0.8091  0.7615  2.2251
   27MOL   H20117933   1.564   4.147   2.228  0.3155  0.1341 -1.4032
   27MOL   H20217934   1.263   4.389   2.009 -1.8783  1.3411  2.9063
   27MOL   H20317935   1.153   4.178   1.952  1.4116 -1.0808 -1.1715
   27MOL   H20417936   1.166   3.971   1.776 -1.9436 -2.2296  0.1668
   27MOL   H20517937   1.246   3.823   1.609  0.2374  2.1136 -0.3515
   27MOL   C20617938   1.598   4.490   2.482 -0.3297  0.1123 -0.3911
   27MOL   C20717939   1.602   4.430   2.356  0.0551 -0.3249  0.9346
   27MOL   C20817940   1.496   4.457   2.268  0.0087 -0.1453  0.2029
   27MOL   O20917941   1.505   4.395   2.146 -0.5244 -0.9087 -0.1221
   27MOL   C21017942   1.385   4.536   2.308  0.1689 -0.4172  0.1791
   27MOL   C21117943   1.385   4.603   2.431  0.2410 -0.7257 -1.1412
   27MOL   C21217944   1.491   4.574   2.521 -0.7771 -0.5258 -0.5043
   27MOL   C21317945   1.496   4.635   2.655 -0.0367 -0.7505  0.0769
   27MOL   O21417946   1.600   4.698   2.694  0.5472 -0.4180  0.4773
   27MOL   C21517947   1.377   4.623   2.744  0.1544 -0.0338  0.7213
   27MOL   C21617948   1.347   4.720   2.840  0.3665 -1.0279  0.1518
   27MOL   C21717949   1.236   4.708   2.921  0.4033 -0.0472  0.0247
   27MOL   C21817950   1.162   4.593   2.920 -0.3294  0.7746  0.0267
   27MOL   O21917951   1.068   4.581   3.018  0.0438 -0.3038  0.2444
   27MOL   C22017952   0.958   4.668   3.021 -0.5097 -0.1143  0.3596
   27MOL   C22117953   0.910   4.727   2.898  0.2904 -0.4162  0.0422
   27MOL   C22217954   0.799   4.818   2.907  0.1518 -0.4258 -0.3013
   27MOL   C22317955   0.754   4.856   3.034  0.7131 -0.2018  0.0377
   27MOL   C22417956   0.804   4.800   3.155  0.0580  0.6495  0.4871
   27MOL   C22517957   0.904   4.703   3.145  0.0126  0.8997 -0.2655
   27MOL   C22617958   1.192   4.491   2.826 -0.9055 -0.2112  0.3986
   27MOL   C22717959   1.300   4.509   2.735 -0.0612 -0.3423  0.2122
   27MOL   H22817960   1.677   4.467   2.552 -0.8477 -0.2116  0.0899
   27MOL   H22917961   1.691   4.379   2.322  0.7341  1.5157 -0.1293
   27MOL   H23017962   1.308   4.565   2.239  1.1617 -1.5696 -1.4605
   27MOL   H23117963   1.302   4.664   2.461  1.1939  0.0617 -0.0425
   27MOL   H23217964   1.415   4.804   2.846 -0.3334 -0.5282  1.1633
   27MOL   H23317965   1.219   4.781   2.998 -0.1925 -1.7012  1.5002
   27MOL   H23417966   0.954   4.712   2.800 -3.5249 -0.1452 -1.7914
   27MOL   H23517967   0.755   4.853   2.816  2.7127  1.0492 -1.0262
   27MOL   H23617968   0.750   4.827   3.244 -0.3682 -1.7018  0.9698
   27MOL   H23717969   0.954   4.669   3.235  1.2514  1.2314 -0.8190
   27MOL   H23817970   1.134   4.400   2.812 -1.2335 -0.2622  1.9461
   27MOL   H23917971   1.325   4.436   2.659  1.7818  2.4809 -2.0106
   27MOL   C24017972   0.698   5.305   2.972  0.2060 -1.1662  0.4056
   27MOL   C24117973   0.648   5.176   2.960  0.2648  0.3069 -0.2806
   27MOL   C24217974   0.674   5.080   3.060  0.4858 -0.0089 -0.1223
   27MOL   O24317975   0.647   4.941   3.040 -0.1429  0.4088 -0.0759
   27MOL   C24417976   0.741   5.120   3.176  0.1049 -0.0280 -0.6979
   27MOL   C24517977   0.793   5.247   3.185 -0.1133 -0.2818  0.4594
   27MOL   C24617978   0.766   5.348   3.089 -0.1449 -0.1773  0.3744
   27MOL   C24717979   0.804   5.486   3.107  0.3184 -0.4440  0.0559
   27MOL   O24817980   0.715   5.571   3.112 -0.2370 -0.0991 -0.1983
   27MOL   C24917981   0.943   5.512   3.146  0.0867 -0.2914 -0.0176
   27MOL   C25017982   1.047   5.426   3.099  0.2566 -0.5211  0.2778
   27MOL   C25117983   1.179   5.440   3.146  0.4217  0.7589 -0.2965
   27MOL   C25217984   1.218   5.546   3.226  0.7363 -0.3450  0.3543
   27MOL   O25317985   1.344   5.577   3.259 -0.0246 -0.0629  0.0672
   27MOL   C25417986   1.434   5.474   3.289 -0.2887 -0.3506 -0.3377
   27MOL   C25517987   1.410   5.356   3.362  0.6919 -0.0916 -0.8109
   27MOL   C25617988   1.511   5.258   3.384  0.0200 -0.2355 -0.7024
   27MOL   C25717989   1.636   5.277   3.328 -0.6523 -1.0143  0.2424
   27MOL   C25817990   1.667   5.401   3.266  0.5610  0.6577 -0.8541
   27MOL   C25917991   1.566   5.499   3.249  0.0511  0.4065  0.2725
   27MOL   C26017992   1.114   5.630   3.274 -0.5668  0.1745 -1.0422
   27MOL   C26117993   0.979   5.614   3.239  0.0641 -0.7138 -0.4156
   27MOL   H26217994   0.689   5.386   2.900 -2.3675 -1.9722 -0.2259
   27MOL   H26317995   0.597   5.147   2.870 -0.6134  2.9787 -0.7023
   27MOL   H26417996   0.754   5.059   3.264 -0.3087 -0.0360 -0.6405
   27MOL   H26517997   0.824   5.283   3.282 -1.1429  0.8141  0.3912
   27MOL   H26617998   1.026   5.357   3.019 -0.4688  2.3644 -2.1360
   27MOL   H26717999   1.253   5.365   3.121 -1.0072 -1.2795  1.3858
   27MOL   H26818000   1.312   5.345   3.406  1.5944  1.2299  1.6135
   27MOL   H26918001   1.486   5.165   3.432  2.0979 -0.2203  0.4434
   27MOL   H27018002   1.766   5.426   3.232  1.2099  1.0324  1.2404
   27MOL   H27118003   1.583   5.598   3.208 -3.2856  0.9581  0.0646
   27MOL   H27218004   1.147   5.722   3.321  1.2141 -0.2799 -1.3844
   27MOL   H27318005   0.902   5.677   3.281 -0.7392 -1.7057 -0.3984
   27MOL   C27418006   1.771   4.918   3.088 -0.0564  0.4106  0.3857
   27MOL   C27518007   1.758   5.049   3.146 -0.0134 -0.1200  0.3247
   27MOL   C27618008   1.725   5.061   3.283 -0.8116 -0.5526  0.7839
   27MOL   O27718009   1.732   5.185   3.344  0.3574  0.1207  0.2265
   27MOL   C27818010   1.710   4.954   3.364  0.1397  0.1437  0.2211
   27MOL   C27918011   1.733   4.825   3.314 -0.7603 -0.5255 -0.3149
   27MOL   C28018012   1.761   4.808   3.178  0.4514 -0.4253 -0.5017
   27MOL   C28118013   1.771   4.668   3.118  0.6455 -0.0459 -0.2144
   27MOL   O28218014   1.720   4.566   3.164 -0.1891 -0.5168  0.3159
   27MOL   C28318015   1.865   4.651   2.998  0.2650 -0.1715 -0.2490
   27MOL   C28418016   1.977   4.732   2.976  0.5496 -0.1869 -0.6927
   27MOL   C28518017   2.050   4.719   2.856  0.4997 -0.1085 -0.3050
   27MOL   C28618018   2.013   4.612   2.762  0.2553 -0.7749  0.0279
   27MOL   O28718019   2.080   4.599   2.644  0.0176 -0.6316 -0.1693
   27MOL   C28818020   2.024   4.665   2.538  0.5886  0.4208 -0.8170
   27MOL   C28918021   1.953   4.592   2.445  0.0388  0.2231  0.2720
   27MOL   C29018022   1.878   4.657   2.341  0.3139  0.0741 -0.2149
   27MOL   C29118023   1.872   4.796   2.330  0.5570 -0.5815  0.0219
   27MOL   C29218024   1.945   4.869   2.426  0.7909 -0.2172  0.3218
   27MOL   C29318025   2.013   4.806   2.529 -0.1679  0.3506 -0.3125
   27MOL   C29418026   1.893   4.538   2.782 -0.3380  0.6602  0.2252
   27MOL   C29518027   1.829   4.552   2.905 -0.3527 -0.3698 -0.1298
   27MOL   H29618028   1.794   4.898   2.984 -0.0709 -2.6353  0.9390
   27MOL   H29718029   1.773   5.142   3.092 -0.7422 -0.1117  0.1260
   27MOL   H29818030   1.694   4.974   3.469 -1.8673 -1.4158  0.2302
   27MOL   H29918031   1.718   4.745   3.385 -0.8599  0.1232  0.3933
   27MOL   H30018032   1.995   4.812   3.047 -0.2671 -0.4004 -0.2284
   27MOL   H30118033   2.138   4.775   2.830  0.8253  0.2416  1.5085
   27MOL   H30218034   1.947   4.484   2.446 -1.0666  0.2613 -1.2497
   27MOL   H30318035   1.821   4.597   2.272 -0.1951 -0.5263  0.7283
   27MOL   H30418036   1.954   4.977   2.430  4.0295 -0.4866  2.7017
   27MOL   H30518037   2.071   4.861   2.601 -1.0780  1.4587 -0.4179
   27MOL   H30618038   1.850   4.464   2.715  0.9401  0.9454 -0.9420
   27MOL   H30718039   1.750   4.486   2.937 -2.9476  2.0722 -1.1952
   27MOL   C30818040   1.448   4.985   2.204  0.2852 -0.4545  0.2908
   27MOL   C30918041   1.577   4.946   2.174  0.3927  0.4557  0.3169
   27MOL   C31018042   1.667   4.897   2.270  0.2850 -0.0802 -0.1328
   27MOL   O31118043   1.794   4.863   2.236 -0.4219 -0.2982  0.2027
   27MOL   C31218044   1.620   4.893   2.405 -0.4460  0.8671  0.3005
   27MOL   C31318045   1.491   4.928   2.442  0.0111 -0.4229  0.6136
   27MOL   C31418046   1.407   4.979   2.339  0.7233  0.1898 -0.2162
   27MOL   C31518047   1.276   5.039   2.379 -0.6496  0.2553 -0.1737
   27MOL   O31618048   1.182   5.050   2.303  0.1487  0.1049  0.2313
   27MOL   C31718049   1.253   5.079   2.518 -0.1373 -0.0049  0.7995
   27MOL   C31818050   1.351   5.157   2.589  0.0096 -0.3552  0.0589
   27MOL   C31918051   1.341   5.194   2.720 -0.0664 -0.0776 -0.4467
   27MOL   C32018052   1.236   5.151   2.796 -0.1112 -0.8358 -0.4823
   27MOL   O32118053   1.224   5.188   2.927 -0.0380  0.3259  0.1482
   27MOL   C32218054   1.229   5.087   3.024  0.1503 -0.0551 -0.6534
   27MOL   C32318055   1.360   5.040   3.061  0.1358  1.1280  0.0666
   27MOL   C32418056   1.379   4.961   3.174  0.0765 -0.6315 -0.0616
   27MOL   C32518057   1.265   4.921   3.250  0.4435 -0.1053 -0.5603
   27MOL   C32618058   1.135   4.961   3.212  0.1346  0.2541 -0.5514
   27MOL   C32718059   1.121   5.043   3.098 -0.3907 -0.3882  0.8197
   27MOL   C32818060   1.133   5.069   2.736  0.3565 -0.2441  0.0299
   27MOL   C32918061   1.142   5.035   2.596 -0.3388  0.3650  0.2835
   27MOL   H33018062   1.389   5.012   2.118  0.7598 -0.1587  0.0547
   27MOL   H33118063   1.615   4.958   2.073 -0.3417  0.1351 -0.0035
   27MOL   H33218064   1.674   4.849   2.487  0.0807 -1.6146 -1.3181
   27MOL   H33318065   1.449   4.917   2.541  0.4071 -1.5204  0.6717
   27MOL   H33418066   1.443   5.188   2.543 -0.4692  0.9560 -0.0104
   27MOL   H33518067   1.418   5.264   2.749  0.9945 -0.1145 -3.0376
   27MOL   H33618068   1.446   5.087   3.016  1.3280 -0.1196  1.0131
   27MOL   H33718069   1.480   4.937   3.203 -0.1619 -1.0431  0.4345
   27MOL   H33818070   1.047   4.925   3.264  0.9905 -0.1358  0.6221
   27MOL   H33918071   1.023   5.084   3.076 -1.4602 -2.4155  1.6344
   27MOL   H34018072   1.045   5.053   2.797 -1.1265  1.1822 -1.6836
   27MOL   H34118073   1.064   4.978   2.549 -2.1925  2.8686  0.1945
   27MOL   C34218074   1.516   4.563   3.406  0.5685 -0.0396  0.2855
   27MOL   C34318075   1.453   4.689   3.434  0.3603 -0.3130 -0.1906
   27MOL   C34418076   1.339   4.725   3.357 -0.1902 -0.9018  0.6515
   27MOL   O34518077   1.270   4.846   3.365 -0.5725 -0.1970  0.0096
   27MOL   C34618078   1.282   4.629   3.272  0.4593 -0.4826 -0.2638
   27MOL   C34718079   1.341   4.501   3.248  0.1395 -0.3923 -0.0564
   27MOL   C34818080   1.459   4.470   3.312  0.2450  0.2170  0.4158
   27MOL   C34918081   1.537   4.344   3.277 -0.1479  0.4865  0.0172
   27MOL   O35018082   1.621   4.298   3.354  0.4468 -0.2417 -0.2461
   27MOL   C35118083   1.521   4.276   3.143 -0.1133 -0.1312  0.1850
   27MOL   C35218084   1.514   4.356   3.021 -0.4060  0.5552 -0.2999
   27MOL   C35318085   1.502   4.288   2.896 -1.2247 -0.1972  0.0228
   27MOL   C35418086   1.492   4.150   2.895 -0.0050 -0.3675 -0.0924
   27MOL   O35518087   1.471   4.089   2.776  0.4230  0.0282  0.3800
   27MOL   C35618088   1.354   4.123   2.716 -0.1770 -0.9564 -0.9295
   27MOL   C35718089   1.228   4.106   2.783 -0.4286 -0.1436 -0.1361
   27MOL   C35818090   1.107   4.116   2.712 -0.0338  0.1395  0.5757
   27MOL   C35918091   1.113   4.156   2.577  0.0599  0.1777  0.0788
   27MOL   C36018092   1.239   4.176   2.512 -0.0931 -0.0656 -0.0473
   27MOL   C36118093   1.357   4.147   2.578  0.3671 -0.9592 -0.3449
   27MOL   C36218094   1.499   4.079   3.011 -0.8357  0.4119  0.6049
   27MOL   C36318095   1.514   4.139   3.132  0.0177  0.5654  0.4854
   27MOL   H36418096   1.613   4.537   3.446  0.8488 -1.5411 -1.2682
   27MOL   H36518097   1.484   4.762   3.508 -2.1540 -2.6533  3.3373
   27MOL   H36618098   1.193   4.648   3.214  1.2589  1.7119 -0.8206
   27MOL   H36718099   1.287   4.437   3.179 -1.3402  0.0678  0.6408
   27MOL   H36818100   1.525   4.463   3.032 -2.6228  0.7636  0.2065
   27MOL   H36918101   1.496   4.348   2.807 -1.2342  2.0562  1.5014
   27MOL   H37018102   1.229   4.087   2.889  0.2575 -1.9787 -0.4509
   27MOL   H37118103   1.019   4.114   2.775  1.4694  4.0766  2.9977
   27MOL   H37218104   1.240   4.214   2.411 -1.0031 -3.0190 -1.2021
   27MOL   H37318105   1.454   4.160   2.532  0.0945  1.8452 -0.2050
   27MOL   H37418106   1.491   3.971   3.013  3.0631  0.0440  1.2873
   27MOL   H37518107   1.525   4.078   3.221  1.7565  2.1540  1.3871
   27MOL   C37618108   0.870   4.534   2.556  0.1678  0.7137 -0.4390
   27MOL   C37718109   0.911   4.404   2.594 -0.2165 -0.1226 -0.6275
   27MOL   C37818110   0.976   4.321   2.494 -0.3220  0.1951 -0.4520
   27MOL   O37918111   0.996   4.192   2.519  0.2296  0.0906 -0.5784
   27MOL   C38018112   1.023   4.374   2.374 -0.5471 -0.2586 -0.5335
   27MOL   C38118113   0.999   4.510   2.344  0.2377 -0.4192  0.4522
   27MOL   C38218114   0.914   4.589   2.429  0.2047  0.3813 -0.1167
   27MOL   C38318115   0.882   4.728   2.396  0.0567  0.8066 -1.0130
   27MOL   O38418116   0.974   4.799   2.344 -0.0718  0.3638 -0.2671
   27MOL   C38518117   0.749   4.780   2.444 -0.4421 -0.3200  0.2383
   27MOL   C38618118   0.737   4.906   2.498 -0.0256  0.0060 -0.0816
   27MOL   C38718119   0.614   4.946   2.547  0.6226  0.1016  0.4433
   27MOL   C38818120   0.496   4.871   2.527  1.0021 -0.4551  0.0840
   27MOL   O38918121   0.372   4.918   2.556 -0.3154 -0.3161 -0.4310
   27MOL   C39018122   0.307   4.987   2.454 -0.4866  0.0001 -0.2982
   27MOL   C39118123   0.239   4.923   2.350 -0.1234  0.0500 -0.8372
   27MOL   C39218124   0.158   4.998   2.263 -0.4179 -0.0614 -0.1367
   27MOL   C39318125   0.165   5.135   2.267 -0.4754  0.6238 -0.0385
   27MOL   C39418126   0.246   5.205   2.363  0.6636  0.4279  0.9376
   27MOL   C39518127   0.320   5.130   2.456 -0.3072 -0.0531  0.6082
   27MOL   C39618128   0.509   4.749   2.466  0.3882  0.4607  0.0556
   27MOL   C39718129   0.634   4.699   2.430  0.2487 -0.2949 -0.3443
   27MOL   H39818130   0.806   4.586   2.626  0.7412  1.3800 -0.3978
   27MOL   H39918131   0.865   4.369   2.686  1.5435 -0.9339 -0.0331
   27MOL   H40018132   1.081   4.314   2.306  0.2436 -0.8668  0.6546
   27MOL   H40118133   1.027   4.545   2.246  0.4036  0.7008  0.8966
   27MOL   H40218134   0.828   4.963   2.509 -1.1679  1.5003  2.1232
   27MOL   H40318135   0.611   5.046   2.587  0.8766  1.0935 -1.9865
   27MOL   H40418136   0.225   4.819   2.373  0.7540 -0.0292 -0.6629
   27MOL   H40518137   0.081   4.977   2.190 -1.0000 -1.3498  0.8190
   27MOL   H40618138   0.240   5.313   2.371 -2.3990  0.3920 -0.0375
   27MOL   H40718139   0.371   5.179   2.538  0.4969 -1.1351  0.7781
   27MOL   H40818140   0.418   4.693   2.455 -0.0772  1.2600 -0.1759
   27MOL   H40918141   0.651   4.595   2.406  1.5919 -0.2386  0.2754
   27MOL   C41018142   0.168   5.556   2.106  0.4629  0.2353 -0.6361
   27MOL   C41118143   0.109   5.442   2.165 -0.0636 -0.2595 -0.3955
   27MOL   C41218144   0.142   5.313   2.115  0.1828  0.1937 -0.5625
   27MOL   O41318145   0.086   5.204   2.175  0.5519 -0.6442 -0.0817
   27MOL   C41418146   0.231   5.302   2.004 -0.0743 -0.0791  0.7469
   27MOL   C41518147   0.299   5.421   1.962  0.7708 -0.8928  0.6586
   27MOL   C41618148   0.265   5.549   2.009 -0.2172 -0.2014 -0.0358
   27MOL   C41718149   0.333   5.675   1.970 -0.1706 -0.1752 -0.2457
   27MOL   O41818150   0.374   5.751   2.056  0.5641  0.3976  0.1434
   27MOL   C41918151   0.351   5.697   1.821 -0.5498  0.7753  1.2584
   27MOL   C42018152   0.262   5.648   1.726 -0.2634 -0.8620 -0.0646
   27MOL   C42118153   0.290   5.670   1.593  0.1148 -0.3120  0.1509
   27MOL   C42218154   0.392   5.755   1.549  0.0579 -1.3105  0.0224
   27MOL   O42318155   0.421   5.778   1.415 -0.4874  0.2499 -0.1390
   27MOL   C42418156   0.464   5.668   1.342 -0.0583  0.8455 -0.4155
   27MOL   C42518157   0.595   5.623   1.351 -0.1917  0.3255  0.0045
   27MOL   C42618158   0.629   5.508   1.280 -0.0503 -0.1111 -0.3665
   27MOL   C42718159   0.541   5.430   1.203  0.4026 -0.2823 -0.1610
   27MOL   C42818160   0.408   5.475   1.195  0.3112  0.0708  0.8422
   27MOL   C42918161   0.370   5.593   1.263  0.3309 -0.6617 -0.2044
   27MOL   C43018162   0.482   5.807   1.650 -0.6356  0.1170 -0.1996
   27MOL   C43118163   0.451   5.784   1.786 -0.2602 -0.2261  0.8859
   27MOL   H43218164   0.142   5.654   2.145 -1.3285  0.4847 -2.3883
   27MOL   H43318165   0.057   5.456   2.259  1.3853  0.3488  0.3176
   27MOL   H43418166   0.242   5.203   1.962 -0.7838 -0.0589  0.5105
   27MOL   H43518167   0.387   5.419   1.899  0.5267 -0.8732  0.3175
   27MOL   H43618168   0.169   5.598   1.751 -0.5796  0.6333  1.9498
   27MOL   H43718169   0.225   5.625   1.519  1.0461  0.1648 -0.9830
   27MOL   H43818170   0.678   5.668   1.403 -1.0638  1.2173  0.6377
   27MOL   H43918171   0.732   5.477   1.287 -0.7659 -2.2356  1.3911
   27MOL   H44018172   0.336   5.417   1.139  1.1351  1.4968 -1.7979
   27MOL   H44118173   0.268   5.629   1.258 -0.3783 -2.4772  0.8761
   27MOL   H44218174   0.556   5.880   1.621 -0.1929  0.1223  0.9348
   27MOL   H44318175   0.523   5.829   1.853  0.4829  0.9572 -0.6785
   27MOL   C44418176   0.441   5.098   0.885 -0.0948 -0.1580 -0.5169
   27MOL   C44518177   0.524   5.199   0.949  0.4014 -0.8661  0.1233
   27MOL   C44618178   0.504   5.232   1.083 -0.0814 -0.0120  0.3967
   27MOL   O44718179   0.591   5.323   1.140  0.3035  0.2851 -0.1320
   27MOL   C44818180   0.408   5.170   1.162  0.0384 -0.0315  0.2021
   27MOL   C44918181   0.320   5.075   1.101  0.3512 -0.0467 -0.1927
   27MOL   C45018182   0.331   5.046   0.963  0.3342  0.1751 -0.0604
   27MOL   C45118183   0.238   4.958   0.896  0.3230 -0.5972 -0.8313
   27MOL   O45218184   0.221   4.957   0.775  0.1864  0.5462 -0.3093
   27MOL   C45318185   0.162   4.861   0.986  0.2886  0.6755 -0.3157
   27MOL   C45418186   0.025   4.847   0.968  1.0802  0.4679  0.5647
   27MOL   C45518187   8.261   4.766   1.059 -0.6013 -0.6677 -0.0857
   27MOL   C45618188   0.008   4.703   1.162  0.0808 -0.1216  0.6415
   27MOL   O45718189   8.247   4.643   1.256 -0.3848  0.2865 -0.2120
   27MOL   C45818190   8.193   4.720   1.349  0.1736  0.7578 -0.0799
   27MOL   C45918191   8.053   4.703   1.371 -0.3022 -0.3315  0.0784
   27MOL   C46018192   7.990   4.759   1.483 -0.5109  0.1631  0.2679
   27MOL   C46118193   8.060   4.835   1.566 -0.0563  0.2364 -0.5764
   27MOL   C46218194   8.195   4.870   1.534 -0.6553  0.0657  0.0025
   27MOL   C46318195   8.266   4.804   1.436 -1.2042 -0.1904 -0.1536
   27MOL   C46418196   0.150   4.696   1.169 -0.3460 -0.8351  0.8548
   27MOL   C46518197   0.230   4.780   1.083 -0.0980  0.2848  0.3164
   27MOL   H46618198   0.453   5.069   0.782 -0.0527 -2.0780  0.0084
   27MOL   H46718199   0.609   5.231   0.891 -0.0295  0.7573  0.3637
   27MOL   H46818200   0.393   5.185   1.267  2.5901  0.4162  0.5294
   27MOL   H46918201   0.246   5.028   1.163  1.0329 -1.9518 -0.7914
   27MOL   H47018202   8.284   4.896   0.889  0.0497 -1.0094  0.3198
   27MOL   H47118203   8.153   4.757   1.057 -0.5580 -1.3726  0.5208
   27MOL   H47218204   7.992   4.641   1.306 -2.2420  1.5042  0.0857
   27MOL   H47318205   7.886   4.737   1.500  0.0358 -1.1344  2.0468
   27MOL   H47418206   8.242   4.940   1.602 -2.1898  1.5569 -0.4233
   27MOL   H47518207   0.057   4.828   1.415 -1.4360  1.9846  1.1604
   27MOL   H47618208   0.189   4.644   1.255  0.3757  0.2320  1.1731
   27MOL   H47718209   0.337   4.767   1.085  0.1000  1.8941  0.4800
   27MOL   C47818210   8.122   4.881   2.029  0.1233  0.7322 -0.2327
   27MOL   C47918211   8.071   4.929   1.903  0.3983 -1.0172 -0.0239
   27MOL   C48018212   8.047   4.839   1.794 -0.1723  0.3650 -0.1949
   27MOL   O48118213   8.007   4.892   1.680 -0.6347  0.2137 -0.1243
   27MOL   C48218214   8.064   4.700   1.809  0.1377 -0.8552  0.7420
   27MOL   C48318215   8.126   4.650   1.929 -0.0467  0.3519  0.6093
   27MOL   C48418216   8.153   4.739   2.039  0.8140 -0.2233  0.3795
   27MOL   C48518217   8.218   4.684   2.151  0.3070  0.3950  0.0675
   27MOL   O48618218   8.164   4.694   2.258  0.5324  0.5552  0.0198
   27MOL   C48718219   0.026   4.603   2.134 -0.5536 -0.3253 -0.0936
   27MOL   C48818220   0.047   4.497   2.229  0.0558  0.0914  0.1337
   27MOL   C48918221   0.172   4.428   2.239 -0.1682  0.0612 -0.1974
   27MOL   C49018222   0.271   4.455   2.141  0.4881  0.0138  0.0679
   27MOL   O49118223   0.389   4.388   2.130 -0.0392  0.2219 -0.1266
   27MOL   C49218224   0.441   4.320   2.234 -0.6170 -0.3220 -0.1483
   27MOL   C49318225   0.376   4.205   2.284 -0.0256  0.4010 -0.0159
   27MOL   C49418226   0.423   4.136   2.403  0.0173  0.1220  0.4923
   27MOL   C49518227   0.540   4.185   2.460  0.4955  0.5863 -0.3369
   27MOL   C49618228   0.599   4.302   2.416  0.8746  0.2420 -0.8753
   27MOL   C49718229   0.551   4.367   2.304 -0.2195  0.0792 -0.1686
   27MOL   C49818230   0.240   4.550   2.040  0.0360 -0.1903 -1.1191
   27MOL   C49918231   0.128   4.630   2.036  0.1363 -0.5013 -0.3954
   27MOL   H50018232   8.144   4.947   2.111 -0.4585 -0.2906  0.7590
   27MOL   H50118233   8.042   5.033   1.905  0.1469 -1.0857  3.3687
   27MOL   H50218234   8.058   4.644   1.717 -3.1451  0.9840 -0.2282
   27MOL   H50318235   8.165   4.549   1.935 -2.0164 -0.3372  2.4681
   27MOL   H50418236   8.288   4.479   2.307 -1.7369 -0.0023 -1.5076
   27MOL   H50518237   0.192   4.368   2.326  0.7851  1.9351  0.9202
   27MOL   H50618238   0.283   4.176   2.237  0.8192 -0.3884 -1.2299
   27MOL   H50718239   0.369   4.054   2.447 -2.8775  1.6976 -0.0251
   27MOL   H50818240   0.679   4.341   2.475 -0.0097  1.4935 -0.4832
   27MOL   H50918241   0.594   4.458   2.266  0.2948  0.2684  0.8250
   27MOL   H51018242   0.318   4.570   1.968  2.3284  0.9678  1.6078
   27MOL   H51118243   0.107   4.702   1.958  2.0751  1.1433  0.5786
   27MOL   C51218244   0.889   3.906   2.642 -0.0180  0.0531 -0.7650
   27MOL   C51318245   0.783   3.997   2.665 -0.1788 -0.7097  0.0272
   27MOL   C51418246   0.702   4.034   2.554  0.2299 -0.0192 -1.0920
   27MOL   O51518247   0.593   4.113   2.569  0.1797 -0.1303  0.0226
   27MOL   C51618248   0.721   3.970   2.437 -0.5239  0.6385  0.2935
   27MOL   C51718249   0.830   3.882   2.408  0.3252 -0.7559 -0.1644
   27MOL   C51818250   0.912   3.844   2.519 -0.1771 -0.5792  0.5156
   27MOL   C51918251   1.015   3.733   2.495 -0.1295 -0.2175  0.1835
   27MOL   O52018252   1.090   3.702   2.581 -0.0714  0.0129 -0.4646
   27MOL   C52118253   1.020   3.648   2.373 -0.0075  0.5903 -0.3758
   27MOL   C52218254   1.140   3.621   2.307 -0.1615  0.6119 -0.1949
   27MOL   C52318255   1.141   3.547   2.188 -0.1377 -0.5286  0.3246
   27MOL   C52418256   1.023   3.509   2.126  0.9502 -0.0412 -0.0739
   27MOL   O52518257   1.036   3.446   2.006 -0.3602  0.6228  0.0918
   27MOL   C52618258   0.969   3.498   1.898 -0.1051  0.0345  0.5484
   27MOL   C52718259   0.900   3.414   1.814  0.0529  0.0096  0.1911
   27MOL   C52818260   0.839   3.462   1.693 -0.6357  0.2559 -0.2753
   27MOL   C52918261   0.847   3.600   1.667 -0.4982  0.9087 -0.1833
   27MOL   C53018262   0.904   3.690   1.757  0.7144 -0.0320 -0.3251
   27MOL   C53118263   0.960   3.638   1.877  0.1187 -0.3285 -0.0265
   27MOL   C53218264   0.901   3.533   2.195 -0.9445  0.9189  0.5566
   27MOL   C53318265   0.897   3.590   2.324  0.6289 -0.1620  0.3475
   27MOL   H53418266   0.954   3.877   2.724 -0.7919  0.6234  0.0712
   27MOL   H53518267   0.763   4.063   2.749 -0.7905 -0.0998 -0.5897
   27MOL   H53618268   0.665   3.995   2.347 -1.0122 -0.1434  0.3768
   27MOL   H53718269   0.838   3.835   2.311 -0.7375 -1.3789  0.0413
   27MOL   H53818270   1.232   3.665   2.343 -0.2833  0.8556 -0.1843
   27MOL   H53918271   1.237   3.527   2.142 -0.6704  0.5491 -1.3109
   27MOL   H54018272   0.892   3.308   1.834 -0.3280  0.0566  0.2860
   27MOL   H54118273   0.779   3.397   1.630 -1.1425 -1.8559  2.3060
   27MOL   H54218274   0.927   3.792   1.732 -1.1024  0.8651  1.5856
   27MOL   H54318275   1.013   3.700   1.948  0.8300 -0.0905 -0.7523
   27MOL   H54418276   0.810   3.497   2.149 -0.4539  0.3047  0.0558
   27MOL   H54518277   0.800   3.609   2.367  0.1751  2.0682 -1.5873
   27MOL   C54618278   0.517   3.855   1.452  0.1325  1.0874 -0.2507
   27MOL   C54718279   0.645   3.803   1.462 -0.0308 -0.3416 -0.1721
   27MOL   C54818280   0.670   3.694   1.547  0.0271  0.5954 -0.0991
   27MOL   O54918281   0.792   3.639   1.549 -0.1123  0.3771  0.1853
   27MOL   C55018282   0.558   3.631   1.616  0.7270 -0.0641  0.2251
   27MOL   C55118283   0.428   3.680   1.597  0.2247  0.3704  0.2042
   27MOL   C55218284   0.405   3.793   1.519 -0.2107 -0.5989  0.6633
   27MOL   C55318285   0.266   3.851   1.504  0.0143  0.1163 -0.1262
   27MOL   O55418286   0.191   3.779   1.436  0.1003 -0.4714 -0.3920
   27MOL   C55518287   0.226   3.972   1.576 -0.0343  0.2186  0.1861
   27MOL   C55618288   0.303   4.059   1.654 -0.8786 -0.0964 -0.1091
   27MOL   C55718289   0.246   4.171   1.723 -0.0344 -0.7256  0.5624
   27MOL   C55818290   0.105   4.198   1.718  0.0075  0.1798 -0.0208
   27MOL   O55918291   0.046   4.312   1.768  0.4002  0.1371  0.5583
   27MOL   C56018292   8.271   4.298   1.872  0.7421 -0.4994 -0.3483
   27MOL   C56118293   8.135   4.324   1.859  0.1543 -0.5372  1.0205
   27MOL   C56218294   8.042   4.311   1.971 -0.0618 -0.7240  0.0223
   27MOL   C56318295   8.087   4.260   2.099  0.2694 -0.8664 -0.3474
   27MOL   C56418296   8.226   4.233   2.107  0.1921 -0.4738  0.1537
   27MOL   C56518297   8.312   4.250   1.998 -0.2747  0.1663  0.5312
   27MOL   C56618298   0.027   4.106   1.646  0.5629  0.1680 -0.5654
   27MOL   C56718299   0.087   4.001   1.569  0.1484  0.7550  0.0305
   27MOL   H56818300   0.508   3.940   1.386  0.4698  0.5930 -0.9354
   27MOL   H56918301   0.730   3.848   1.415  0.0053 -0.1954  0.0334
   27MOL   H57018302   0.575   3.544   1.678 -1.5619  1.6463  3.4482
   27MOL   H57118303   0.346   3.630   1.646  1.7922 -3.5278 -0.9524
   27MOL   H57218304   0.411   4.052   1.650 -0.7275  0.7627  1.8517
   27MOL   H57318305   0.313   4.236   1.777  2.5836 -2.1480 -0.8697
   27MOL   H57418306   8.096   4.368   1.769  1.1464 -2.1377 -0.2018
   27MOL   H57518307   7.942   4.351   1.969  0.1304 -0.0863  1.9685
   27MOL   H57618308   8.264   4.207   2.205 -0.6272  0.3243  0.6828
   27MOL   H57718309   0.103   4.229   2.020 -0.3218 -0.2471  0.3595
   27MOL   H57818310   8.234   4.125   1.644  0.4937 -0.2273 -0.7225
   27MOL   H57918311   0.018   3.939   1.512 -1.0976 -0.1165  2.4093
   27MOL   C58018312   7.677   4.148   2.169  0.1782 -0.3293  0.6814
   27MOL   C58118313   7.810   4.165   2.147  0.4692  0.6636  0.8537
   27MOL   C58218314   7.886   4.251   2.229 -0.4812  0.5676  0.0044
   27MOL   O58318315   8.020   4.256   2.220  0.3972  0.7059 -0.0843
   27MOL   C58418316   7.815   4.321   2.326 -0.0406 -0.8858 -0.5434
   27MOL   C58518317   7.681   4.310   2.353  0.7434  0.2685  0.2407
   27MOL   C58618318   7.604   4.222   2.266 -0.7899  0.3055  0.6248
   27MOL   C58718319   7.459   4.204   2.291  0.3566 -0.4324  0.7960
   27MOL   O58818320   7.397   4.295   2.339 -0.8300  0.0080 -0.1378
   27MOL   C58918321   7.392   4.072   2.275  0.2369 -0.2904  0.5157
   27MOL   C59018322   7.253   4.066   2.249 -0.1267 -0.4041 -0.4152
   27MOL   C59118323   7.194   3.941   2.244  0.3263  0.0387  0.1741
   27MOL   C59218324   7.264   3.818   2.256  0.4854  0.4096  0.7936
   27MOL   O59318325   7.204   3.689   2.264 -0.0391  0.1701 -0.2094
   27MOL   C59418326   7.119   3.669   2.370  0.0478  0.3557 -0.0904
   27MOL   C59518327   7.168   3.638   2.501 -0.5229 -0.1114  0.4872
   27MOL   C59618328   7.078   3.613   2.610  0.0024  0.4599  0.3123
   27MOL   C59718329   6.940   3.629   2.584  0.2737  0.4351 -0.8152
   27MOL   C59818330   6.891   3.653   2.454  0.0326 -0.0533 -0.2159
   27MOL   C59918331   6.977   3.675   2.348 -0.3293  0.4809 -0.1659
   27MOL   C60018332   7.404   3.826   2.279 -0.0187  0.6248  0.3405
   27MOL   C60118333   7.468   3.950   2.277 -0.2784  0.2530 -0.3516
   27MOL   H60218334   7.632   4.071   2.107 -0.6769  0.0568  0.8093
   27MOL   H60318335   7.850   4.106   2.066 -0.8287 -0.6760  1.1514
   27MOL   H60418336   7.863   4.394   2.389 -0.7764 -0.3113 -0.6502
   27MOL   H60518337   7.627   4.359   2.432 -1.4002 -0.7753 -0.5085
   27MOL   H60618338   7.197   4.157   2.232  0.7781  0.1234 -0.6687
   27MOL   H60718339   7.088   3.934   2.223  0.2666  1.3823 -0.0234
   27MOL   H60818340   7.274   3.628   2.515 -0.9167 -2.4962  2.0379
   27MOL   H60918341   7.111   3.594   2.711 -2.2903 -1.5428  0.7303
   27MOL   H61018342   6.784   3.664   2.444 -0.0369  1.2718  1.7300
   27MOL   H61118343   6.936   3.694   2.250  0.0630 -0.4356 -0.5165
   27MOL   H61218344   7.462   3.735   2.283 -0.7579  0.0836 -0.7696
   27MOL   H61318345   7.575   3.950   2.288 -0.3717 -2.9368  0.9801
   27MOL   C61418346   6.738   3.953   2.791  0.0501  0.3592 -0.2413
   27MOL   C61518347   6.823   3.846   2.760 -0.4001  0.4941 -0.3507
   27MOL   C61618348   6.765   3.722   2.722  0.7413 -0.3791 -0.2040
   27MOL   O61718349   6.847   3.620   2.683  0.1553  0.6343 -0.0173
   27MOL   C61818350   6.626   3.700   2.729 -0.9424  0.0572 -0.0603
   27MOL   C61918351   6.543   3.810   2.764  0.4620  0.0029 -0.3533
   27MOL   C62018352   6.599   3.939   2.794  0.5108  0.2821 -0.2991
   27MOL   C62118353   6.513   4.057   2.826  0.2074 -0.0337  0.2157
   27MOL   O62218354   6.428   4.053   2.911 -0.4730 -0.4596  0.2022
   27MOL   C62318355   6.522   4.187   2.745  0.2003  0.3702 -1.0069
   27MOL   C62418356   6.437   4.297   2.776  0.0664  0.7902 -0.4504
   27MOL   C62518357   6.428   4.411   2.703 -0.4418 -0.0054 -0.8778
   27MOL   C62618358   6.527   4.427   2.599  0.8415  0.1085  0.4145
   27MOL   O62718359   6.512   4.544   2.524 -0.2423 -0.5415 -0.2034
   27MOL   C62818360   6.494   4.525   2.386 -0.1522 -0.6291 -0.6160
   27MOL   C62918361   6.604   4.511   2.300  0.5383  0.2711 -0.1262
   27MOL   C63018362   6.586   4.495   2.159 -0.4307  0.0207  0.3025
   27MOL   C63118363   6.457   4.505   2.104 -0.1303 -0.3186 -0.5226
   27MOL   C63218364   6.348   4.513   2.194 -0.2125 -0.9161 -0.1820
   27MOL   C63318365   6.363   4.528   2.336 -0.3391  0.1786  0.3989
   27MOL   C63418366   6.624   4.332   2.569  0.2551 -0.4612 -0.1555
   27MOL   C63518367   6.621   4.216   2.642  0.8269  0.0688 -1.1580
   27MOL   H63618368   6.780   4.049   2.817  1.0627 -0.0173 -0.4422
   27MOL   H63718369   6.930   3.863   2.752 -0.4952  0.4131 -2.0311
   27MOL   H63818370   6.588   3.601   2.707 -0.1149  0.0111 -1.3642
   27MOL   H63918371   6.437   3.790   2.777  1.0781 -3.0017  0.4133
   27MOL   H64018372   6.366   4.279   2.855 -0.4622 -1.0589 -1.3317
   27MOL   H64118373   6.353   4.488   2.714  0.4952  0.4978  2.4638
   27MOL   H64218374   6.701   4.503   2.348 -1.1000 -1.4631  3.0373
   27MOL   H64318375   6.673   4.492   2.096 -1.9077 -2.9782 -1.7743
   27MOL   H64418376   6.249   4.515   2.151  0.5844  0.4910 -1.9955
   27MOL   H64518377   6.277   4.541   2.400  0.0925 -0.5408  1.1240
   27MOL   H64618378   6.704   4.351   2.499 -0.1588 -1.2735 -0.8629
   27MOL   H64718379   6.688   4.136   2.613  0.5014 -1.0656  1.1403
   27MOL   C64818380   6.556   4.810   1.816 -0.0487  0.7579 -0.6242
   27MOL   C64918381   6.551   4.686   1.875 -0.2809 -0.5992  0.0800
   27MOL   C65018382   6.429   4.626   1.908  0.1108 -0.1384 -0.2148
   27MOL   O65118383   6.434   4.507   1.969 -0.1351 -0.4389  0.1046
   27MOL   C65218384   6.313   4.695   1.880 -0.4928  0.4045  0.5184
   27MOL   C65318385   6.319   4.824   1.826  0.0005  0.0662  0.0833
   27MOL   C65418386   6.440   4.882   1.793 -0.1765  0.2037 -0.3836
   27MOL   C65518387   6.440   5.029   1.745 -0.0780  0.0733  0.5802
   27MOL   O65618388   6.363   5.112   1.797  0.4908 -0.4672  0.2695
   27MOL   C65718389   6.522   5.073   1.631 -0.6916 -0.7526  0.4291
   27MOL   C65818390   6.595   4.989   1.554 -0.2255  0.6367  0.5647
   27MOL   C65918391   6.669   5.030   1.443  0.1185 -0.1646  0.5391
   27MOL   C66018392   6.660   5.163   1.398 -0.7419 -0.3949 -0.0744
   27MOL   O66118393   6.708   5.194   1.278 -0.2706  0.4999  0.5035
   27MOL   C66218394   6.759   5.312   1.232  0.7112 -0.3428  0.6222
   27MOL   C66318395   6.670   5.419   1.204  0.4035  0.0503 -1.3650
   27MOL   C66418396   6.716   5.532   1.134 -0.0216  0.3643  0.3209
   27MOL   C66518397   6.850   5.537   1.097  0.3007 -0.3426  0.6066
   27MOL   C66618398   6.941   5.435   1.130 -0.2132 -0.0251  0.1699
   27MOL   C66718399   6.894   5.318   1.194 -0.0214 -0.1350  0.2303
   27MOL   C66818400   6.583   5.251   1.467  0.1357  0.0883 -0.7706
   27MOL   C66918401   6.519   5.208   1.587  0.1207  0.2494 -0.4609
   27MOL   H67018402   6.651   4.861   1.803  0.5596  0.3998  2.1740
   27MOL   H67118403   6.644   4.633   1.890 -1.3188 -2.1150  1.2220
   27MOL   H67218404   6.219   4.645   1.902  0.3556 -1.0893  0.8648
   27MOL   H67318405   6.231   4.885   1.811  0.3054  0.3986 -0.3548
   27MOL   H67418406   6.601   4.884   1.577  0.0439  0.5611  0.1600
   27MOL   H67518407   6.719   4.957   1.382  1.4495  0.5899  0.7128
   27MOL   H67618408   6.564   5.405   1.221  0.2105  1.4017 -1.3614
   27MOL   H67718409   6.643   5.605   1.101  1.0545  1.4774  0.3888
   27MOL   H67818410   7.044   5.450   1.104 -0.5556  0.8030 -0.7417
   27MOL   H67918411   6.960   5.236   1.219 -1.1922 -0.5511  2.0875
   27MOL   H68018412   6.556   5.350   1.433 -0.7102 -0.2604 -1.1164
   27MOL   H68118413   6.462   5.279   1.646 -0.4415 -0.0718 -0.6168
   27MOL   H68218414   6.887   5.617   1.035  0.1483 -1.9153 -1.5937
   28MOL     C118415   2.826   2.802   0.108 -0.5784  0.8542  0.5907
   28MOL     C218416   2.958   2.846   0.080 -0.3852 -0.7940  0.5573
   28MOL     C318417   3.012   2.813   8.270 -0.1546 -0.7034  0.9383
   28MOL     O418418   3.143   2.850   8.238 -0.0294 -0.0580  0.1097
   28MOL     C518419   2.943   2.739   8.172  0.1969  1.0825 -0.4323
   28MOL     C618420   2.813   2.689   8.204  0.1430  0.7020  0.3255
   28MOL     C718421   2.756   2.724   0.014 -0.1363  0.0902 -0.3162
   28MOL     C818422   2.616   2.675   0.040 -0.1627 -0.5620 -0.5041
   28MOL     O918423   2.592   2.555   0.032 -0.3247 -0.3839 -0.4367
   28MOL    C1018424   2.519   2.781   0.076 -0.0803 -0.2047  0.3995
   28MOL    C1118425   2.537   2.909   0.023 -0.0365  0.2073  0.0055
   28MOL    C1218426   2.444   3.014   0.066  0.1406  0.4179  0.1397
   28MOL    C1318427   2.336   2.987   0.155  0.2004 -1.2722 -0.4657
   28MOL    O1418428   2.247   3.092   0.191  0.3455  0.7250 -0.4322
   28MOL    C1518429   2.287   3.179   0.288 -1.1676 -0.0782 -0.1739
   28MOL    C1618430   2.373   3.137   0.393  0.2313  0.3070  0.1115
   28MOL    C1718431   2.425   3.225   0.484  0.7808 -0.0324  0.0764
   28MOL    C1818432   2.386   3.367   0.475 -0.0605  0.5294  0.1738
   28MOL    C1918433   2.297   3.407   0.378 -0.0624  0.1543  0.0396
   28MOL    C2018434   2.255   3.316   0.275 -0.1397  0.4302  0.2536
   28MOL    C2118435   2.313   2.853   0.192  0.3567  0.5311  0.2790
   28MOL    C2218436   2.401   2.753   0.153  0.0287  0.7329  0.9791
   28MOL    H2318437   2.788   2.832   0.204 -0.2196 -2.0356  1.6959
   28MOL    H2418438   3.011   2.908   0.151 -1.9405  0.0443  1.0224
   28MOL    H2518439   3.000   2.713   8.085  0.6351 -1.5838  0.6073
   28MOL    H2618440   2.752   2.642   8.128 -1.0884  2.8960 -0.0916
   28MOL    H2718441   2.618   2.937   8.270  0.6704 -0.9244  0.3766
   28MOL    H2818442   2.470   3.116   0.041 -0.1861  0.9198  1.7758
   28MOL    H2918443   2.385   3.030   0.398 -0.4614  0.2634  0.7082
   28MOL    H3018444   2.491   3.203   0.567  0.7721  0.0243  0.0981
   28MOL    H3118445   2.264   3.509   0.367  1.4032  0.7024  0.5409
   28MOL    H3218446   2.197   3.347   0.189 -0.1126 -1.7849 -0.5944
   28MOL    H3318447   2.230   2.827   0.257 -0.6319 -0.8453 -1.4947
   28MOL    H3418448   2.386   2.655   0.196 -0.7992 -0.1264 -1.2113
   28MOL    H3518449   3.189   2.876   0.003 -0.8330 -0.6470  0.7917
   28MOL    C3618450   2.776   3.398   0.694 -0.0819  0.5880  0.3158
   28MOL    C3718451   2.633   3.389   0.679 -0.1694  0.3377  0.9715
   28MOL    C3818452   2.573   3.461   0.573  0.0105 -0.3055  0.1491
   28MOL    O3918453   2.437   3.454   0.565 -0.2702  0.2734 -0.7020
   28MOL    C4018454   2.645   3.546   0.493  0.1334 -0.2473 -0.4561
   28MOL    C4118455   2.785   3.551   0.506  0.3003 -0.7936  0.5794
   28MOL    C4218456   2.852   3.480   0.604  1.1372 -0.0777  0.0495
   28MOL    C4318457   3.004   3.475   0.597 -0.1838 -0.2017  0.1828
   28MOL    O4418458   3.057   3.505   0.489 -0.5362 -0.6040  0.4341
   28MOL    C4518459   3.076   3.458   0.726 -0.2643 -1.1371 -0.0808
   28MOL    C4618460   3.033   3.532   0.835  0.3323  0.3909  0.1751
   28MOL    C4718461   3.096   3.508   0.958  0.5838 -0.0656  0.5780
   28MOL    C4818462   3.192   3.409   0.975 -0.1247  0.2249  0.2139
   28MOL    O4918463   3.234   3.386   1.098  0.5895 -0.4085  0.7454
   28MOL    C5018464   3.352   3.449   1.133 -0.0410  0.2301  0.0024
   28MOL    C5118465   3.470   3.369   1.143 -0.6585  0.5771  1.0193
   28MOL    C5218466   3.586   3.426   1.191  0.2259  0.1723  0.0040
   28MOL    C5318467   3.591   3.566   1.211 -0.2200  0.0319 -0.1868
   28MOL    C5418468   3.480   3.650   1.197 -0.5928  0.0453  0.1936
   28MOL    C5518469   3.358   3.586   1.158 -0.2938 -0.0736 -0.4230
   28MOL    C5618470   3.231   3.339   0.859 -0.3632 -0.0349  0.0460
   28MOL    C5718471   3.184   3.365   0.732  0.0500 -1.0543  0.3503
   28MOL    H5818472   2.826   3.340   0.771  1.2480  0.6520 -0.4789
   28MOL    H5918473   2.574   3.336   0.752 -2.6776  2.0148  0.2259
   28MOL    H6018474   2.593   3.605   0.419 -0.2522 -0.2318 -0.1732
   28MOL    H6118475   2.837   3.621   0.442 -2.4803  2.4656  1.7777
   28MOL    H6218476   2.952   3.603   0.831 -0.8613 -1.0354 -1.4788
   28MOL    H6318477   3.075   3.569   1.045  0.4271  0.6335  0.0568
   28MOL    H6418478   3.456   3.263   1.129 -0.1146  0.5789  0.4746
   28MOL    H6518479   3.674   3.363   1.201  0.9911  1.2698  0.3202
   28MOL    H6618480   3.491   3.758   1.203 -0.5117  0.0208  0.4687
   28MOL    H6718481   3.267   3.643   1.160 -1.0999 -1.3309 -0.9204
   28MOL    H6818482   3.306   3.265   0.884  0.2119  0.0237 -1.4192
   28MOL    H6918483   3.206   3.301   0.649  0.2497 -0.1697 -0.2885
   28MOL    C7018484   3.980   3.528   1.451  0.0697 -0.4399 -0.5362
   28MOL    C7118485   3.911   3.558   1.336  0.3701  1.0295  0.2908
   28MOL    C7218486   3.781   3.600   1.342 -0.1996  0.0424 -0.1754
   28MOL    O7318487   3.715   3.634   1.232 -0.3665 -0.8033  1.0117
   28MOL    C7418488   3.713   3.615   1.470 -0.4449 -0.2254  0.3180
   28MOL    C7518489   3.791   3.604   1.586 -0.4573  0.2096 -0.2994
   28MOL    C7618490   3.922   3.551   1.580  0.0348 -0.5083 -0.0014
   28MOL    C7718491   3.996   3.503   1.699 -0.1758 -0.1921  0.0314
   28MOL    O7818492   4.075   3.405   1.686  0.7441  0.5208 -0.4098
   28MOL    C7918493   3.989   3.584   1.821  1.0583  0.5669 -0.4500
   28MOL    C8018494   3.972   3.517   1.943  0.1017 -0.7697  0.3786
   28MOL    C8118495   3.930   3.595   2.055 -0.3135  0.4853 -0.0023
   28MOL    C8218496   3.946   3.740   2.048 -0.2513 -0.4310 -0.3368
   28MOL    O8318497   3.935   3.816   2.162  0.2085 -0.1997 -0.1667
   28MOL    C8418498   3.819   3.824   2.235 -0.1055 -0.8173 -0.2213
   28MOL    C8518499   3.819   3.789   2.371  0.1103  0.2052  0.1091
   28MOL    C8618500   3.693   3.785   2.442  0.1422 -0.1213 -0.0835
   28MOL    C8718501   3.570   3.821   2.379  0.2025 -0.2043 -0.4964
   28MOL    C8818502   3.581   3.861   2.245 -0.4697 -0.3117 -0.9277
   28MOL    C8918503   3.698   3.855   2.173  0.4265 -0.4501 -0.5582
   28MOL    C9018504   3.963   3.806   1.926  0.6272  0.3813  0.5960
   28MOL    C9118505   3.989   3.727   1.814 -0.2929  0.0618 -0.4487
   28MOL    H9218506   4.075   3.478   1.448  1.2467  1.6480  0.4582
   28MOL    H9318507   3.952   3.533   1.239  0.8891  2.8508  0.0195
   28MOL    H9418508   3.610   3.647   1.472  0.6720  3.7808 -1.0978
   28MOL    H9518509   3.739   3.624   1.678 -2.5166 -0.6742 -1.2288
   28MOL    H9618510   3.963   3.410   1.935  0.3210 -0.7347 -0.3837
   28MOL    H9718511   3.906   3.543   2.147 -1.8263 -1.6755 -1.5387
   28MOL    H9818512   3.906   3.769   2.431 -0.6805  0.7667  1.4721
   28MOL    H9918513   3.686   3.767   2.548 -1.7380  2.4331  0.2693
   28MOL   H10018514   3.494   3.902   2.196 -2.7924 -1.9652  1.6281
   28MOL   H10118515   3.702   3.874   2.067 -0.2155 -1.8175 -0.8241
   28MOL   H10218516   3.986   3.911   1.935 -0.1628  0.6901 -0.9678
   28MOL   H10318517   4.021   3.779   1.725 -0.8593  0.7538 -0.2490
   28MOL   C10418518   3.312   3.930   2.774  0.3673  0.1661  0.5282
   28MOL   C10518519   3.345   3.846   2.660 -0.8336 -0.1922  0.4461
   28MOL   C10618520   3.424   3.895   2.549  0.1627  0.8345  0.1281
   28MOL   O10718521   3.444   3.825   2.436  0.1711  0.0586 -0.2424
   28MOL   C10818522   3.475   4.027   2.559  0.1355  0.9932  0.7716
   28MOL   C10918523   3.441   4.109   2.667  0.1569 -0.1233  0.0067
   28MOL   C11018524   3.360   4.057   2.771 -0.2295 -0.2390 -0.3290
   28MOL   C11118525   3.329   4.152   2.882  0.2634 -0.5751 -0.0832
   28MOL   O11218526   3.420   4.199   2.941  0.2662 -0.2232  0.4584
   28MOL   C11318527   3.184   4.193   2.898  0.6163 -0.0631 -0.3437
   28MOL   C11418528   3.090   4.176   2.801 -0.6283  0.3760 -0.0892
   28MOL   C11518529   2.965   4.230   2.810 -0.3297 -0.7180  0.3037
   28MOL   C11618530   2.926   4.305   2.925  0.3452 -0.0321  0.0128
   28MOL   O11718531   2.796   4.345   2.934 -0.0681 -0.1580  0.2691
   28MOL   C11818532   2.736   4.380   3.054  0.6895  0.4134  0.1978
   28MOL   C11918533   2.740   4.294   3.170  0.6049 -0.4001  0.8863
   28MOL   C12018534   2.675   4.327   3.287 -0.2527  0.2976 -0.2761
   28MOL   C12118535   2.603   4.446   3.294  0.1918 -0.1643 -0.8127
   28MOL   C12218536   2.589   4.531   3.183 -0.2540  0.9084 -0.2281
   28MOL   C12318537   2.648   4.491   3.060 -0.1451 -0.0867 -0.0157
   28MOL   C12418538   3.029   4.348   3.011  0.4065  0.5379  0.1030
   28MOL   C12518539   3.155   4.290   2.999 -0.3753  0.1649 -0.0431
   28MOL   H12618540   3.254   3.890   2.855  2.0074 -1.2722  1.0092
   28MOL   H12718541   3.300   3.747   2.660 -1.4936  0.0987 -0.7761
   28MOL   H12818542   3.531   4.075   2.481  0.7344 -0.6966  0.1386
   28MOL   H12918543   3.479   4.210   2.671 -1.8271  0.6477 -0.2837
   28MOL   H13018544   3.121   4.126   2.711 -0.9630 -1.3633  0.7313
   28MOL   H13118545   2.889   4.219   2.734  1.1462  0.6719 -1.3982
   28MOL   H13218546   2.805   4.208   3.162 -0.8924 -1.3426 -1.9823
   28MOL   H13318547   2.689   4.266   3.374 -0.2189 -0.3200 -0.7099
   28MOL   H13418548   2.542   4.628   3.190 -0.7145  0.7315 -0.8474
   28MOL   H13518549   2.643   4.563   2.980  0.3990 -0.6676 -0.5757
   28MOL   H13618550   3.007   4.415   3.092  2.2448  3.0145 -1.3844
   28MOL   H13718551   3.232   4.321   3.069 -0.0623  0.3889 -0.4831
   28MOL   C13818552   2.814   4.673   3.602  0.3125  0.1192 -0.5838
   28MOL   C13918553   2.747   4.570   3.527  0.8295  0.0821  0.7239
   28MOL   C14018554   2.616   4.588   3.483  0.2062  0.3250 -0.4128
   28MOL   O14118555   2.553   4.488   3.419  0.3456  0.2846 -0.0528
   28MOL   C14218556   2.542   4.701   3.517 -0.0946  1.1102  0.2464
   28MOL   C14318557   2.595   4.799   3.596 -0.1012 -0.1493  0.0261
   28MOL   C14418558   2.732   4.785   3.635  0.1608 -0.1920  0.7659
   28MOL   C14518559   2.799   4.910   3.683  0.4147  0.6660  0.1985
   28MOL   O14618560   2.765   4.948   3.798  0.0101  0.1578 -0.1341
   28MOL   C14718561   2.878   4.993   3.585 -0.3209  0.6241  0.0094
   28MOL   C14818562   2.854   4.995   3.445  0.1495 -0.1459 -0.0277
   28MOL   C14918563   2.942   5.063   3.358  0.1929  0.5866 -0.2147
   28MOL   C15018564   3.061   5.118   3.405 -0.1922  1.0325 -0.4283
   28MOL   O15118565   3.153   5.152   3.311 -0.4305 -0.1163 -0.4407
   28MOL   C15218566   3.285   5.129   3.340  0.3035  0.6759 -0.8163
   28MOL   C15318567   3.381   5.237   3.358 -0.4072 -0.7687  0.3789
   28MOL   C15418568   3.506   5.210   3.412 -1.0934 -0.1115  0.3544
   28MOL   C15518569   3.535   5.078   3.447  0.2428 -0.1618  0.1138
   28MOL   C15618570   3.445   4.969   3.434 -0.0837  0.2010 -0.3399
   28MOL   C15718571   3.322   4.998   3.367  0.6510  0.0522  0.6076
   28MOL   C15818572   3.081   5.130   3.541  0.1770  0.4728 -0.2763
   28MOL   C15918573   2.991   5.069   3.633 -0.0102 -0.2578  0.0980
   28MOL   H16018574   2.918   4.674   3.630 -0.0556  1.3492  0.8098
   28MOL   H16118575   2.796   4.482   3.490  1.5027  1.3411 -1.4722
   28MOL   H16218576   2.437   4.702   3.492  0.1371  2.2855 -0.6936
   28MOL   H16318577   2.536   4.887   3.618 -0.2418 -0.9275  3.0522
   28MOL   H16418578   2.769   4.944   3.401 -0.3977  0.5872  0.1855
   28MOL   H16518579   2.911   5.068   3.255 -2.4223  1.2254  0.5585
   28MOL   H16618580   3.341   5.333   3.328 -0.3695 -0.9950 -0.4033
   28MOL   H16718581   3.572   5.290   3.439  0.5002 -1.8599  1.7689
   28MOL   H16818582   3.465   4.865   3.455 -1.8035 -0.0163  0.3265
   28MOL   H16918583   3.262   4.911   3.347 -2.7102  2.1925  0.8640
   28MOL   H17018584   3.165   5.188   3.576  1.8402 -2.2709  0.4424
   28MOL   H17118585   3.002   5.084   3.739  0.6844  0.9341 -0.1348
   28MOL   C17218586   3.673   5.093   3.869 -0.6012  0.8691 -0.9299
   28MOL   C17318587   3.639   5.118   3.732  0.4530 -0.4577 -0.4060
   28MOL   C17418588   3.680   5.028   3.630 -0.3966 -0.3678  0.5464
   28MOL   O17518589   3.662   5.050   3.494  0.1731  0.0011  0.0486
   28MOL   C17618590   3.754   4.912   3.664 -0.2579  0.0474  0.0591
   28MOL   C17718591   3.789   4.884   3.803 -0.1575  0.0959 -0.5311
   28MOL   C17818592   3.749   4.979   3.906  0.5102  0.2386 -0.3489
   28MOL   C17918593   3.803   4.964   4.050 -0.2222  1.4991  0.2503
   28MOL   O18018594   3.769   4.864   4.117 -0.3310 -0.2662 -0.0471
   28MOL   C18118595   3.902   5.061   4.093 -0.0768 -0.3348  0.4410
   28MOL   C18218596   3.967   5.039   4.215 -0.2822  0.3702 -0.1198
   28MOL   C18318597   4.071   5.125   4.256  0.1084  0.5637 -0.1546
   28MOL   C18418598   4.110   5.230   4.173  0.3076 -0.0624 -0.9951
   28MOL   O18518599   4.210   5.320   4.196 -0.2015  0.4553 -0.4836
   28MOL   C18618600   4.274   5.328   4.319  0.1096  0.0929  0.1403
   28MOL   C18718601   4.221   5.421   4.404 -0.3024  0.3449 -0.1844
   28MOL   C18818602   4.277   5.440   4.534 -0.4591 -0.1361 -0.3595
   28MOL   C18918603   4.379   5.352   4.581 -0.2551 -0.0806  1.0391
   28MOL   C19018604   4.433   5.257   4.488 -0.0190  0.1524  0.4075
   28MOL   C19118605   4.383   5.252   4.350 -0.6106  0.2374 -0.0286
   28MOL   C19218606   4.047   5.257   4.052  0.0527  0.8793  0.2371
   28MOL   C19318607   3.939   5.171   4.015 -0.5548 -0.7062  0.2441
   28MOL   H19418608   3.644   5.167   3.942  2.5415 -0.6599  1.9888
   28MOL   H19518609   3.603   5.212   3.693 -0.0297 -0.2057  0.6402
   28MOL   H19618610   3.789   4.836   3.596  3.3819  0.1927  1.6731
   28MOL   H19718611   3.834   4.790   3.831  2.5726  1.6151  0.2986
   28MOL   H19818612   3.943   4.953   4.275 -0.3486  0.5158  0.0641
   28MOL   H19918613   4.137   5.095   4.336  0.4493 -2.5242 -1.4945
   28MOL   H20018614   4.137   5.484   4.382  0.7916  1.3870 -1.4620
   28MOL   H20118615   4.234   5.511   4.604  0.5622  0.1473 -0.0074
   28MOL   H20218616   4.506   5.182   4.515 -0.3406 -1.2341 -2.4132
   28MOL   H20318617   4.421   5.180   4.279  0.2549  1.3506 -0.7090
   28MOL   H20418618   4.066   5.348   3.997 -0.9489  2.4343  2.3870
   28MOL   H20518619   3.885   5.193   3.925  0.5635  0.2444 -0.1967
   28MOL   C20618620   4.746   5.514   4.832  0.2490 -0.4158 -0.1511
   28MOL   C20718621   4.635   5.429   4.809  0.0359 -0.1429 -0.4274
   28MOL   C20818622   4.529   5.466   4.727  0.0202  0.7162 -0.3223
   28MOL   O20918623   4.432   5.371   4.705  0.7193  0.0310  0.0652
   28MOL   C21018624   4.528   5.594   4.668 -0.0790 -0.4975 -0.4792
   28MOL   C21118625   4.635   5.686   4.704  0.6008  0.6140  0.5473
   28MOL   C21218626   4.749   5.644   4.774  0.5530  0.6444  0.5718
   28MOL   C21318627   4.871   5.728   4.784 -0.3873  0.2814 -0.0911
   28MOL   O21418628   4.980   5.673   4.766  0.1962 -0.1385  0.4290
   28MOL   C21518629   4.854   5.877   4.797 -0.2452 -0.8489 -0.3382
   28MOL   C21618630   4.745   5.946   4.860  0.3415  0.0427  0.1691
   28MOL   C21718631   4.737   6.087   4.863 -0.1166  0.3708  0.2623
   28MOL   C21818632   4.848   6.166   4.820  0.3136  0.3635 -0.2963
   28MOL   O21918633   4.855   6.303   4.844  0.1390  0.0076  0.2849
   28MOL   C22018634   4.824   6.393   4.743  0.2095  0.0764  0.0201
   28MOL   C22118635   4.920   6.418   4.648 -0.1125  0.3633 -0.0722
   28MOL   C22218636   4.899   6.514   4.547 -0.4214  0.1291 -0.1091
   28MOL   C22318637   4.777   6.583   4.538 -0.0713 -0.2742  0.0774
   28MOL   C22418638   4.680   6.561   4.641  0.4268 -0.0597  0.1409
   28MOL   C22518639   4.708   6.475   4.743  0.2547  0.1070  0.2008
   28MOL   C22618640   4.959   6.100   4.765 -0.1330 -0.4890 -1.1653
   28MOL   C22718641   4.968   5.957   4.760 -0.7296  0.2396  0.3118
   28MOL   H22818642   4.832   5.481   4.889 -0.2402  0.1978  0.9518
   28MOL   H22918643   4.628   5.329   4.851 -0.2885  0.3219  0.6485
   28MOL   H23018644   4.444   5.627   4.608 -0.0717  1.0166  0.3213
   28MOL   H23118645   4.610   5.787   4.675  0.6864  0.4925  0.0274
   28MOL   H23218646   4.666   5.890   4.908  0.8567  0.1246  1.1301
   28MOL   H23318647   4.648   6.134   4.903  0.9249  1.2177  1.6330
   28MOL   H23418648   5.014   6.366   4.657  0.4017  0.6768 -3.1174
   28MOL   H23518649   4.977   6.539   4.477  0.5524  0.8533  1.2113
   28MOL   H23618650   4.595   6.628   4.636 -0.5993 -1.3165  0.6370
   28MOL   H23718651   4.633   6.460   4.820  0.3300 -0.8886  0.0826
   28MOL   H23818652   5.044   6.159   4.731 -1.4090  1.9849 -0.1946
   28MOL   H23918653   5.056   5.912   4.717 -1.1986  0.0325 -0.4345
   28MOL   C24018654   4.553   6.553   4.149 -0.4304 -0.0291 -1.1713
   28MOL   C24118655   4.590   6.603   4.274  0.2301 -0.0619 -0.1523
   28MOL   C24218656   4.728   6.607   4.311 -0.5039 -0.2846 -0.3533
   28MOL   O24318657   4.760   6.665   4.432 -0.4056  0.0926  0.4857
   28MOL   C24418658   4.821   6.566   4.213  0.2214  0.2312  0.4798
   28MOL   C24518659   4.782   6.514   4.089 -0.3503 -0.0533  0.3552
   28MOL   C24618660   4.648   6.511   4.054  0.2809 -0.8890 -0.1552
   28MOL   C24718661   4.609   6.454   3.921 -0.4028  0.3812 -0.0385
   28MOL   O24818662   4.664   6.498   3.818  0.3434  0.8024  0.1291
   28MOL   C24918663   4.496   6.356   3.910  0.3760 -0.4314  0.1384
   28MOL   C25018664   4.442   6.341   3.783  0.0476 -0.5730 -0.1527
   28MOL   C25118665   4.329   6.255   3.764  0.1953  0.1437 -0.1184
   28MOL   C25218666   4.294   6.171   3.873 -0.2290 -0.0949 -0.1835
   28MOL   O25318667   4.191   6.086   3.865  0.1200  0.5924 -0.0328
   28MOL   C25418668   4.205   5.946   3.874 -0.7456 -0.0539 -0.7004
   28MOL   C25518669   4.159   5.879   3.987  0.2337 -0.2650 -0.3538
   28MOL   C25618670   4.184   5.743   4.002  0.3189 -0.9381  0.1303
   28MOL   C25718671   4.240   5.675   3.894  0.2055  0.0657 -0.3706
   28MOL   C25818672   4.276   5.737   3.778  0.1353  0.5179  0.0227
   28MOL   C25918673   4.271   5.878   3.771 -0.2965  0.2556  0.6875
   28MOL   C26018674   4.355   6.183   3.999 -0.3922  0.1362  0.5351
   28MOL   C26118675   4.453   6.281   4.018  0.1834  0.2668 -0.0696
   28MOL   H26218676   4.448   6.550   4.123 -0.6616 -0.9797 -0.2054
   28MOL   H26318677   4.517   6.620   4.351  1.4302 -0.0423  1.0089
   28MOL   H26418678   4.926   6.568   4.238  0.6552  0.2760 -1.2692
   28MOL   H26518679   4.854   6.483   4.015 -1.6748 -0.1279 -0.9242
   28MOL   H26618680   4.469   6.402   3.698  1.1058  1.5689  1.6724
   28MOL   H26718681   4.284   6.242   3.667 -1.5036  1.5179  0.4449
   28MOL   H26818682   4.105   5.936   4.061  0.8939 -1.6742  1.2724
   28MOL   H26918683   4.164   5.692   4.095 -0.5546 -0.3206  0.2946
   28MOL   H27018684   4.333   5.692   3.698  2.7755  1.0600  1.5516
   28MOL   H27118685   4.298   5.932   3.681 -2.1754  2.6533  1.5081
   28MOL   H27218686   4.330   6.112   4.077  0.4849 -0.5970  0.1640
   28MOL   H27318687   4.503   6.292   4.113  2.4434  0.4677 -1.2586
   28MOL   C27418688   4.579   5.434   4.024 -0.5718 -1.0331  0.2787
   28MOL   C27518689   4.452   5.492   4.014 -0.1875 -0.2650  0.0831
   28MOL   C27618690   4.377   5.487   3.895 -0.2610  0.1656 -0.3418
   28MOL   O27718691   4.256   5.535   3.896  0.4275 -0.0927 -0.2592
   28MOL   C27818692   4.435   5.419   3.786  0.8664 -0.2681 -0.6103
   28MOL   C27918693   4.559   5.355   3.793  0.7185  0.3816 -0.2607
   28MOL   C28018694   4.631   5.363   3.911 -0.1104 -0.0079 -0.7471
   28MOL   C28118695   4.752   5.284   3.925  0.3150  0.4229 -0.0349
   28MOL   O28218696   4.826   5.274   3.828 -0.5237 -0.1662 -0.6223
   28MOL   C28318697   4.786   5.221   4.058  0.1552  1.0132 -0.0531
   28MOL   C28418698   4.918   5.228   4.107 -0.2375 -0.6322 -0.6070
   28MOL   C28518699   4.959   5.166   4.225 -0.0828 -0.2672  0.2508
   28MOL   C28618700   4.862   5.094   4.302 -0.1799  0.5374 -0.2461
   28MOL   O28718701   4.897   5.025   4.418  0.0150  0.3793 -0.1571
   28MOL   C28818702   4.899   4.888   4.427 -0.1578  0.3751  0.2356
   28MOL   C28918703   4.857   4.825   4.548  0.3894  0.3416  0.0903
   28MOL   C29018704   4.880   4.690   4.574  0.3180  0.7458 -0.5908
   28MOL   C29118705   4.934   4.614   4.473  0.0582 -1.0591 -0.3539
   28MOL   C29218706   4.963   4.670   4.347 -0.0255  0.4997  0.1134
   28MOL   C29318707   4.947   4.805   4.319  1.0804  0.1290  0.0184
   28MOL   C29418708   4.728   5.085   4.250 -0.5236 -0.4551 -0.7672
   28MOL   C29518709   4.686   5.159   4.136  0.0316  0.4893  0.3445
   28MOL   H29618710   4.632   5.438   4.118 -2.2880 -0.1857  1.2418
   28MOL   H29718711   4.419   5.539   4.105 -1.0382  1.3728 -1.0632
   28MOL   H29818712   4.373   5.415   3.698  0.4364  1.2202 -0.3809
   28MOL   H29918713   4.597   5.301   3.707  0.2430 -1.7273  0.8050
   28MOL   H30018714   4.995   5.271   4.045 -1.9308  3.0323 -0.2959
   28MOL   H30118715   5.057   5.196   4.258 -0.2948  2.9381 -1.8177
   28MOL   H30218716   4.813   4.883   4.629 -0.1546  2.4347 -1.6440
   28MOL   H30318717   4.845   4.645   4.665  0.6669  3.2744  0.8340
   28MOL   H30418718   5.009   4.602   4.277  1.3100  0.9776  0.5054
   28MOL   H30518719   4.968   4.846   4.221 -1.3596  1.3051 -0.0552
   28MOL   H30618720   4.647   5.035   4.302  0.3772 -1.8614 -0.6925
   28MOL   H30718721   4.586   5.150   4.095 -1.3215 -2.5468  4.0294
   28MOL   C30818722   5.147   4.272   4.719 -0.5452 -1.1000 -0.7550
   28MOL   C30918723   5.054   4.329   4.632 -0.5531 -0.0014  0.0404
   28MOL   C31018724   5.076   4.447   4.566 -0.2812 -0.4072  0.0376
   28MOL   O31118725   4.969   4.486   4.489 -0.5391 -0.1151 -0.8159
   28MOL   C31218726   5.198   4.513   4.588  0.2752  0.5452 -0.2108
   28MOL   C31318727   5.299   4.456   4.670 -0.6543 -0.2786  0.2264
   28MOL   C31418728   5.268   4.340   4.741 -0.1658  0.4252  0.3100
   28MOL   C31518729   5.359   4.295   4.851 -0.3058  0.1141  0.5346
   28MOL   O31618730   5.309   4.265   4.961 -0.2311 -0.1833 -0.8114
   28MOL   C31718731   5.506   4.310   4.853  0.1500  0.3426  0.0430
   28MOL   C31818732   5.568   4.317   4.979 -0.2105 -0.0960 -0.2755
   28MOL   C31918733   5.708   4.320   4.985 -0.3911  1.0273  0.1483
   28MOL   C32018734   5.790   4.300   4.870 -0.6732  0.0959  0.2880
   28MOL   O32118735   5.926   4.311   4.871  0.4800  0.0122  0.0460
   28MOL   C32218736   5.984   4.387   4.965  0.2637  0.2863 -0.8142
   28MOL   C32318737   5.968   4.526   4.963  0.3259 -1.1225  0.5127
   28MOL   C32418738   6.034   4.614   5.049 -0.4476  0.3958 -0.0053
   28MOL   C32518739   6.126   4.562   5.139  0.1999 -0.4920  0.3341
   28MOL   C32618740   6.134   4.422   5.149  0.7345  0.6821 -0.0715
   28MOL   C32718741   6.061   4.335   5.064 -0.8347  0.6025  0.9403
   28MOL   C32818742   5.719   4.288   4.748  0.1293 -0.5069  0.7193
   28MOL   C32918743   5.575   4.292   4.732 -0.4368  0.4574 -0.7457
   28MOL   H33018744   5.132   4.175   4.764  0.7847 -1.0413 -0.1764
   28MOL   H33118745   4.959   4.280   4.612 -1.7433  0.9352  3.1550
   28MOL   H33218746   5.227   4.603   4.537  3.1874  0.4298  1.1137
   28MOL   H33318747   5.387   4.512   4.695 -0.5309 -0.2267 -0.3111
   28MOL   H33418748   5.509   4.329   5.069 -0.8978  2.3856 -1.0191
   28MOL   H33518749   5.753   4.333   5.082  0.4566  0.5450 -0.1763
   28MOL   H33618750   5.884   4.565   4.909  0.0904 -2.1350  0.1367
   28MOL   H33718751   6.028   4.722   5.036 -0.4861  0.2720 -1.0386
   28MOL   H33818752   6.209   4.381   5.215 -0.4359  1.4656  1.8040
   28MOL   H33918753   6.069   4.229   5.078 -0.6003  0.2242 -1.8531
   28MOL   H34018754   5.768   4.279   4.652 -2.5747 -0.8062 -0.6888
   28MOL   H34118755   5.526   4.296   4.636 -1.6756  1.4441 -0.0849
   28MOL   C34218756   6.150   4.998   5.247  0.2397  0.2255 -0.8009
   28MOL   C34318757   6.198   4.875   5.194 -0.4630  0.1713 -0.0007
   28MOL   C34418758   6.189   4.756   5.264  0.7958 -0.1808  0.6199
   28MOL   O34518759   6.219   4.639   5.203  0.1841  0.0288  0.5355
   28MOL   C34618760   6.133   4.757   5.395  0.6258  0.3213  0.0375
   28MOL   C34718761   6.091   4.874   5.450  0.9506 -0.1937  0.2609
   28MOL   C34818762   6.091   5.002   5.380 -0.6516  0.6484  0.4567
   28MOL   C34918763   6.054   5.129   5.446  0.3545 -0.4150 -0.2668
   28MOL   O35018764   6.024   5.225   5.381 -0.2012 -0.4723 -0.5286
   28MOL   C35118765   6.052   5.139   5.596  0.2092  0.4962  0.0931
   28MOL   C35218766   6.154   5.089   5.681 -0.0869  0.1521  0.5421
   28MOL   C35318767   6.153   5.100   5.823 -0.3273  0.2966  0.0725
   28MOL   C35418768   6.038   5.152   5.882 -0.0326 -0.0576  0.5987
   28MOL   O35518769   6.024   5.149   6.023  0.1456 -1.0071 -0.2782
   28MOL   C35618770   6.017   5.278   6.087  0.3363  0.0991  0.8854
   28MOL   C35718771   6.077   5.394   6.033 -0.1596  0.3343  0.2802
   28MOL   C35818772   6.080   5.512   6.109 -0.3766  0.7772 -0.0832
   28MOL   C35918773   6.030   5.513   6.237  0.6739  0.7297 -0.2631
   28MOL   C36018774   5.971   5.395   6.295 -0.3317 -0.1668 -0.4766
   28MOL   C36118775   5.979   5.282   6.220 -0.3194  0.1248  0.6102
   28MOL   C36218776   5.929   5.192   5.805 -0.5361 -0.0343  0.5639
   28MOL   C36318777   5.941   5.197   5.665 -0.7008 -0.1732  0.6728
   28MOL   H36418778   6.178   5.091   5.201 -0.7617  0.4541 -0.9727
   28MOL   H36518779   6.240   4.874   5.094  1.8013  1.2889  0.9107
   28MOL   H36618780   6.132   4.671   5.460  1.5754 -0.3883 -0.8692
   28MOL   H36718781   6.059   4.874   5.553  1.9086  2.1002  0.5965
   28MOL   H36818782   6.242   5.043   5.641 -0.2757  0.5279 -0.3002
   28MOL   H36918783   6.235   5.061   5.882  0.3153  2.3910  0.5907
   28MOL   H37018784   6.121   5.391   5.934  0.2013  3.9560  0.2679
   28MOL   H37118785   6.142   5.593   6.073 -0.1146  0.1602 -1.0292
   28MOL   H37218786   5.908   5.400   6.383 -1.4967  1.4822 -1.3820
   28MOL   H37318787   5.940   5.193   6.267  0.1660 -0.4084  0.0098
   28MOL   H37418788   5.833   5.232   5.834  0.4604  1.7024  1.5840
   28MOL   H37518789   5.869   5.247   5.601 -0.0252  1.6403  1.3015
   28MOL   C37618790   5.867   5.896   6.127 -0.0521  0.7576  0.5105
   28MOL   C37718791   5.882   5.781   6.208 -0.0002 -0.0794  0.5138
   28MOL   C37818792   6.006   5.747   6.255 -0.0028 -0.0867  0.8820
   28MOL   O37918793   6.024   5.627   6.318  0.6949 -0.5971 -0.4160
   28MOL   C38018794   6.112   5.833   6.257  0.2731  0.3836  0.0503
   28MOL   C38118795   6.099   5.958   6.193 -0.6109 -0.2898  0.3554
   28MOL   C38218796   5.978   5.982   6.119 -0.3515  0.0832  0.5347
   28MOL   C38318797   5.967   6.111   6.044 -0.1090 -0.3277  0.1459
   28MOL   O38418798   6.000   6.217   6.097 -0.1317  0.5162 -0.1907
   28MOL   C38518799   5.909   6.109   5.905  0.9575 -0.1931 -0.1450
   28MOL   C38618800   5.849   6.230   5.862 -0.0078  0.0164  0.0071
   28MOL   C38718801   5.781   6.240   5.735 -0.5127 -0.0959 -0.3255
   28MOL   C38818802   5.782   6.128   5.651 -0.0402 -0.0925  0.1146
   28MOL   O38918803   5.728   6.142   5.523  0.1882  0.3048  0.1544
   28MOL   C39018804   5.817   6.163   5.415  0.0020  0.3137 -0.2660
   28MOL   C39118805   5.852   6.293   5.384 -0.2064 -0.0382  0.3707
   28MOL   C39218806   5.944   6.320   5.276  0.5467  1.0667 -0.4215
   28MOL   C39318807   5.997   6.211   5.208  0.5280 -0.5364  0.6586
   28MOL   C39418808   5.957   6.079   5.234  0.2476 -0.1178 -0.3385
   28MOL   C39518809   5.863   6.057   5.336  0.4472  0.7656 -0.3888
   28MOL   C39618810   5.840   6.010   5.695  0.3040  0.5585 -0.2515
   28MOL   C39718811   5.892   5.997   5.824 -0.9247  0.7205  0.8650
   28MOL   H39818812   5.781   5.925   6.068  1.4554  1.2332 -1.5319
   28MOL   H39918813   5.801   5.710   6.212 -0.3686  0.3815  1.5324
   28MOL   H40018814   6.203   5.802   6.308  0.2199 -2.2752 -1.3819
   28MOL   H40118815   6.180   6.029   6.185 -0.2099 -0.9284 -1.7155
   28MOL   H40218816   5.854   6.306   5.938  2.3702 -2.2469  2.2003
   28MOL   H40318817   5.734   6.331   5.699  2.2900  1.3646 -0.4718
   28MOL   H40418818   5.817   6.382   5.435  0.5111  1.5338 -1.7978
   28MOL   H40518819   5.979   6.419   5.254 -2.6174  2.3558 -0.0311
   28MOL   H40618820   5.986   5.989   5.179  0.1180  0.2438 -1.0067
   28MOL   H40718821   5.827   5.956   5.352  0.9831  0.7151  0.5375
   28MOL   H40818822   5.843   5.925   5.629  1.9941 -0.3210  0.9147
   28MOL   H40918823   5.929   5.900   5.857 -0.5782  0.9864  1.2653
   28MOL   C41018824   5.987   6.137   4.776 -0.0723  0.0555  0.1588
   28MOL   C41118825   6.052   6.126   4.897  0.7081  0.8821  0.1831
   28MOL   C41218826   6.048   6.239   4.983 -0.5968 -0.1324 -0.1647
   28MOL   O41318827   6.089   6.237   5.111  0.0467 -0.7180 -0.2770
   28MOL   C41418828   5.987   6.357   4.938  0.7784  0.6194  0.7799
   28MOL   C41518829   5.920   6.367   4.815 -0.6244  0.4629 -0.4100
   28MOL   C41618830   5.928   6.254   4.729 -0.1788  0.3959 -0.9882
   28MOL   C41718831   5.858   6.259   4.599 -0.4496 -0.1639  0.6492
   28MOL   O41818832   5.744   6.305   4.585 -1.2501  0.2718 -0.1717
   28MOL   C41918833   5.923   6.197   4.489  0.3481 -0.2942 -0.8723
   28MOL   C42018834   6.053   6.247   4.444 -0.1360  0.0072 -0.3869
   28MOL   C42118835   6.116   6.195   4.330  0.0920  0.0595 -0.5652
   28MOL   C42218836   6.062   6.081   4.269  0.4264 -0.3118 -0.1281
   28MOL   O42318837   6.120   6.007   4.173  0.2997  0.2185  0.0352
   28MOL   C42418838   6.245   6.042   4.130 -0.1749  0.1835 -1.0382
   28MOL   C42518839   6.258   6.143   4.033 -0.0294 -0.2631 -0.1252
   28MOL   C42618840   6.384   6.208   4.011 -0.4967 -0.0427 -0.4517
   28MOL   C42718841   6.492   6.168   4.093 -0.0720 -0.0339  0.7288
   28MOL   C42818842   6.481   6.059   4.181 -0.1726  0.6504  0.0686
   28MOL   C42918843   6.358   6.001   4.198  0.4156 -0.4220 -0.6937
   28MOL   C43018844   5.934   6.035   4.309  0.4047  0.3012 -0.0943
   28MOL   C43118845   5.860   6.097   4.411  0.1302  0.0337 -0.2857
   28MOL   H43218846   5.980   6.043   4.724 -1.6050 -1.1363  2.4673
   28MOL   H43318847   6.089   6.029   4.927 -1.1928  0.3168  0.7661
   28MOL   H43418848   5.989   6.447   4.996 -0.0898  0.6233  0.8082
   28MOL   H43518849   5.871   6.457   4.782 -1.4194 -0.7385 -2.5752
   28MOL   H43618850   6.088   6.332   4.500  1.4513 -1.4212  0.8585
   28MOL   H43718851   6.196   6.254   4.289 -0.0167  0.0322 -0.8146
   28MOL   H43818852   6.166   6.177   3.990  0.1326 -2.4478 -2.3187
   28MOL   H43918853   6.388   6.289   3.940 -3.0837 -0.2076 -0.8303
   28MOL   H44018854   6.566   6.032   4.241 -1.4446  1.1374  2.1135
   28MOL   H44118855   6.354   5.923   4.273  0.9534 -0.4796 -0.7228
   28MOL   H44218856   5.890   5.954   4.254  0.0218 -0.6488  1.5741
   28MOL   H44318857   5.763   6.061   4.442 -0.0097  0.7620  0.1486
   28MOL   C44418858   6.590   6.485   4.355  0.1016 -0.1877  0.3959
   28MOL   C44518859   6.593   6.358   4.294  0.3866 -0.0198 -0.1633
   28MOL   C44618860   6.615   6.355   4.150 -0.0632  0.1810  0.3126
   28MOL   O44718861   6.609   6.236   4.086 -0.4087 -0.3852  0.6889
   28MOL   C44818862   6.647   6.477   4.080  0.3763  0.3545  0.1215
   28MOL   C44918863   6.655   6.600   4.149 -0.3319 -0.5034  0.8894
   28MOL   C45018864   6.625   6.605   4.293 -0.3935 -0.8822 -0.8857
   28MOL   C45118865   6.612   6.734   4.372  0.2571  0.3559 -0.3155
   28MOL   O45218866   6.530   6.744   4.464  0.0327  0.0250 -0.2755
   28MOL   C45318867   6.706   6.839   4.339 -0.3371 -0.0728 -0.4196
   28MOL   C45418868   6.663   6.970   4.336  0.7376 -0.2570 -0.4556
   28MOL   C45518869   6.745   7.077   4.304  0.1570  0.2905 -0.0315
   28MOL   C45618870   6.880   7.053   4.273  0.4246  0.2597 -0.0002
   28MOL   O45718871   6.961   7.154   4.251 -0.3276 -0.5674  0.4729
   28MOL   C45818872   6.975   7.210   4.130  0.0085  0.0425 -1.0840
   28MOL   C45918873   7.077   7.166   4.043  0.1123 -0.1850 -0.2935
   28MOL   C46018874   7.086   7.219   3.911  0.4809 -0.5708  0.0599
   28MOL   C46118875   6.979   7.304   3.863 -0.0539 -0.4637 -0.8163
   28MOL   C46218876   6.878   7.350   3.952  0.4410  0.4061  0.7449
   28MOL   C46318877   6.874   7.296   4.087 -0.6628 -0.3303 -0.5032
   28MOL   C46418878   6.927   6.925   4.265  0.0993 -0.2736  0.1341
   28MOL   C46518879   6.836   6.817   4.291 -0.5135 -0.4398 -0.2259
   28MOL   H46618880   6.565   6.486   4.461  0.3202  2.3493  0.4520
   28MOL   H46718881   6.569   6.274   4.357 -0.1445  1.3203  1.4314
   28MOL   H46818882   6.673   6.473   3.975  0.3688 -1.8926  0.1829
   28MOL   H46918883   6.679   6.694   4.102  1.6219 -1.2777  0.3208
   28MOL   H47018884   6.559   6.993   4.357  0.8152  0.8894 -1.2972
   28MOL   H47118885   6.710   7.178   4.292 -0.4090  0.0561 -0.4288
   28MOL   H47218886   7.161   7.107   4.077  2.2732  2.7711 -0.3949
   28MOL   H47318887   7.166   7.204   3.841 -0.5300 -1.8612 -0.8500
   28MOL   H47418888   6.798   7.411   3.911  2.3173  1.3206 -1.7027
   28MOL   H47518889   6.801   7.341   4.153  0.7317 -0.7862  1.3964
   28MOL   H47618890   7.027   6.904   4.232  0.0768  0.3559 -0.3356
   28MOL   H47718891   6.877   6.717   4.286 -3.4605 -1.8664  2.5362
   28MOL   C47818892   6.725   7.240   3.471 -0.0238  0.5246  0.3856
   28MOL   C47918893   6.810   7.312   3.553  0.8198 -0.2050  0.4441
   28MOL   C48018894   6.897   7.252   3.650 -0.5536 -0.1284  0.4511
   28MOL   O48118895   6.983   7.330   3.730  0.4561  0.3016  0.3511
   28MOL   C48218896   6.903   7.111   3.650 -0.8616 -0.3621  0.2488
   28MOL   C48318897   6.816   7.037   3.565 -1.1734 -0.1260  0.3440
   28MOL   C48418898   6.724   7.103   3.478  0.0382 -0.0220 -0.3441
   28MOL   C48518899   6.626   7.021   3.404 -0.0802 -0.8571  0.4965
   28MOL   O48618900   6.619   6.898   3.417  0.0714  0.2858  0.0741
   28MOL   C48718901   6.543   7.082   3.294 -0.1302  0.9443 -0.2738
   28MOL   C48818902   6.423   7.150   3.328 -0.1083  0.3742  0.4740
   28MOL   C48918903   6.360   7.220   3.225 -0.3307 -0.4874  0.3784
   28MOL   C49018904   6.407   7.209   3.093  0.1362 -0.6019 -0.4202
   28MOL   O49118905   6.341   7.277   2.986  0.1348  0.3521  0.0529
   28MOL   C49218906   6.254   7.385   3.001 -0.1586  0.2660 -0.3768
   28MOL   C49318907   6.119   7.361   2.984  0.9120  1.1432  0.4568
   28MOL   C49418908   6.027   7.469   2.995 -0.5031  0.6609  0.3265
   28MOL   C49518909   6.080   7.593   3.034  0.1515  0.0424  0.0453
   28MOL   C49618910   6.221   7.617   3.049  0.2085 -0.3476  0.0224
   28MOL   C49718911   6.307   7.508   3.034  0.1684 -0.0753 -0.4999
   28MOL   C49818912   6.521   7.135   3.059 -0.5352 -0.6625 -0.2373
   28MOL   C49918913   6.587   7.066   3.162  0.0345  0.1353 -0.9912
   28MOL   H50018914   6.654   7.296   3.411 -0.5935 -0.5500  0.0468
   28MOL   H50118915   6.810   7.420   3.544 -0.3832 -0.2949 -0.7770
   28MOL   H50218916   6.971   7.064   3.719 -0.4356  0.8214  0.6497
   28MOL   H50318917   6.816   6.929   3.569 -0.7280 -0.2261 -1.6253
   28MOL   H50418918   6.383   7.140   3.427  2.3089 -0.0843  1.4325
   28MOL   H50518919   6.264   7.265   3.246 -0.4465 -0.2322 -0.6398
   28MOL   H50618920   6.083   7.261   2.964  0.9932  0.9465  1.2965
   28MOL   H50718921   5.923   7.463   2.969 -0.1572  0.5767 -1.0658
   28MOL   H50818922   6.274   7.708   3.070 -0.7371 -0.3444  2.6452
   28MOL   H50918923   6.411   7.527   3.056 -0.2433  1.0306  0.5866
   28MOL   H51018924   6.550   7.135   2.955  1.0189  0.2978  0.1757
   28MOL   H51118925   6.674   7.010   3.134 -0.4127 -0.5695 -0.9731
   28MOL   C51218926   6.038   7.949   2.766 -0.1771  0.2793 -0.5082
   28MOL   C51318927   6.035   7.821   2.831 -0.6865 -1.1821  0.1877
   28MOL   C51418928   6.036   7.813   2.975 -0.4620 -0.9600  0.3561
   28MOL   O51518929   5.999   7.697   3.031 -0.0901 -0.2673  0.1247
   28MOL   C51618930   6.046   7.927   3.051  0.0572 -0.1871 -0.4915
   28MOL   C51718931   6.053   8.054   2.986 -0.2244 -0.3098  0.2788
   28MOL   C51818932   6.044   8.062   2.847 -0.0246 -1.3387 -0.5419
   28MOL   C51918933   6.060   8.194   2.765  0.2681 -0.3565 -0.6688
   28MOL   O52018934   6.028   8.200   2.647 -0.3229 -0.2725  0.1120
   28MOL   C52118935   6.112   8.309   2.848  0.4186  0.5127  0.4239
   28MOL   C52218936   6.234   8.311   2.922  0.2982 -0.1135 -0.2265
   28MOL   C52318937   6.266   0.108   3.008 -0.1812  0.1048 -0.3684
   28MOL   C52418938   6.188   0.223   3.016 -0.4585 -0.5770 -0.3244
   28MOL   O52518939   6.216   0.323   3.109  0.0387  0.4814 -0.0029
   28MOL   C52618940   6.348   0.367   3.122  0.4557 -0.3044  0.0457
   28MOL   C52718941   6.431   0.369   3.006 -0.1265 -0.3603  0.1414
   28MOL   C52818942   6.569   0.399   3.020 -0.3997  0.6213 -0.1916
   28MOL   C52918943   6.626   0.444   3.145  0.2668 -0.2822  0.6891
   28MOL   C53018944   6.538   0.441   3.256 -0.5681  0.3838 -0.2156
   28MOL   C53118945   6.403   0.397   3.247  0.2016  0.2000  1.4501
   28MOL   C53218946   6.067   0.227   2.940  0.4100 -0.2596 -0.0746
   28MOL   C53318947   6.035   0.119   2.855  0.7769  0.2654  0.7160
   28MOL   H53418948   6.036   7.948   2.658  2.9790 -1.1174 -0.6094
   28MOL   H53518949   6.026   7.730   2.773 -1.6987 -0.0767 -1.4384
   28MOL   H53618950   6.044   7.923   3.159 -1.3450 -0.2215 -0.5025
   28MOL   H53718951   6.058   8.138   3.054 -0.4507  0.9112 -1.1805
   28MOL   H53818952   6.291   8.219   2.926  2.1539  0.8295 -2.9787
   28MOL   H53918953   6.355   0.097   3.069 -1.2202  0.9683  1.3199
   28MOL   H54018954   6.384   0.345   2.911  0.9991  0.9114 -0.7511
   28MOL   H54118955   6.623   0.393   2.927 -0.9441 -1.2989 -0.3977
   28MOL   H54218956   6.569   0.482   3.351  0.2948 -1.0817  0.1552
   28MOL   H54318957   6.342   0.406   3.336 -2.6452  0.7108 -0.4883
   28MOL   H54418958   6.005   0.314   2.959  0.6076 -0.0430 -0.4282
   28MOL   H54518959   5.940   0.118   2.804  1.0012  2.2748  0.2189
   28MOL   C54618960   7.019   0.556   2.925  0.8098 -0.1996 -0.7629
   28MOL   C54718961   6.895   0.575   2.986 -0.4116 -0.2002  0.2034
   28MOL   C54818962   6.849   0.472   3.065  0.1914 -0.2848  0.1566
   28MOL   O54918963   6.752   0.501   3.159 -0.4330  0.5614  0.3659
   28MOL   C55018964   6.910   0.342   3.060 -1.0595  0.4918  0.2755
   28MOL   C55118965   7.023   0.320   2.979 -0.2604 -0.4680  0.1745
   28MOL   C55218966   7.080   0.429   2.917  0.2302 -0.9047  0.2955
   28MOL   C55318967   7.202   0.410   2.832  1.0505  0.3077  0.3854
   28MOL   O55418968   7.316   0.444   2.873  0.6131 -0.3775 -0.3283
   28MOL   C55518969   7.184   0.334   2.706  0.7375 -0.5387 -0.1992
   28MOL   C55618970   7.296   0.262   2.656  0.5632  0.2828 -0.4108
   28MOL   C55718971   7.283   0.189   2.539 -0.0127  0.0975  0.1400
   28MOL   C55818972   7.160   0.194   2.466 -0.5468  0.7506  0.4732
   28MOL   O55918973   7.150   0.129   2.342 -0.2733 -0.2803  0.4734
   28MOL   C56018974   7.189   8.311   2.335  0.4346 -0.0937  0.2861
   28MOL   C56118975   7.116   8.205   2.394 -0.0346  0.0444 -0.3453
   28MOL   C56218976   7.164   8.068   2.397  0.5484  0.7306 -0.1050
   28MOL   C56318977   7.294   8.046   2.341  0.3993 -0.5365 -0.2641
   28MOL   C56418978   7.359   8.149   2.269 -0.1283  0.0654 -0.5072
   28MOL   C56518979   7.310   8.282   2.264 -0.4939  0.0242 -0.0699
   28MOL   C56618980   7.057   0.275   2.506 -0.2202 -0.0583 -0.8378
   28MOL   C56718981   7.059   0.339   2.631  0.2057  0.1543  0.7057
   28MOL   H56818982   7.078   0.640   2.891  0.8352 -0.3206 -1.0177
   28MOL   H56918983   6.860   0.677   2.986 -4.5654 -1.5432 -1.0012
   28MOL   H57018984   6.860   0.261   3.110  0.1227  0.1708  0.9495
   28MOL   H57118985   7.070   0.225   2.996  1.2897  0.6351  2.3393
   28MOL   H57218986   7.389   0.266   2.711 -0.1506 -0.7286  0.9089
   28MOL   H57318987   7.372   0.135   2.508  1.7381  1.5957  2.4345
   28MOL   H57418988   7.026   8.240   2.444  0.6239  1.1527  0.0829
   28MOL   H57518989   7.111   7.994   2.454  0.2331  1.3441  0.4130
   28MOL   H57618990   7.451   8.120   2.220  0.1725 -1.7374  1.0268
   28MOL   H57718991   7.373   0.042   2.215 -1.1408  1.6632  1.4682
   28MOL   H57818992   6.963   0.269   2.453  0.1239 -3.0614 -1.1681
   28MOL   H57918993   6.972   0.397   2.660 -0.5417 -0.2367 -0.6791
   28MOL   C58018994   7.141   7.636   2.220 -0.0583  0.0187 -0.1781
   28MOL   C58118995   7.191   7.747   2.296 -0.2884  0.0664 -0.3949
   28MOL   C58218996   7.293   7.832   2.252  0.7815  0.0468 -0.0668
   28MOL   O58318997   7.353   7.926   2.337 -0.7323 -0.0511 -0.0677
   28MOL   C58418998   7.347   7.799   2.122  0.0138 -0.4650 -0.2315
   28MOL   C58518999   7.294   7.694   2.042  0.2252 -0.1039 -0.1331
   28MOL   C58619000   7.189   7.611   2.087 -0.5952  0.2059 -0.0817
   28MOL   C58719001   7.149   7.488   2.011 -0.3330 -0.1601  0.2841
   28MOL   O58819002   7.239   7.412   1.969  0.0642 -0.3511 -0.1788
   28MOL   C58919003   6.999   7.453   2.005 -0.0359 -0.6321  0.5516
   28MOL   C59019004   6.964   7.318   1.989 -0.3292  0.1021 -0.2354
   28MOL   C59119005   6.825   7.282   1.974  0.2501  0.1128 -0.5440
   28MOL   C59219006   6.730   7.384   1.976  0.1620  0.1081 -0.7885
   28MOL   O59319007   6.599   7.351   1.951  0.7131 -0.2484  0.3135
   28MOL   C59419008   6.524   7.255   2.016  0.8368  0.0929  0.5551
   28MOL   C59519009   6.500   7.123   1.962 -0.8059  0.3472 -0.4898
   28MOL   C59619010   6.414   7.028   2.020 -0.2461  0.1317 -0.3963
   28MOL   C59719011   6.355   7.058   2.144 -0.4991  0.3603 -0.9814
   28MOL   C59819012   6.380   7.185   2.207  0.7505  0.9636  0.1879
   28MOL   C59919013   6.465   7.277   2.141 -0.2481 -0.4635  0.2615
   28MOL   C60019014   6.768   7.519   1.991  0.5030 -0.2285  0.2512
   28MOL   C60119015   6.902   7.553   2.003  0.0235 -0.0467  0.0342
   28MOL   H60219016   7.067   7.573   2.268 -0.9793  0.2011 -1.3281
   28MOL   H60319017   7.142   7.760   2.391 -0.8298 -0.7938 -0.5508
   28MOL   H60419018   7.430   7.854   2.080 -1.7034  1.7744 -0.8391
   28MOL   H60519019   7.343   7.653   1.955  0.7135 -3.1978  1.5366
   28MOL   H60619020   7.041   7.242   1.986 -0.4520  0.0055 -1.5926
   28MOL   H60719021   6.785   7.185   1.947  1.8127 -1.1220  1.3702
   28MOL   H60819022   6.558   7.093   1.876  2.9212  0.9071  1.7400
   28MOL   H60919023   6.417   6.931   1.972  2.6592  0.2133 -0.4169
   28MOL   H61019024   6.331   7.203   2.302  0.9439  0.8736  0.3035
   28MOL   H61119025   6.487   7.364   2.201 -0.4422 -0.2897  0.0801
   28MOL   H61219026   6.695   7.598   1.977  0.7317 -0.0510  0.0443
   28MOL   H61319027   6.935   7.656   2.004  0.7630 -0.2864  0.7382
   28MOL   C61419028   5.945   6.995   2.351  1.1191 -0.0931 -0.3543
   28MOL   C61519029   6.084   7.003   2.348  0.8215 -0.7312  0.1807
   28MOL   C61619030   6.150   6.979   2.226 -0.2724  0.1237  0.9499
   28MOL   O61719031   6.289   6.960   2.218  0.3725 -0.6058 -0.0868
   28MOL   C61819032   6.086   6.949   2.106  0.6389  0.1435 -0.8285
   28MOL   C61919033   5.945   6.923   2.113 -0.0289  0.1458 -0.0202
   28MOL   C62019034   5.878   6.948   2.236  0.0934  0.1487 -0.5811
   28MOL   C62119035   5.736   6.921   2.250  0.1402 -0.1646  0.9049
   28MOL   O62219036   5.688   6.805   2.227  0.1815  0.1006  0.4477
   28MOL   C62319037   5.648   7.035   2.298 -0.5099  0.6098 -0.5289
   28MOL   C62419038   5.671   7.168   2.272 -0.2580  0.6811  0.6538
   28MOL   C62519039   5.584   7.268   2.321 -0.0343  0.6897  0.1706
   28MOL   C62619040   5.462   7.235   2.383 -0.6121 -0.2920  0.4499
   28MOL   O62719041   5.379   7.343   2.421  0.3667  0.0303 -0.3483
   28MOL   C62819042   5.277   7.386   2.337 -0.1341 -0.4640 -0.1245
   28MOL   C62919043   5.210   7.495   2.392 -0.3249  0.8937  0.6198
   28MOL   C63019044   5.116   7.564   2.318  0.1214 -1.1009 -0.0325
   28MOL   C63119045   5.076   7.520   2.188 -0.2528 -0.2343 -0.8589
   28MOL   C63219046   5.138   7.395   2.138  0.3834  0.4958 -0.6644
   28MOL   C63319047   5.250   7.339   2.206 -0.3190  0.6140  0.6544
   28MOL   C63419048   5.435   7.099   2.407  0.3474 -0.2008 -0.6709
   28MOL   C63519049   5.524   7.007   2.353 -0.5277 -0.6555 -0.0119
   28MOL   H63619050   5.892   7.016   2.442  0.6439 -0.2553 -0.5919
   28MOL   H63719051   6.140   7.038   2.433 -1.2489  1.2475  0.7651
   28MOL   H63819052   6.143   6.930   2.016 -0.1536 -0.9532 -1.1118
   28MOL   H63919053   5.889   6.907   2.022  0.7091  0.0267 -0.4622
   28MOL   H64019054   5.761   7.189   2.215 -0.2428  1.9246  1.0999
   28MOL   H64119055   5.608   7.370   2.296  1.6972 -0.4755 -3.2026
   28MOL   H64219056   5.239   7.526   2.492  0.5311  0.8262  0.4024
   28MOL   H64319057   5.081   7.655   2.364 -1.0323 -0.8353 -1.3839
   28MOL   H64419058   5.110   7.344   2.047 -1.3975 -0.1396  0.2337
   28MOL   H64519059   5.306   7.254   2.171 -1.5756 -0.1039  0.3442
   28MOL   H64619060   5.344   7.075   2.461  0.9183 -1.7724 -0.3980
   28MOL   H64719061   5.497   6.903   2.371 -0.0394 -0.8074 -0.1552
   28MOL   C64819062   4.660   7.396   2.059  0.2128 -0.1382  0.9869
   28MOL   C64919063   4.781   7.461   2.037 -0.2669 -0.8376 -0.1508
   28MOL   C65019064   4.854   7.522   2.141 -0.4380 -0.1964 -0.7219
   28MOL   O65119065   4.972   7.586   2.124 -0.4132 -0.4372  0.4763
   28MOL   C65219066   4.803   7.502   2.273  1.0299 -0.1470  0.7629
   28MOL   C65319067   4.680   7.433   2.298 -0.0313 -0.6868  0.4632
   28MOL   C65419068   4.611   7.384   2.187 -0.0541 -0.6975  0.4962
   28MOL   C65519069   4.474   7.316   2.212 -0.0945 -0.1661 -0.6547
   28MOL   O65619070   4.402   7.356   2.302  0.2703 -0.7018 -0.4181
   28MOL   C65719071   4.421   7.220   2.113  0.5845  0.2105 -0.4367
   28MOL   C65819072   4.490   7.099   2.082 -0.0932 -0.1474 -0.4515
   28MOL   C65919073   4.441   7.009   1.988 -0.1865 -0.2560 -0.1723
   28MOL   C66019074   4.317   7.035   1.930  0.2310  0.4710 -0.0906
   28MOL   O66119075   4.261   6.948   1.835  0.3541  0.1018 -0.2102
   28MOL   C66219076   4.140   6.897   1.867 -0.4134 -0.1944  0.1635
   28MOL   C66319077   4.031   6.952   1.803  0.7072  0.2871 -1.1378
   28MOL   C66419078   3.901   6.903   1.822  0.4437 -0.0129  0.1059
   28MOL   C66519079   3.884   6.790   1.900 -0.2237  0.2487  0.2890
   28MOL   C66619080   3.994   6.736   1.966  0.3641 -0.1870 -0.4510
   28MOL   C66719081   4.122   6.795   1.957 -0.2389 -0.1290  0.2300
   28MOL   C66819082   4.242   7.154   1.960 -0.1480  0.2278  0.4223
   28MOL   C66919083   4.297   7.248   2.055  0.1698  0.8216  0.3506
   28MOL   H67019084   4.601   7.357   1.977  1.1120  0.7119 -0.0772
   28MOL   H67119085   4.822   7.470   1.938 -2.0456  0.9412 -0.7414
   28MOL   H67219086   4.846   7.547   2.361  2.2349 -3.7573  2.1442
   28MOL   H67319087   4.629   7.424   2.393 -1.1731 -2.7592 -0.3349
   28MOL   H67419088   4.592   7.086   2.115 -0.6235  1.1446  1.7813
   28MOL   H67519089   4.497   6.918   1.971  2.7899  1.4358  0.2701
   28MOL   H67619090   4.049   7.038   1.740 -0.3365  0.4694 -1.1957
   28MOL   H67719091   3.817   6.945   1.771  0.1953 -1.0888 -0.3827
   28MOL   H67819092   3.976   6.661   2.042  0.5105  2.0630  1.8908
   28MOL   H67919093   4.207   6.755   2.011  0.1548  0.6023  0.1660
   28MOL   H68019094   4.143   7.163   1.919 -0.5594 -0.0821  1.3398
   28MOL   H68119095   4.229   7.331   2.067 -0.5550  0.6022 -2.0200
   28MOL   H68219096   3.784   6.756   1.922  0.6310 -1.1342  2.1385
   29MOL     C119097   6.409   5.447   2.138 -1.0993 -0.1917 -0.2826
   29MOL     C219098   6.419   5.582   2.095 -0.1167 -0.2776  1.2181
   29MOL     C319099   6.379   5.619   1.966 -0.3776  0.3089 -0.1457
   29MOL     O419100   6.358   5.753   1.933  0.2512  0.1677  0.6645
   29MOL     C519101   6.335   5.520   1.877 -0.2613  0.7512 -0.4791
   29MOL     C619102   6.319   5.387   1.925  0.3422 -0.0823  0.0734
   29MOL     C719103   6.359   5.352   2.057  0.5768 -0.4147 -0.2911
   29MOL     C819104   6.362   5.202   2.097 -0.0342 -0.1137 -0.3507
   29MOL     O919105   6.469   5.159   2.122  0.1124  0.1494 -0.3634
   29MOL    C1019106   6.238   5.119   2.089  0.9703  0.0755  0.4607
   29MOL    C1119107   6.251   4.976   2.102  0.0596  0.7447  0.3787
   29MOL    C1219108   6.134   4.899   2.100  0.3855 -0.3939  0.3875
   29MOL    C1319109   6.004   4.957   2.089  0.9171  0.1341  0.5045
   29MOL    O1419110   5.892   4.878   2.087 -0.0656  0.9954 -0.4203
   29MOL    C1519111   5.812   4.891   2.192 -0.0370  0.7407 -0.4909
   29MOL    C1619112   5.676   4.878   2.166  0.1604 -0.3498  0.4199
   29MOL    C1719113   5.576   4.882   2.262 -0.3105  0.6712 -0.1995
   29MOL    C1819114   5.628   4.888   2.396  0.4657 -0.4049  0.0063
   29MOL    C1919115   5.771   4.883   2.429 -0.4518  0.0412  0.2293
   29MOL    C2019116   5.862   4.891   2.325 -0.4077 -0.2245  0.5012
   29MOL    C2119117   5.994   5.095   2.063  0.3739 -0.0655 -0.2315
   29MOL    C2219118   6.107   5.177   2.059 -0.3311  0.2840  0.4365
   29MOL    H2319119   6.460   5.417   2.228 -0.8847  1.6084  0.2259
   29MOL    H2419120   6.468   5.654   2.159  1.1619  0.9861 -1.1382
   29MOL    H2519121   6.296   5.545   1.779 -2.0877  4.1818  1.0174
   29MOL    H2619122   6.282   5.317   1.852 -0.7462 -0.8543  1.3370
   29MOL    H2719123   6.351   4.941   2.123  2.2432  6.5239  0.5563
   29MOL    H2819124   6.152   4.793   2.112  0.3767 -0.2202  2.0106
   29MOL    H2919125   5.630   4.877   2.069  3.4772  1.7622 -1.2803
   29MOL    H3019126   5.471   4.881   2.236 -0.4069 -1.8770  0.0966
   29MOL    H3119127   5.805   4.874   2.531 -1.0671 -2.3954  0.2518
   29MOL    H3219128   5.968   4.903   2.339 -0.1738  0.0173 -1.3342
   29MOL    H3319129   5.903   5.149   2.042  0.1686 -0.2681  0.1365
   29MOL    H3419130   6.085   5.282   2.056 -0.0061  0.3256 -0.3697
   29MOL    H3519131   6.392   5.814   1.997 -0.5355  2.2844 -0.8876
   29MOL    C3619132   5.510   4.551   2.657  0.1444 -0.2026  0.5572
   29MOL    C3719133   5.570   4.663   2.597  0.0244 -0.4584 -0.5567
   29MOL    C3819134   5.492   4.780   2.563 -0.4928  0.6080  0.8411
   29MOL    O3919135   5.539   4.891   2.493 -0.2031  0.8399  0.2430
   29MOL    C4019136   5.355   4.788   2.599 -0.0659 -0.4247  0.0173
   29MOL    C4119137   5.296   4.680   2.669  0.1419  0.5909 -0.5493
   29MOL    C4219138   5.374   4.560   2.690  0.0877 -0.4449 -0.3233
   29MOL    C4319139   5.304   4.445   2.759  0.5818  0.3738 -0.1084
   29MOL    O4419140   5.217   4.472   2.842  0.2730  0.1134 -0.5404
   29MOL    C4519141   5.343   4.307   2.727 -0.2515  0.1780  0.5908
   29MOL    C4619142   5.398   4.267   2.602  0.8225  0.5425  0.2933
   29MOL    C4719143   5.453   4.140   2.589 -0.1931  0.1948  0.0392
   29MOL    C4819144   5.441   4.042   2.692 -0.1144  0.1657  0.8411
   29MOL    O4919145   5.509   3.925   2.678  0.6261  0.3558 -0.2365
   29MOL    C5019146   5.436   3.809   2.677 -0.7003  0.4440  0.4404
   29MOL    C5119147   5.464   3.709   2.777 -0.5337 -0.3027  0.3181
   29MOL    C5219148   5.394   3.586   2.770 -0.0990  0.2493 -0.2686
   29MOL    C5319149   5.294   3.565   2.672 -0.3507  0.6014 -0.4500
   29MOL    C5419150   5.275   3.657   2.563  0.3934 -0.9064 -0.5374
   29MOL    C5519151   5.350   3.777   2.567  0.3154 -0.0760 -0.5565
   29MOL    C5619152   5.363   4.075   2.806  0.8652  0.9054 -0.3064
   29MOL    C5719153   5.319   4.205   2.826 -0.0321 -0.3293 -0.7884
   29MOL    H5819154   5.580   4.471   2.677  0.8758  0.4682  0.6775
   29MOL    H5919155   5.677   4.657   2.578 -0.2745  0.4637 -2.7095
   29MOL    H6019156   5.309   4.886   2.596  0.6681 -0.0166  1.6740
   29MOL    H6119157   5.193   4.694   2.699  0.3720  2.3476 -0.5307
   29MOL    H6219158   5.394   4.332   2.516 -1.7348  1.5986  1.1460
   29MOL    H6319159   5.508   4.117   2.499  2.3159 -2.0425  2.0558
   29MOL    H6419160   5.547   3.714   2.846 -0.9088 -2.8456  1.0227
   29MOL    H6519161   5.420   3.499   2.829 -2.1856  0.2050  0.6121
   29MOL    H6619162   5.200   3.638   2.487 -1.0207  3.1259 -0.2314
   29MOL    H6719163   5.343   3.849   2.487  0.8965  2.8358  1.8970
   29MOL    H6819164   5.343   4.010   2.890  0.3052 -0.2170 -1.2912
   29MOL    H6919165   5.275   4.221   2.923 -0.6362 -0.0560 -1.1085
   29MOL    C7019166   4.960   3.330   2.883 -1.2206  0.5690  0.1336
   29MOL    C7119167   5.088   3.361   2.832  0.2633 -0.3747  0.0872
   29MOL    C7219168   5.100   3.448   2.727  0.5048  0.1966 -0.0321
   29MOL    O7319169   5.226   3.449   2.667  0.7129  0.0343  0.0498
   29MOL    C7419170   4.985   3.523   2.676  0.6871  0.4191  0.2281
   29MOL    C7519171   4.861   3.489   2.735 -0.1887 -0.0315  0.0357
   29MOL    C7619172   4.847   3.397   2.839  0.2093 -0.0742  0.2062
   29MOL    C7719173   4.714   3.367   2.890  0.5121 -0.3811 -0.0017
   29MOL    O7819174   4.678   3.249   2.901  0.1889 -0.4092 -0.0012
   29MOL    C7919175   4.615   3.469   2.918  0.5472 -0.3649 -0.2212
   29MOL    C8019176   4.493   3.457   2.850  0.2843  0.1474 -0.3965
   29MOL    C8119177   4.393   3.554   2.859  0.4290  0.4797  0.3088
   29MOL    C8219178   4.413   3.663   2.943  0.2022  0.8440  0.0213
   29MOL    O8319179   4.322   3.764   2.960  0.1150  0.4334 -0.8630
   29MOL    C8419180   4.357   3.875   2.890  0.1162  0.0406 -0.1646
   29MOL    C8519181   4.364   3.875   2.750  0.1936 -0.0019  0.2420
   29MOL    C8619182   4.397   3.995   2.683 -0.7921  0.7240 -0.0007
   29MOL    C8719183   4.431   4.114   2.749 -0.0565  0.3178  0.0196
   29MOL    C8819184   4.431   4.107   2.887 -0.1587 -0.2795 -0.4244
   29MOL    C8919185   4.384   3.998   2.960 -0.5141  0.7134 -0.7074
   29MOL    C9019186   4.531   3.670   3.021  0.2762 -0.6832 -1.0296
   29MOL    C9119187   4.636   3.578   3.005  0.7963 -0.6919 -0.0919
   29MOL    H9219188   4.952   3.261   2.966  1.0282  1.4913  1.1348
   29MOL    H9319189   5.170   3.304   2.875 -0.2863  0.4145  2.2802
   29MOL    H9419190   4.994   3.580   2.585 -3.3995 -1.6875 -1.6024
   29MOL    H9519191   4.770   3.532   2.696 -1.6201  0.9935  4.2163
   29MOL    H9619192   4.480   3.375   2.781  0.9089 -0.1248 -0.1941
   29MOL    H9719193   4.306   3.554   2.795 -0.1546  1.3920  1.0898
   29MOL    H9819194   4.328   3.793   2.691 -0.6103  0.0888  0.6027
   29MOL    H9919195   4.411   3.995   2.575  2.2513  0.3087  0.3506
   29MOL   H10019196   4.446   4.205   2.931 -1.7431 -0.8754  1.5152
   29MOL   H10119197   4.376   3.994   3.068  0.7689 -1.0336 -0.6477
   29MOL   H10219198   4.538   3.751   3.093  0.0873  0.9166 -2.7640
   29MOL   H10319199   4.724   3.582   3.068  1.7831  3.4200 -1.6036
   29MOL   C10419200   4.341   4.436   2.397 -0.1017  0.0909 -0.0836
   29MOL   C10519201   4.423   4.343   2.472 -0.9261 -0.3032 -0.5105
   29MOL   C10619202   4.383   4.293   2.600 -0.9170 -0.1213  0.2984
   29MOL   O10719203   4.475   4.223   2.674  0.2099  0.2731  0.2842
   29MOL   C10819204   4.260   4.334   2.653  0.4856  0.6124  0.1906
   29MOL   C10919205   4.173   4.410   2.578 -0.0158 -0.7386  0.2186
   29MOL   C11019206   4.211   4.459   2.449 -0.3692 -0.9080 -0.2809
   29MOL   C11119207   4.116   4.552   2.374 -0.0730 -0.1621  0.1764
   29MOL   O11219208   4.002   4.511   2.353 -0.1225 -0.5210  0.4763
   29MOL   C11319209   4.171   4.675   2.324  0.3618  0.3754  0.4141
   29MOL   C11419210   4.265   4.753   2.404  0.2022 -0.2339 -0.8258
   29MOL   C11519211   4.331   4.856   2.343 -0.5678  0.4992  0.8415
   29MOL   C11619212   4.312   4.882   2.207 -0.2098 -0.1617  0.1519
   29MOL   O11719213   4.370   4.983   2.144 -0.2621 -0.1079 -0.2353
   29MOL   C11819214   4.470   4.956   2.054  0.3518 -0.3683 -0.3336
   29MOL   C11919215   4.465   5.021   1.932 -1.1940 -0.6977  0.3559
   29MOL   C12019216   4.562   4.993   1.836 -0.2147 -0.3651 -0.2499
   29MOL   C12119217   4.672   4.902   1.865  0.2230  0.3462 -0.0785
   29MOL   C12219218   4.674   4.837   1.991 -0.4293 -0.3125  0.1650
   29MOL   C12319219   4.580   4.868   2.087  0.4448  0.1093 -0.0838
   29MOL   C12419220   4.220   4.809   2.131  0.8539  0.0771  0.7021
   29MOL   C12519221   4.144   4.710   2.193 -0.0965 -0.4665  0.2403
   29MOL   H12619222   4.373   4.470   2.300  1.1060 -3.0689 -0.8249
   29MOL   H12719223   4.518   4.310   2.432 -0.1261  0.4321  0.7652
   29MOL   H12819224   4.233   4.311   2.755 -0.9054 -0.0209 -0.3143
   29MOL   H12919225   4.075   4.435   2.617 -0.7416  0.8414 -2.5228
   29MOL   H13019226   4.283   4.721   2.505 -4.5679 -0.0034  0.2318
   29MOL   H13119227   4.414   4.909   2.388 -0.2072  0.9287 -0.3059
   29MOL   H13219228   4.382   5.089   1.916 -1.8912 -1.8268 -0.8920
   29MOL   H13319229   4.570   5.051   1.745 -2.0923  1.2105  0.5691
   29MOL   H13419230   4.760   4.780   2.024  1.3732  1.1116 -1.9085
   29MOL   H13519231   4.575   4.829   2.188  0.5467  1.0698  0.2976
   29MOL   H13619232   4.197   4.834   2.028 -1.6770  1.0481  1.4798
   29MOL   H13719233   4.067   4.662   2.134  0.8884  2.0643 -3.2782
   29MOL   C13819234   4.719   4.706   1.484  0.0948 -0.3172 -0.7594
   29MOL   C13919235   4.720   4.746   1.617 -0.3213 -0.5611 -0.1304
   29MOL   C14019236   4.778   4.868   1.658  0.8055  0.3249  0.0935
   29MOL   O14119237   4.785   4.903   1.785 -0.4337 -0.1031  0.4439
   29MOL   C14219238   4.849   4.936   1.558  0.8120  1.0452 -0.1213
   29MOL   C14319239   4.858   4.889   1.425  0.4860 -0.8612  0.5745
   29MOL   C14419240   4.794   4.769   1.389  0.2322 -0.2828  0.2702
   29MOL   C14519241   4.802   4.722   1.250  0.6735 -0.7223 -0.6345
   29MOL   O14619242   4.767   4.601   1.224  0.0703  0.3378 -0.0851
   29MOL   C14719243   4.845   4.811   1.146  0.7400 -0.2255  0.1584
   29MOL   C14819244   4.788   4.936   1.127  0.6508 -0.2594  0.6915
   29MOL   C14919245   4.820   5.018   1.018 -1.1407  0.4592  0.1817
   29MOL   C15019246   4.908   4.970   0.915 -0.1207 -0.1743 -0.0817
   29MOL   O15119247   4.966   5.052   0.821  0.2412 -0.1785  0.0772
   29MOL   C15219248   4.891   5.094   0.715 -0.4388 -0.3546 -0.1354
   29MOL   C15319249   4.749   5.108   0.724 -0.6565  0.1066  0.2713
   29MOL   C15419250   4.679   5.151   0.611 -0.3755  0.0063  0.1561
   29MOL   C15519251   4.743   5.193   0.490  0.1108 -0.0134  0.3820
   29MOL   C15619252   4.881   5.178   0.479 -0.2742 -0.3965  0.5713
   29MOL   C15719253   4.959   5.125   0.592  0.1955 -0.4518 -0.4870
   29MOL   C15819254   4.958   4.840   0.930  0.3505  0.0280 -0.2682
   29MOL   C15919255   4.920   4.757   1.038  0.0859 -0.9325 -0.2690
   29MOL   H16019256   4.656   4.619   1.477 -0.8745  0.3889 -0.9945
   29MOL   H16119257   4.659   4.683   1.680 -2.2235  1.6383  0.3072
   29MOL   H16219258   4.912   5.014   1.599  2.6175 -0.2077 -0.4517
   29MOL   H16319259   4.923   4.942   1.356  0.6212 -1.3556  0.3236
   29MOL   H16419260   4.707   4.965   1.192 -0.1501 -2.4868  0.7494
   29MOL   H16519261   4.771   5.114   1.016  0.3996  1.2712  0.3745
   29MOL   H16619262   4.696   5.088   0.816 -1.3169  0.0726 -0.1168
   29MOL   H16719263   4.572   5.170   0.616 -0.3559  0.1823 -0.0889
   29MOL   H16819264   4.935   5.208   0.390 -0.1227  0.1365  0.8425
   29MOL   H16919265   5.066   5.122   0.576  0.1153  0.4701 -1.2544
   29MOL   H17019266   5.022   4.795   0.856  2.3294 -1.4912  2.2863
   29MOL   H17119267   4.949   4.653   1.035 -1.6394 -1.4878  1.3967
   29MOL   C17219268   4.420   5.489   0.540  0.0587 -0.8619  0.5309
   29MOL   C17319269   4.540   5.420   0.504 -0.2999  0.3695 -0.3519
   29MOL   C17419270   4.555   5.305   0.421 -0.5007 -0.0882  0.5159
   29MOL   O17519271   4.672   5.253   0.386  0.0779  0.1133  0.5941
   29MOL   C17619272   4.436   5.261   0.371  0.5385  0.3933 -0.6498
   29MOL   C17719273   4.311   5.327   0.408 -0.2211  0.2925  0.0608
   29MOL   C17819274   4.296   5.438   0.492 -0.3677  0.2142 -0.0192
   29MOL   C17919275   4.168   5.514   0.522 -0.8862 -0.3488 -1.0675
   29MOL   O18019276   4.171   5.622   0.586 -0.3709  0.2761 -0.4375
   29MOL   C18119277   4.043   5.457   0.477  0.3183 -0.2125  0.1606
   29MOL   C18219278   3.960   5.529   0.383  0.1169 -0.3030  0.2699
   29MOL   C18319279   3.839   5.465   0.339  0.0646 -0.0990 -0.1165
   29MOL   C18419280   3.797   5.346   0.401 -0.1025  0.0042 -0.2545
   29MOL   O18519281   3.679   5.285   0.353 -0.0856  0.1201 -0.7386
   29MOL   C18619282   3.556   5.313   0.416  0.3351 -0.1686  0.3252
   29MOL   C18719283   3.500   5.219   0.507  0.3405 -0.1422 -0.0148
   29MOL   C18819284   3.382   5.246   0.578  0.6619 -0.4985 -0.1110
   29MOL   C18919285   3.303   5.366   0.534 -0.8702 -0.1994 -0.0169
   29MOL   C19019286   3.359   5.453   0.442 -0.4970  1.0363  0.1923
   29MOL   C19119287   3.488   5.427   0.384 -0.0546 -0.3295  0.5747
   29MOL   C19219288   3.874   5.282   0.500 -0.3161  0.4446  0.2266
   29MOL   C19319289   3.999   5.335   0.535  0.1170  0.0195 -0.3511
   29MOL   H19419290   4.441   5.574   0.603 -0.4897  1.0210 -1.7533
   29MOL   H19519291   4.626   5.457   0.559 -0.7537 -2.1316  2.1990
   29MOL   H19619292   4.438   5.171   0.311  1.3326 -0.3940  0.5442
   29MOL   H19719293   4.228   5.279   0.359  0.6380 -0.3474 -0.7997
   29MOL   H19819294   3.986   5.626   0.343  2.4423 -0.3542  1.6061
   29MOL   H19919295   3.781   5.512   0.262  1.4599  1.3438 -0.3208
   29MOL   H20019296   3.563   5.137   0.536  0.1776 -0.1868  0.2178
   29MOL   H20119297   3.339   5.182   0.653 -1.7788  0.5935 -0.5359
   29MOL   H20219298   3.306   5.541   0.406 -0.0838  1.5867  0.9160
   29MOL   H20319299   3.539   5.499   0.321  2.8442 -1.8963  1.0919
   29MOL   H20419300   3.835   5.191   0.544  1.5084 -1.2583 -1.5305
   29MOL   H20519301   4.050   5.289   0.619  0.8259  0.1217 -0.7238
   29MOL   C20619302   2.895   5.183   0.683 -0.5513  0.4423  0.0728
   29MOL   C20719303   2.974   5.300   0.667 -0.0344 -0.2590 -0.5871
   29MOL   C20819304   3.081   5.291   0.575 -0.2244  0.0541  0.0402
   29MOL   O20919305   3.176   5.390   0.584 -0.0452  0.1778 -0.2545
   29MOL   C21019306   3.093   5.184   0.484  0.1134  0.3576 -0.1181
   29MOL   C21119307   3.000   5.079   0.497  0.6662 -0.1345 -0.2227
   29MOL   C21219308   2.902   5.076   0.598 -0.1927  0.1589  0.3707
   29MOL   C21319309   2.804   4.958   0.609 -0.0496  0.2722  0.0096
   29MOL   O21419310   2.760   4.916   0.718 -0.0767 -0.3722 -0.2732
   29MOL   C21519311   2.764   4.886   0.478  0.3835  0.1462  0.4838
   29MOL   C21619312   2.733   4.966   0.361  0.3291  0.4096  0.0096
   29MOL   C21719313   2.683   4.904   0.242  0.5371  1.0718  0.1873
   29MOL   C21819314   2.690   4.762   0.236  0.4988 -0.2000 -0.4734
   29MOL   O21919315   2.671   4.693   0.120  1.1527  0.4372  0.4792
   29MOL   C22019316   2.780   4.634   0.052 -0.5345 -0.1681  0.5024
   29MOL   C22119317   2.783   4.496   0.026  0.2583  0.8641 -0.2133
   29MOL   C22219318   2.898   4.443   8.277 -0.5733 -0.0384 -0.3927
   29MOL   C22319319   3.017   4.518   8.250  0.1660 -0.2443 -0.4777
   29MOL   C22419320   3.005   4.654   8.272 -0.0161 -0.5429  0.9512
   29MOL   C22519321   2.891   4.714   0.018  0.2001  0.0651 -0.4010
   29MOL   C22619322   2.714   4.686   0.350 -0.2575  0.5313 -0.3029
   29MOL   C22719323   2.750   4.750   0.472  0.2956  0.5985 -0.9857
   29MOL   H22819324   2.807   5.181   0.746  0.5855 -0.7411  1.6450
   29MOL   H22919325   2.956   5.387   0.729 -0.4949  0.6708 -2.0174
   29MOL   H23019326   3.178   5.185   0.417  1.6901  2.5223  1.8442
   29MOL   H23119327   3.007   4.996   0.429 -0.8693 -0.7624  0.3547
   29MOL   H23219328   2.746   5.073   0.369 -0.6492  0.4543  1.1549
   29MOL   H23319329   2.657   4.967   0.158  0.3439 -0.1790 -0.7129
   29MOL   H23419330   2.692   4.442   0.047  1.6406 -0.9271  1.2945
   29MOL   H23519331   2.883   4.338   8.252  2.0478 -0.6901  0.6775
   29MOL   H23619332   3.089   4.717   8.250 -0.5998  0.1001  0.5365
   29MOL   H23719333   2.881   4.821   0.026  0.8237  0.2543 -1.9114
   29MOL   H23819334   2.718   4.578   0.354  0.6997  0.4709 -2.2476
   29MOL   H23919335   2.774   4.687   0.556 -0.4072  3.3632  1.3700
   29MOL   C24019336   3.351   4.312   0.138 -0.2885 -0.5942  0.1424
   29MOL   C24119337   3.242   4.326   0.054 -0.0251 -0.0371  0.3619
   29MOL   C24219338   3.236   4.443   8.283  0.8662  0.2524 -0.5365
   29MOL   O24319339   3.125   4.456   8.197  0.0153  0.4172 -0.0519
   29MOL   C24419340   3.346   4.537   8.282 -0.1079 -1.0507  0.0479
   29MOL   C24519341   3.448   4.515   0.063  0.0578  0.4652  0.0407
   29MOL   C24619342   3.455   4.403   0.145 -0.2355  0.4912  0.0742
   29MOL   C24719343   3.570   4.376   0.234 -0.8317  0.3029 -0.0655
   29MOL   O24819344   3.551   4.353   0.355 -0.0920 -0.2379 -0.6508
   29MOL   C24919345   3.708   4.394   0.177  0.4309 -0.4670 -0.2195
   29MOL   C25019346   3.813   4.414   0.263  0.1837  0.5842 -0.3958
   29MOL   C25119347   3.947   4.424   0.226 -0.9026  0.3930 -0.8284
   29MOL   C25219348   3.977   4.417   0.089  0.0781  0.1712  0.3807
   29MOL   O25319349   4.106   4.454   0.047  0.1220 -0.0452 -0.0964
   29MOL   C25419350   4.190   4.371   8.294 -0.2828  0.2678 -0.0732
   29MOL   C25519351   4.231   4.252   0.044 -0.3320  0.3379  0.0436
   29MOL   C25619352   4.320   4.168   8.293  0.0410  0.6015  0.1124
   29MOL   C25719353   4.382   4.197   8.168  0.0537 -0.2493  0.4602
   29MOL   C25819354   4.346   4.316   8.100  0.3311  0.1103  0.8400
   29MOL   C25919355   4.248   4.398   8.168  0.3163  0.0330 -0.1095
   29MOL   C26019356   3.876   4.394   8.306  0.0230  0.3193  0.3846
   29MOL   C26119357   3.739   4.391   0.037 -0.1646 -0.0280 -1.1171
   29MOL   H26219358   3.347   4.225   0.201 -0.6442 -1.2244 -0.7393
   29MOL   H26319359   3.164   4.251   0.055 -1.1497  1.0180 -2.1547
   29MOL   H26419360   3.351   4.612   8.205 -0.6331  0.7540  1.7404
   29MOL   H26519361   3.522   4.593   0.060  1.2351 -0.6408 -0.0652
   29MOL   H26619362   3.798   4.422   0.370 -2.0054 -1.4911 -0.5263
   29MOL   H26719363   4.027   4.445   0.296 -0.3636  0.7123 -1.5362
   29MOL   H26819364   4.188   4.217   0.136  0.7548 -0.2331  0.3442
   29MOL   H26919365   4.355   4.073   0.018 -0.7299  0.7308  1.1695
   29MOL   H27019366   4.389   4.339   8.003 -0.6140  0.5832  0.5189
   29MOL   H27119367   4.225   4.494   8.124  1.2746  1.0185  1.5105
   29MOL   H27219368   3.897   4.405   8.201 -0.9728 -2.5843 -0.1717
   29MOL   H27319369   3.657   4.377   8.280 -0.9984  2.2303 -0.6160
   29MOL   C27419370   4.414   3.946   7.791 -0.5439  0.7588  0.7013
   29MOL   C27519371   4.455   4.041   7.884  0.0933  0.6195  0.2315
   29MOL   C27619372   4.439   4.018   8.022  0.0371 -0.6264 -0.5624
   29MOL   O27719373   4.477   4.107   8.118 -0.2691 -0.6867 -0.8198
   29MOL   C27819374   4.377   3.899   8.062 -0.3077 -0.7717  0.0191
   29MOL   C27919375   4.338   3.802   7.967  0.6160 -0.4480  0.2523
   29MOL   C28019376   4.358   3.823   7.828 -0.4255 -0.3236  0.4214
   29MOL   C28119377   4.318   3.725   7.730  0.0691  0.0470  0.6718
   29MOL   O28219378   4.273   3.759   7.622 -0.0699  0.3201 -0.6194
   29MOL   C28319379   4.330   3.579   7.768 -0.3039 -0.5058 -0.2882
   29MOL   C28419380   4.434   3.539   7.862  0.2860 -0.2488 -0.5548
   29MOL   C28519381   4.449   3.399   7.891  0.1238  0.2676  0.4479
   29MOL   C28619382   4.356   3.305   7.832  0.1507 -0.0406  0.0552
   29MOL   O28719383   4.362   3.169   7.851 -0.1687 -0.1921 -0.8038
   29MOL   C28819384   4.304   3.128   7.965  1.2809  0.8754 -0.1408
   29MOL   C28919385   4.172   3.086   7.967  0.0600 -0.2064  0.6149
   29MOL   C29019386   4.113   3.056   8.085 -0.3659 -0.0870 -0.3964
   29MOL   C29119387   4.180   3.073   8.205 -0.3713 -0.0289 -0.2143
   29MOL   C29219388   4.315   3.104   8.202  0.0315  0.9303  0.1369
   29MOL   C29319389   4.384   3.129   8.083  0.6997 -0.2982 -0.1472
   29MOL   C29419390   4.254   3.351   7.745 -0.5104  0.0859  0.3031
   29MOL   C29519391   4.247   3.486   7.712 -0.3545  0.2723 -0.4005
   29MOL   H29619392   4.431   3.966   7.686 -0.6906  1.0921  0.7396
   29MOL   H29719393   4.499   4.130   7.844 -1.1492  1.5530  0.9075
   29MOL   H29819394   4.369   3.867   8.165 -0.5738  0.3816  0.3680
   29MOL   H29919395   4.288   3.712   7.998 -2.3045  0.7513 -0.8147
   29MOL   H30019396   4.508   3.604   7.907 -0.1756 -0.0506 -0.0740
   29MOL   H30119397   4.524   3.367   7.961 -0.4135 -1.6593  0.1716
   29MOL   H30219398   4.120   3.092   7.873  0.7638 -1.7311  0.1143
   29MOL   H30319399   4.006   3.049   8.092 -0.4648  1.3703 -0.2952
   29MOL   H30419400   4.367   3.122   8.295  0.2351 -0.7986  0.3718
   29MOL   H30519401   4.482   3.173   8.074  0.8351 -0.6670 -0.4989
   29MOL   H30619402   4.189   3.278   7.698  0.6856  0.8169 -2.5923
   29MOL   H30719403   4.172   3.521   7.642 -1.2955  1.1527  1.0106
   29MOL   C30819404   4.219   2.837   0.260  0.2260 -0.5027 -0.4914
   29MOL   C30919405   4.156   2.880   0.138 -0.2052  0.4598 -0.1224
   29MOL   C31019406   4.165   3.020   0.117  0.0841 -0.4979 -0.0177
   29MOL   O31119407   4.100   3.071   0.007 -0.3875  0.2842  0.1451
   29MOL   C31219408   4.216   3.113   0.208  0.1914  0.1752  0.0297
   29MOL   C31319409   4.271   3.061   0.326  0.0741 -0.4495 -0.7303
   29MOL   C31419410   4.276   2.923   0.351 -0.3327 -0.3033  0.9171
   29MOL   C31519411   4.343   2.865   0.472  0.0689  0.5598  0.1515
   29MOL   O31619412   4.342   2.924   0.583 -0.0270  0.3549  0.4212
   29MOL   C31719413   4.401   2.726   0.458  0.5607  0.2302  0.6779
   29MOL   C31819414   4.383   2.627   0.558 -0.2934  0.2027 -0.2126
   29MOL   C31919415   4.443   2.500   0.553 -0.0485 -0.8733 -0.2606
   29MOL   C32019416   4.514   2.472   0.436 -0.5060 -0.0774  0.6419
   29MOL   O32119417   4.575   2.349   0.415 -0.0720 -0.4365  0.0040
   29MOL   C32219418   4.697   2.343   0.465  0.4815  0.0393  0.2910
   29MOL   C32319419   4.804   2.400   0.390 -0.0386  0.0159 -0.7590
   29MOL   C32419420   4.941   2.377   0.422 -0.3278 -0.0471 -0.5880
   29MOL   C32519421   4.966   2.312   0.547 -0.1820  0.1146 -0.6432
   29MOL   C32619422   4.861   2.257   0.630  0.6914  0.2902  0.0769
   29MOL   C32719423   4.725   2.274   0.582 -0.5669 -0.4608 -0.1901
   29MOL   C32819424   4.528   2.566   0.334  1.3750 -0.0221 -0.2965
   29MOL   C32919425   4.470   2.696   0.348 -0.7809  0.1662 -0.0162
   29MOL   H33019426   4.206   2.733   0.284  0.1435 -0.2005  0.8228
   29MOL   H33119427   4.107   2.820   0.063 -2.8703  1.6245  0.6367
   29MOL   H33219428   4.204   3.218   0.186 -1.6427 -0.1588 -0.6786
   29MOL   H33319429   4.308   3.132   0.399 -0.7491  0.2642 -0.9927
   29MOL   H33419430   4.320   2.652   0.642  1.4511 -0.1026  1.2353
   29MOL   H33519431   4.430   2.431   0.635  3.1313 -0.5939  0.5595
   29MOL   H33619432   4.770   2.433   0.293 -0.2443  0.0743 -0.6680
   29MOL   H33719433   5.014   2.416   0.352  0.0057  2.4267  1.0493
   29MOL   H33819434   4.889   2.197   0.715 -1.6101 -0.7914  0.1069
   29MOL   H33919435   4.644   2.228   0.636 -1.4509 -0.2128 -1.2893
   29MOL   H34019436   4.572   2.531   0.241 -2.3603 -0.2862 -2.0507
   29MOL   H34119437   4.469   2.761   0.262  2.5580  0.7648  0.3339
   29MOL   C34219438   5.398   2.411   0.735  0.8247 -0.4635  0.7040
   29MOL   C34319439   5.321   2.333   0.651  0.0633  0.2656  0.6673
   29MOL   C34419440   5.180   2.362   0.645 -0.2221 -0.1928 -0.0099
   29MOL   O34519441   5.097   2.278   0.570  0.0062 -0.7607 -0.2390
   29MOL   C34619442   5.128   2.469   0.725  0.3524 -0.6304  0.5993
   29MOL   C34719443   5.215   2.555   0.790  1.2246 -0.2138 -0.0560
   29MOL   C34819444   5.353   2.524   0.801  0.2562  0.0630  0.5010
   29MOL   C34919445   5.445   2.607   0.874 -0.2828  0.5769 -0.0093
   29MOL   O35019446   5.536   2.554   0.940 -0.0335 -0.1793 -0.2060
   29MOL   C35119447   5.439   2.753   0.857  0.3023 -0.3074 -0.8415
   29MOL   C35219448   5.371   2.813   0.746 -0.4226  0.3276  0.2523
   29MOL   C35319449   5.362   2.950   0.728 -0.1776 -0.4500  0.3500
   29MOL   C35419450   5.427   3.035   0.817  0.6880  0.0086  0.5470
   29MOL   O35519451   5.425   3.169   0.805 -0.0724 -0.0305  0.1350
   29MOL   C35619452   5.499   3.223   0.702  0.0371  0.0198  0.1136
   29MOL   C35719453   5.435   3.266   0.586  1.3569 -0.4360 -0.2311
   29MOL   C35819454   5.511   3.312   0.477 -0.1328 -0.0054  0.3621
   29MOL   C35919455   5.649   3.324   0.483 -0.1638 -0.8003 -0.0226
   29MOL   C36019456   5.713   3.281   0.605  0.4261  0.4190  0.1918
   29MOL   C36119457   5.640   3.232   0.711  0.1354 -0.6477 -0.3667
   29MOL   C36219458   5.506   2.978   0.918 -0.1039 -0.5849  0.1444
   29MOL   C36319459   5.519   2.840   0.936 -0.0709  0.3268  0.1546
   29MOL   H36419460   5.504   2.390   0.733  0.7642 -0.8009 -3.8871
   29MOL   H36519461   5.360   2.247   0.599 -2.6092 -0.5927 -0.0112
   29MOL   H36619462   5.021   2.489   0.728  0.2891 -0.6548 -0.9310
   29MOL   H36719463   5.177   2.643   0.841 -0.5349 -0.3715 -1.0550
   29MOL   H36819464   5.330   2.746   0.672 -0.5094  0.2172  0.3999
   29MOL   H36919465   5.308   2.990   0.643  0.3386 -0.0915  0.1838
   29MOL   H37019466   5.327   3.261   0.582  1.3441 -0.7171  0.4081
   29MOL   H37119467   5.449   3.336   0.392 -1.5695 -0.3800  1.2785
   29MOL   H37219468   5.818   3.299   0.623  0.9194 -1.5471 -0.6747
   29MOL   H37319469   5.689   3.207   0.804 -0.5369 -0.1339  0.1296
   29MOL   H37419470   5.555   3.049   0.983 -0.4402 -1.0071  0.8610
   29MOL   H37519471   5.599   2.807   1.001  0.3739  0.0130 -0.5441
   29MOL   C37619472   5.587   3.515   0.072  0.1406 -0.4421 -0.2540
   29MOL   C37719473   5.628   3.423   0.170  0.0517  0.1317  0.2053
   29MOL   C37819474   5.689   3.467   0.292  0.3664  0.2678 -0.6543
   29MOL   O37919475   5.732   3.368   0.385  0.0992 -0.0516 -0.1171
   29MOL   C38019476   5.711   3.604   0.312  0.4995 -0.9191 -0.0791
   29MOL   C38119477   5.679   3.700   0.213 -0.0019 -0.6180 -0.1046
   29MOL   C38219478   5.615   3.655   0.092  0.2059  0.6514  0.0571
   29MOL   C38319479   5.598   3.753   8.296  0.1069  0.0064 -0.2228
   29MOL   O38419480   5.697   3.778   8.224  0.2765 -0.6379 -0.1794
   29MOL   C38519481   5.470   3.831   8.295 -0.2593 -0.6690 -0.1638
   29MOL   C38619482   5.354   3.789   0.045 -0.5782  0.5356 -0.8960
   29MOL   C38719483   5.239   3.868   0.042  0.2010 -0.4595  0.0982
   29MOL   C38819484   5.239   3.996   8.299 -0.2837  0.1150  0.2337
   29MOL   O38919485   5.125   4.073   8.292 -0.0754  0.1669  0.4127
   29MOL   C39019486   5.137   4.199   0.031  0.2725 -0.0019  0.5317
   29MOL   C39119487   5.156   4.315   8.263 -0.5283  0.4651  0.2705
   29MOL   C39219488   5.168   4.442   0.010  0.0794  0.3758  0.1301
   29MOL   C39319489   5.158   4.450   0.148  0.0310 -0.6606 -0.7724
   29MOL   C39419490   5.147   4.335   0.233 -0.2424 -0.8560 -0.0284
   29MOL   C39519491   5.128   4.211   0.170  0.4114 -0.1927  0.3485
   29MOL   C39619492   5.358   4.044   8.238 -0.1674  0.2452  0.4300
   29MOL   C39719493   5.471   3.961   8.235  0.5561 -0.1252  0.0670
   29MOL   H39819494   5.536   3.477   8.297 -2.6746  2.6849 -0.0585
   29MOL   H39919495   5.611   3.316   0.167 -1.8160  0.3450  1.6192
   29MOL   H40019496   5.764   3.629   0.402 -1.7948  0.9791  0.7993
   29MOL   H40119497   5.698   3.805   0.230 -0.0054 -0.5895 -0.2802
   29MOL   H40219498   5.360   3.695   0.097 -0.1882  2.1040  1.9809
   29MOL   H40319499   5.147   3.833   0.087  0.8241 -0.6076  1.2502
   29MOL   H40419500   5.168   4.304   8.156  0.2952  0.8961  0.3099
   29MOL   H40519501   5.189   4.530   8.264 -1.6675  1.1508  0.6541
   29MOL   H40619502   5.154   4.346   0.340 -0.4226 -2.3771  0.1580
   29MOL   H40719503   5.110   4.127   0.236  0.7688  0.7243  1.6191
   29MOL   H40819504   5.362   4.140   8.190  0.9226  0.7260  1.4429
   29MOL   H40919505   5.565   3.998   8.198  1.0844 -1.1279  0.4016
   29MOL   C41019506   4.810   4.619   0.347  0.6328 -0.5526  0.2119
   29MOL   C41119507   4.914   4.571   0.263 -0.8250 -0.4186  0.9908
   29MOL   C41219508   5.049   4.611   0.287 -0.0919 -0.6734  0.4967
   29MOL   O41319509   5.157   4.569   0.207 -0.1142 -0.0206 -0.2594
   29MOL   C41419510   5.076   4.704   0.389 -0.1750  0.1367  0.5085
   29MOL   C41519511   4.973   4.742   0.480 -0.4079  0.0239 -0.0101
   29MOL   C41619512   4.837   4.703   0.458 -0.3902  0.0956  0.2704
   29MOL   C41719513   4.736   4.757   0.560  0.3120  0.2351  0.0487
   29MOL   O41819514   4.758   4.749   0.683  0.1171 -0.2815 -0.6762
   29MOL   C41919515   4.606   4.805   0.512  0.0178 -0.2267 -0.1354
   29MOL   C42019516   4.583   4.862   0.386 -0.3600  0.4129  0.3587
   29MOL   C42119517   4.454   4.916   0.351 -0.1118  0.3720 -0.6486
   29MOL   C42219518   4.349   4.891   0.442  0.0678 -0.4429 -0.5745
   29MOL   O42319519   4.229   4.937   0.401 -0.1199  0.5718  0.0754
   29MOL   C42419520   4.111   4.877   0.444 -0.4887 -1.0423 -0.2883
   29MOL   C42519521   4.090   4.740   0.422  0.4808 -0.0350  0.5314
   29MOL   C42619522   3.981   4.674   0.488 -0.0994  0.0518 -0.8551
   29MOL   C42719523   3.890   4.750   0.570  0.6013  0.1711 -0.4544
   29MOL   C42819524   3.910   4.891   0.581  0.3867 -0.3194  0.4135
   29MOL   C42919525   4.018   4.957   0.515 -0.6408  0.5565  0.1096
   29MOL   C43019526   4.369   4.829   0.565  0.2523 -0.2883 -0.0764
   29MOL   C43119527   4.497   4.790   0.601 -0.1416 -0.0638  0.0610
   29MOL   H43219528   4.707   4.590   0.334 -0.4422  2.9303  0.5401
   29MOL   H43319529   4.898   4.515   0.172  1.0369 -0.0892  0.4306
   29MOL   H43419530   5.177   4.734   0.410  0.2897 -1.9854  1.4114
   29MOL   H43519531   4.999   4.797   0.569 -1.3277  0.2775  0.1065
   29MOL   H43619532   4.663   4.862   0.313 -0.3447 -0.5642  0.3634
   29MOL   H43719533   4.427   4.971   0.262  3.5497 -1.0312 -2.7050
   29MOL   H43819534   4.157   4.682   0.360 -0.8720 -0.6329 -0.4024
   29MOL   H43919535   3.959   4.568   0.477 -2.4591  0.4795 -0.5849
   29MOL   H44019536   3.853   4.940   0.658 -1.8491 -2.1359 -0.0539
   29MOL   H44119537   4.024   5.064   0.526 -3.4464  0.6808  0.7532
   29MOL   H44219538   4.284   4.816   0.631 -0.5901 -3.1875 -1.6393
   29MOL   H44319539   4.516   4.755   0.702 -0.8990  0.4301  0.3769
   29MOL   C44419540   3.451   4.627   0.530 -0.0736  0.1009 -0.6407
   29MOL   C44519541   3.587   4.609   0.549  0.2152 -0.5108  0.9786
   29MOL   C44619542   3.659   4.704   0.625  0.2409  0.4786  0.1288
   29MOL   O44719543   3.792   4.680   0.647 -0.1238  0.5793  0.1827
   29MOL   C44819544   3.592   4.819   0.674  0.3133  0.1126 -0.1073
   29MOL   C44919545   3.458   4.835   0.651  0.0144  0.6891  0.7929
   29MOL   C45019546   3.384   4.741   0.576 -0.0091 -0.0114 -0.8183
   29MOL   C45119547   3.238   4.756   0.550  0.2035  0.4891  0.5373
   29MOL   O45219548   3.190   4.866   0.546  0.4064  0.6302 -0.7366
   29MOL   C45319549   3.150   4.644   0.508 -0.3604  0.1692  0.2451
   29MOL   C45419550   3.085   4.642   0.380 -0.0430 -0.2177  0.1056
   29MOL   C45519551   3.008   4.526   0.337  0.3061 -0.2609  0.0290
   29MOL   C45619552   3.003   4.416   0.421  0.0338  0.3277  0.3674
   29MOL   O45719553   2.924   4.307   0.369  0.3096  0.3728  0.1686
   29MOL   C45819554   2.958   4.178   0.405 -0.2095 -0.1816  0.0224
   29MOL   C45919555   3.077   4.126   0.363  0.2041 -0.5350  0.1570
   29MOL   C46019556   3.108   3.989   0.371  0.0650 -0.6731 -0.5983
   29MOL   C46119557   3.028   3.909   0.447  1.0308  0.5013 -0.2764
   29MOL   C46219558   2.909   3.961   0.496  0.1490  0.0014 -0.3592
   29MOL   C46319559   2.867   4.094   0.477 -0.0927 -1.1372 -0.5576
   29MOL   C46419560   3.062   4.413   0.549  0.8654  0.2852  0.2493
   29MOL   C46519561   3.131   4.527   0.590 -0.1860  0.3058  0.4479
   29MOL   H46619562   3.389   4.563   0.470  0.9814 -1.6647  0.1033
   29MOL   H46719563   3.640   4.531   0.497  0.6593 -0.5247  1.4438
   29MOL   H46819564   3.653   4.892   0.726 -2.4630  0.2982  3.0908
   29MOL   H46919565   3.406   4.922   0.687  0.0938  0.7647  0.7213
   29MOL   H47019566   3.092   4.729   0.316 -1.0993  1.2617  1.9635
   29MOL   H47119567   2.967   4.515   0.238  0.1257 -0.1400  0.0888
   29MOL   H47219568   3.143   4.187   0.303  0.1721 -0.5904  0.0664
   29MOL   H47319569   3.205   3.954   0.338 -0.3948 -1.6331 -0.9330
   29MOL   H47419570   2.841   3.893   0.545 -1.0793  0.9326 -0.7259
   29MOL   H47519571   2.774   4.139   0.511 -0.0913 -1.6880  0.2083
   29MOL   H47619572   3.074   4.326   0.612  0.1468  0.1987  0.2703
   29MOL   H47719573   3.183   4.525   0.684 -0.6933  0.1588  0.7273
   29MOL   C47819574   3.381   3.700   0.641 -0.7568 -0.3656 -0.9960
   29MOL   C47919575   3.276   3.697   0.549  0.2576  0.2030 -0.8778
   29MOL   C48019576   3.160   3.770   0.585 -0.3023 -0.2238  0.5037
   29MOL   O48119577   3.070   3.784   0.487  0.1056 -0.1050 -0.2828
   29MOL   C48219578   3.148   3.831   0.713  0.5623  0.0607  0.1097
   29MOL   C48319579   3.250   3.827   0.808  0.4397  0.0833  0.1915
   29MOL   C48419580   3.372   3.762   0.770  0.3401 -0.0183 -0.3460
   29MOL   C48519581   3.488   3.785   0.862 -0.5301 -0.5928 -0.1569
   29MOL   O48619582   3.506   3.884   0.931 -0.2460 -0.1263 -0.1673
   29MOL   C48719583   3.611   3.699   0.836  0.5821  0.0211 -0.5212
   29MOL   C48819584   3.591   3.557   0.812 -0.2272 -0.3393 -0.2480
   29MOL   C48919585   3.706   3.483   0.797  0.2167  0.0308  0.6504
   29MOL   C49019586   3.835   3.535   0.787 -0.0308 -0.7490 -0.0857
   29MOL   O49119587   3.951   3.467   0.757  0.3127 -0.0646  0.0212
   29MOL   C49219588   3.950   3.422   0.624 -0.0119 -0.0117  0.4677
   29MOL   C49319589   3.955   3.510   0.513 -0.1539 -0.1566  0.5698
   29MOL   C49419590   3.948   3.461   0.381 -0.0067 -0.2827 -0.0438
   29MOL   C49519591   3.949   3.322   0.358 -0.0725  0.2419  0.6125
   29MOL   C49619592   3.944   3.238   0.470  0.2330  0.4561 -0.0945
   29MOL   C49719593   3.942   3.285   0.601  0.2116  0.7702 -0.6060
   29MOL   C49819594   3.848   3.669   0.819  0.0123 -0.3608 -0.3631
   29MOL   C49919595   3.735   3.750   0.850 -0.3091 -0.1389 -0.6702
   29MOL   H50019596   3.475   3.661   0.605  0.1890 -0.2512  1.3019
   29MOL   H50119597   3.290   3.668   0.446 -0.2635 -2.5804 -0.1866
   29MOL   H50219598   3.054   3.881   0.732  1.1659  0.6429  1.6142
   29MOL   H50319599   3.241   3.895   0.891 -1.2699 -1.4195  1.2808
   29MOL   H50419600   3.495   3.508   0.814  0.6194 -2.1596 -2.8877
   29MOL   H50519601   3.709   3.376   0.781  0.3210  0.2909 -1.1592
   29MOL   H50619602   3.960   3.616   0.534  2.9568 -0.4048  1.4528
   29MOL   H50719603   3.941   3.536   0.304  1.2473 -0.1441 -0.0216
   29MOL   H50819604   3.944   3.131   0.457 -0.8992  0.5423 -0.8427
   29MOL   H50919605   3.936   3.205   0.673  1.3955  0.9615 -0.2800
   29MOL   H51019606   3.943   3.721   0.812 -0.2596  0.4638  1.6919
   29MOL   H51119607   3.739   3.852   0.884 -0.6626  0.1838 -1.5836
   29MOL   C51219608   3.729   3.321   8.275 -0.2644  0.1743 -0.5684
   29MOL   C51319609   3.843   3.346   0.043 -0.0669  0.5992  0.0396
   29MOL   C51419610   3.875   3.257   0.145 -0.2253 -0.4934 -0.5183
   29MOL   O51519611   3.976   3.282   0.230 -0.1339 -0.2467  0.2993
   29MOL   C51619612   3.807   3.136   0.164 -0.5518  0.9547  0.8132
   29MOL   C51719613   3.702   3.111   0.078 -0.4507 -0.1045  0.0100
   29MOL   C51819614   3.652   3.202   8.299  0.9255  0.1892  0.1255
   29MOL   C51919615   3.518   3.169   8.236 -0.3136 -0.2174  0.3082
   29MOL   O52019616   3.438   3.106   8.301 -0.3139  0.0544  0.6272
   29MOL   C52119617   3.495   3.198   8.093  0.8061 -0.1326  0.6238
   29MOL   C52219618   3.363   3.195   8.046  0.3897 -0.1252 -0.2771
   29MOL   C52319619   3.330   3.221   7.911 -0.1124 -0.1279  0.6479
   29MOL   C52419620   3.430   3.244   7.813  0.3415 -0.6207 -0.0109
   29MOL   O52519621   3.403   3.275   7.683 -0.3719  0.2841 -0.0639
   29MOL   C52619622   3.412   3.165   7.603  0.0436 -0.7537  0.0080
   29MOL   C52719623   3.296   3.090   7.576 -0.5543 -0.7429 -0.7764
   29MOL   C52819624   3.307   2.974   7.502  0.5031 -0.2756  0.4942
   29MOL   C52919625   3.424   2.932   7.442 -0.0952 -0.0414 -0.4968
   29MOL   C53019626   3.534   3.021   7.450  0.1570 -0.0765  0.0834
   29MOL   C53119627   3.530   3.141   7.528 -0.0030  0.8167 -0.1629
   29MOL   C53219628   3.566   3.247   7.858  0.0963 -0.4532  0.4881
   29MOL   C53319629   3.594   3.225   7.993 -0.3245 -0.0836 -0.5005
   29MOL   H53419630   3.707   3.397   8.201  1.1711  0.7037 -0.4768
   29MOL   H53519631   3.912   3.425   0.017  2.4839 -1.5608  0.0226
   29MOL   H53619632   3.831   3.069   0.245 -2.2036 -1.2625 -0.4969
   29MOL   H53719633   3.653   3.015   0.087 -2.2744  0.7940 -0.0624
   29MOL   H53819634   3.278   3.185   8.112  0.3692  0.1776 -0.2547
   29MOL   H53919635   3.227   3.217   7.878 -0.0748  0.0190  0.5120
   29MOL   H54019636   3.200   3.110   7.620 -1.3682  0.5617 -3.0418
   29MOL   H54119637   3.215   2.918   7.491 -2.3077  3.9151  1.1227
   29MOL   H54219638   3.627   2.988   7.407  0.9954  2.7259 -0.3758
   29MOL   H54319639   3.624   3.194   7.528  0.2352  0.4580  2.1958
   29MOL   H54419640   3.640   3.275   7.785 -0.4828 -1.7012 -0.5960
   29MOL   H54519641   3.699   3.242   8.014 -0.5012 -1.6978  1.8756
   29MOL   C54619642   3.360   2.459   7.433 -0.1505 -0.4254  0.0274
   29MOL   C54719643   3.381   2.580   7.375  0.8288  0.0335  0.2344
   29MOL   C54819644   3.415   2.696   7.448  0.6234 -0.0261 -0.2721
   29MOL   O54919645   3.446   2.815   7.383 -0.1972  0.6176  0.6936
   29MOL   C55019646   3.435   2.674   7.589 -0.3915 -0.5006 -0.0817
   29MOL   C55119647   3.397   2.556   7.651  0.6561  0.4384 -1.1123
   29MOL   C55219648   3.356   2.448   7.569  0.4568  0.5963  0.5719
   29MOL   C55319649   3.316   2.316   7.637 -0.5596  1.0060 -0.0791
   29MOL   O55419650   3.349   2.210   7.582 -0.4427  0.4164 -0.2367
   29MOL   C55519651   3.241   2.319   7.764 -0.2401  0.7218 -0.1091
   29MOL   C55619652   3.158   2.428   7.805 -0.5259  0.1300 -0.3236
   29MOL   C55719653   3.091   2.413   7.928  0.0888  0.2544  0.2380
   29MOL   C55819654   3.107   2.296   8.006 -0.5533  0.3773  0.6816
   29MOL   O55919655   3.026   2.273   8.116 -0.3103 -0.2176 -0.0861
   29MOL   C56019656   2.897   2.248   8.100  0.1138 -0.2430  0.7008
   29MOL   C56119657   2.847   2.175   7.989  0.4704  0.3407  0.0631
   29MOL   C56219658   2.708   2.159   7.970  0.2806 -0.1221 -0.1734
   29MOL   C56319659   2.619   2.224   8.059  0.8422 -0.4741 -0.3233
   29MOL   C56419660   2.670   2.296   8.169 -0.6601 -0.0556 -0.8861
   29MOL   C56519661   2.807   2.316   8.181 -0.4160 -0.2556  0.8950
   29MOL   C56619662   3.189   2.188   7.962  0.4242 -0.4021  0.1569
   29MOL   C56719663   3.256   2.204   7.844  0.4500  0.0181 -0.0444
   29MOL   H56819664   3.331   2.376   7.370 -0.0357 -2.5391  2.6382
   29MOL   H56919665   3.386   2.589   7.267 -0.5461 -0.3260  0.1333
   29MOL   H57019666   3.474   2.751   7.655  0.8012  0.0337 -1.3876
   29MOL   H57119667   3.408   2.552   7.758 -1.5711 -2.3008 -0.9488
   29MOL   H57219668   3.150   2.518   7.746 -2.2562  0.4573  0.3662
   29MOL   H57319669   3.025   2.489   7.966 -0.2297  0.5339 -0.8487
   29MOL   H57419670   2.908   2.127   7.915  0.8601  2.3883 -0.9752
   29MOL   H57519671   2.676   2.107   7.881  0.2958 -0.1467 -0.1647
   29MOL   H57619672   2.606   2.340   8.245  0.4168  0.0483 -0.0247
   29MOL   H57719673   2.826   2.386   8.261 -3.0596  1.4896  0.0821
   29MOL   H57819674   3.203   2.101   8.025 -0.3722  1.3541  2.8325
   29MOL   H57919675   3.322   2.125   7.812  0.0519 -0.2526 -0.1948
   29MOL   C58019676   2.297   2.535   8.045  0.2517 -0.1381 -0.3508
   29MOL   C58119677   2.373   2.432   7.996  0.0915 -0.0140  0.7139
   29MOL   C58219678   2.399   2.314   8.072 -0.7700  0.1809 -0.4364
   29MOL   O58319679   2.478   2.214   8.038 -0.5542 -0.1681 -0.4269
   29MOL   C58419680   2.329   2.290   8.192  0.2418  1.0182  0.2436
   29MOL   C58519681   2.236   2.390   8.232 -0.8823  0.6414 -0.2676
   29MOL   C58619682   2.220   2.513   8.160 -0.3136 -0.0930 -0.2687
   29MOL   C58719683   2.127   2.621   8.212 -0.2748  0.3306  0.8346
   29MOL   O58819684   2.132   2.731   8.163 -0.4340 -0.6270 -0.3242
   29MOL   C58919685   2.027   2.594   8.312  0.2889 -0.0670  0.4406
   29MOL   C59019686   2.010   2.682   0.108 -0.3656 -0.0956 -0.7650
   29MOL   C59119687   1.907   2.669   0.205  0.6393 -0.6834 -0.0984
   29MOL   C59219688   1.828   2.554   0.184 -0.1975 -0.1104 -0.2439
   29MOL   O59319689   1.727   2.540   0.278  0.0866 -0.0549 -0.1290
   29MOL   C59419690   1.626   2.634   0.281  0.2212  0.5229  0.0520
   29MOL   C59519691   1.541   2.653   0.173 -0.3642 -0.4281  0.1866
   29MOL   C59619692   1.433   2.747   0.194 -0.2136  0.1585  0.3434
   29MOL   C59719693   1.401   2.808   0.318  0.5030  0.5090  0.3010
   29MOL   C59819694   1.475   2.757   0.424  0.7211 -0.3727 -0.1967
   29MOL   C59919695   1.592   2.681   0.408  0.3832 -0.6254  0.0369
   29MOL   C60019696   1.845   2.460   0.080  0.2508 -0.2695 -0.1479
   29MOL   C60119697   1.943   2.484   8.293  0.7871 -1.1016 -0.2232
   29MOL   H60219698   2.292   2.623   7.982  0.6420 -0.0934 -0.3205
   29MOL   H60319699   2.409   2.448   7.896 -0.2502  0.8449  0.7244
   29MOL   H60419700   2.333   2.196   8.245 -1.7348  1.2491  0.8017
   29MOL   H60519701   2.180   2.376   0.011  0.4580  0.3893  0.5208
   29MOL   H60619702   2.059   2.778   0.106  0.0916 -0.3044  0.1547
   29MOL   H60719703   1.877   2.742   0.278  0.1023 -1.6816  0.6837
   29MOL   H60819704   1.556   2.615   0.072  0.5665 -0.3714  0.2985
   29MOL   H60919705   1.359   2.772   0.119 -1.0915 -0.0280  1.1315
   29MOL   H61019706   1.440   2.788   0.522  0.5448 -0.1512 -0.3311
   29MOL   H61119707   1.649   2.642   0.492 -1.5415 -0.6876  1.3650
   29MOL   H61219708   1.777   2.379   0.061  1.3834 -1.3490  0.3209
   29MOL   H61319709   1.941   2.420   8.206  2.3707 -2.7009  0.8735
   29MOL   C61419710   0.986   2.879   0.114  0.4993 -0.4136  0.0473
   29MOL   C61519711   1.107   2.922   0.173 -0.7060  0.4239 -0.4243
   29MOL   C61619712   1.172   2.839   0.270  0.1858 -0.0836 -1.0770
   29MOL   O61719713   1.288   2.888   0.327  0.6707 -0.5649  0.1807
   29MOL   C61819714   1.128   2.703   0.282 -0.1901 -0.5423  0.0912
   29MOL   C61919715   1.015   2.661   0.210  0.0486 -0.1553  0.0721
   29MOL   C62019716   0.944   2.748   0.130  0.4015  0.0166 -0.5911
   29MOL   C62119717   0.823   2.693   0.061  0.4401  0.0555 -0.1948
   29MOL   O62219718   0.810   2.573   0.038 -0.5424 -0.2707  0.2019
   29MOL   C62319719   0.727   2.789   0.017 -0.1472  0.2640 -0.3799
   29MOL   C62419720   0.691   2.897   0.099  0.2329 -0.5033  0.2597
   29MOL   C62519721   0.593   2.993   0.052 -0.0094 -0.5117  0.4250
   29MOL   C62619722   0.530   2.984   8.239 -0.6894 -0.1855 -0.1027
   29MOL   O62719723   0.444   3.074   8.193  0.0265 -0.2150  0.2987
   29MOL   C62819724   0.483   3.195   8.147  0.4127 -0.2795 -0.0469
   29MOL   C62919725   0.592   3.275   8.199 -0.7655 -0.6408  0.2414
   29MOL   C63019726   0.625   3.400   8.137  0.2511 -0.2367 -0.8991
   29MOL   C63119727   0.559   3.437   8.019 -0.1384 -0.0090 -0.2360
   29MOL   C63219728   0.450   3.354   7.971  0.1373  0.2067  0.2695
   29MOL   C63319729   0.408   3.238   8.035  0.0341  0.2418 -0.7985
   29MOL   C63419730   0.568   2.871   8.160  0.0543  0.3824  1.2839
   29MOL   C63519731   0.667   2.780   8.206 -0.3105 -0.1742  0.0955
   29MOL   H63619732   0.941   2.952   0.048  1.3048  0.5998  0.6047
   29MOL   H63719733   1.139   3.021   0.142  2.1812 -0.3092  0.0194
   29MOL   H63819734   1.186   2.633   0.340  1.5284  0.5970 -0.2313
   29MOL   H63919735   0.985   2.560   0.235  1.4246 -0.9812 -1.5170
   29MOL   H64019736   0.728   2.906   0.200  0.2780 -0.1650  0.2120
   29MOL   H64119737   0.549   3.067   0.117 -0.2853 -0.6871  0.4393
   29MOL   H64219738   0.648   3.242   8.286  0.3541 -0.3232 -0.3529
   29MOL   H64319739   0.699   3.461   8.186  0.4782 -1.0941 -0.1471
   29MOL   H64419740   0.382   3.383   7.892 -0.9349  1.5795  1.6744
   29MOL   H64519741   0.328   3.172   8.005 -0.8240  1.0800 -0.3761
   29MOL   H64619742   0.512   2.861   8.069  0.2520 -2.9454  1.4534
   29MOL   H64719743   0.713   2.713   8.136  2.5217  1.6141  0.1539
   29MOL   C64819744   0.613   3.594   7.598  0.3790  0.1296  0.1613
   29MOL   C64919745   0.563   3.596   7.728 -0.2221 -0.9576 -0.7523
   29MOL   C65019746   0.640   3.561   7.837  0.5230 -0.0757 -0.1487
   29MOL   O65119747   0.594   3.562   7.963  0.1748 -0.7556 -0.2136
   29MOL   C65219748   0.773   3.525   7.813 -0.2286  0.3242  0.5910
   29MOL   C65319749   0.827   3.518   7.685  0.8218  0.1753 -0.3905
   29MOL   C65419750   0.746   3.553   7.573 -0.4882  0.9617 -0.6882
   29MOL   C65519751   0.792   3.538   7.432  0.5150  0.0608 -0.1965
   29MOL   O65619752   0.712   3.491   7.348 -0.0165 -0.4435  0.1925
   29MOL   C65719753   0.926   3.589   7.397  0.0577  0.4166  0.2051
   29MOL   C65819754   0.980   3.709   7.454  0.5416 -0.0638 -0.2479
   29MOL   C65919755   1.105   3.757   7.428  0.3385 -0.0751 -0.3623
   29MOL   C66019756   1.191   3.699   7.330 -0.1753 -0.0239  0.6047
   29MOL   O66119757   1.317   3.744   7.307 -0.1487  0.1956 -0.9029
   29MOL   C66219758   1.339   3.817   7.191 -0.3482 -0.8347 -0.2153
   29MOL   C66319759   1.464   3.819   7.134  0.6721 -0.0230 -0.0242
   29MOL   C66419760   1.484   3.890   7.014 -0.5073  0.3670 -0.3042
   29MOL   C66519761   1.378   3.962   6.955 -0.4298 -0.2556 -0.1357
   29MOL   C66619762   1.254   3.973   7.020 -0.1188  0.0610 -0.0067
   29MOL   C66719763   1.231   3.896   7.133 -0.8240  0.3402  0.2043
   29MOL   C66819764   1.141   3.583   7.265  0.0161 -0.1087  0.4828
   29MOL   C66919765   1.013   3.527   7.298  0.1043 -0.6225  0.2456
   29MOL   H67019766   0.547   3.608   7.514  0.2463  1.0727  0.4193
   29MOL   H67119767   0.457   3.613   7.740 -0.1731  0.6075 -2.2378
   29MOL   H67219768   0.815   3.484   7.904 -0.8498  0.0623  0.7681
   29MOL   H67319769   0.925   3.474   7.680  0.9689  0.3677  0.7215
   29MOL   H67419770   0.911   3.767   7.513  0.4792  0.5926 -0.9561
   29MOL   H67519771   1.133   3.846   7.482  2.3363 -0.4694 -0.7034
   29MOL   H67619772   1.553   3.779   7.181  1.7454 -1.1631 -2.8785
   29MOL   H67719773   1.577   3.877   6.961  0.7030  1.0478  1.6290
   29MOL   H67819774   1.174   4.023   6.968  0.6856  0.3726 -0.9620
   29MOL   H67919775   1.134   3.883   7.178 -0.4139 -2.4053  0.4061
   29MOL   H68019776   1.201   3.525   7.196  0.9293  0.6429  0.6393
   29MOL   H68119777   0.981   3.434   7.254 -1.3765  1.5582 -3.5116
   29MOL   H68219778   1.394   4.018   6.864  2.8947  1.2390  1.2930
   30MOL     C119779   6.309   6.277   3.340 -1.1084  0.7472 -0.2735
   30MOL     C219780   6.431   6.276   3.412  0.0444  0.1987  0.4833
   30MOL     C319781   6.525   6.376   3.376 -0.0778  0.2066  0.1704
   30MOL     O419782   6.646   6.378   3.430 -0.1087  0.1062  0.5874
   30MOL     C519783   6.493   6.474   3.280  0.1297  0.3302  0.4394
   30MOL     C619784   6.368   6.478   3.218  0.0871  0.1449  0.4420
   30MOL     C719785   6.277   6.374   3.247 -0.0021 -0.1085 -0.4643
   30MOL     C819786   6.147   6.374   3.182 -0.1998  0.3810 -0.4854
   30MOL     O919787   6.052   6.309   3.236  0.9244  0.0539 -0.1909
   30MOL    C1019788   6.136   6.443   3.051  0.2038  0.2326 -0.2616
   30MOL    C1119789   6.230   6.426   2.945 -0.3565  0.0521 -0.8002
   30MOL    C1219790   6.218   6.507   2.832 -0.1524 -0.6614 -0.0995
   30MOL    C1319791   6.114   6.608   2.825 -0.2133  0.9954 -0.4740
   30MOL    O1419792   6.105   6.690   2.720  0.3001 -0.7198 -0.2238
   30MOL    C1519793   6.069   6.650   2.596  0.3631  1.1450  0.2349
   30MOL    C1619794   6.157   6.686   2.489  0.2616  0.1712  0.6666
   30MOL    C1719795   6.123   6.645   2.359  0.2318 -0.1494  0.0698
   30MOL    C1819796   6.006   6.569   2.336 -0.6706  0.6033 -0.1914
   30MOL    C1919797   5.915   6.546   2.441 -0.1314 -0.3761 -0.3962
   30MOL    C2019798   5.944   6.577   2.575  0.1186  0.3296  0.3614
   30MOL    C2119799   6.016   6.615   2.926 -0.1840  0.1244 -0.0801
   30MOL    C2219800   6.024   6.522   3.035  0.7013 -0.3937  0.1117
   30MOL    H2319801   6.228   6.210   3.365 -1.4556  0.7470 -1.3925
   30MOL    H2419802   6.454   6.200   3.485 -0.5433 -1.1882 -0.7463
   30MOL    H2519803   6.560   6.557   3.266 -0.8686  1.1277  0.3176
   30MOL    H2619804   6.363   6.558   3.146  0.6091 -0.0177  0.2182
   30MOL    H2719805   6.311   6.358   2.967  0.2067  0.9143 -0.1599
   30MOL    H2819806   6.291   6.504   2.752 -0.4448  0.1317 -0.3966
   30MOL    H2919807   6.245   6.748   2.496  1.0886 -0.8109 -0.8485
   30MOL    H3019808   6.189   6.658   2.274 -1.4166 -0.2824 -1.2533
   30MOL    H3119809   5.818   6.501   2.422 -0.8810  0.5974  1.0792
   30MOL    H3219810   5.885   6.568   2.665 -0.3309  0.6361  0.0985
   30MOL    H3319811   5.925   6.672   2.913 -0.1645  0.0782 -0.4163
   30MOL    H3419812   5.939   6.522   3.102  0.7642 -0.6615  0.1931
   30MOL    H3519813   6.641   6.311   3.497  0.4400  0.2611  0.7879
   30MOL    C3619814   5.759   6.239   2.190 -1.0331 -0.1784  0.4363
   30MOL    C3719815   5.860   6.329   2.217 -0.1437  0.7382  0.4277
   30MOL    C3819816   5.866   6.459   2.171  0.2830 -0.2365 -0.2786
   30MOL    O3919817   5.968   6.543   2.204 -0.9337  0.1457 -0.5230
   30MOL    C4019818   5.756   6.499   2.091  0.2198  0.0271 -0.1297
   30MOL    C4119819   5.646   6.413   2.068  0.3067  0.2421 -0.0092
   30MOL    C4219820   5.646   6.286   2.119 -0.3203  0.1776  0.3108
   30MOL    C4319821   5.538   6.195   2.087 -0.0876 -0.2019  0.4899
   30MOL    O4419822   5.479   6.136   2.177  0.1379  0.0845 -0.3862
   30MOL    C4519823   5.505   6.163   1.941 -0.0297 -0.5758 -0.2924
   30MOL    C4619824   5.595   6.189   1.834 -1.0597  0.3318  0.3089
   30MOL    C4719825   5.563   6.159   1.703  0.5155 -0.6552  0.0439
   30MOL    C4819826   5.435   6.096   1.673 -0.7277 -0.0916  0.0296
   30MOL    O4919827   5.407   6.065   1.545 -0.6359  0.0318  0.4195
   30MOL    C5019828   5.480   5.967   1.480 -0.5922 -1.4231  0.6747
   30MOL    C5119829   5.419   5.842   1.472  0.2014  0.5717 -0.0550
   30MOL    C5219830   5.472   5.746   1.386 -0.0129  0.1963 -0.1799
   30MOL    C5319831   5.588   5.777   1.307 -0.1025 -0.7062 -0.3895
   30MOL    C5419832   5.640   5.915   1.304  0.0764  0.4806  0.0324
   30MOL    C5519833   5.586   6.005   1.399 -1.0622  0.0325 -0.3827
   30MOL    C5619834   5.344   6.077   1.780 -0.1830 -0.8810  0.2411
   30MOL    C5719835   5.376   6.110   1.910 -0.3889  0.4299 -0.2422
   30MOL    H5819836   5.767   6.137   2.225 -2.5227 -0.7434 -0.8053
   30MOL    H5919837   5.950   6.293   2.264  1.4433 -0.0201 -3.0150
   30MOL    H6019838   5.759   6.601   2.055 -0.3264 -0.0260 -0.3193
   30MOL    H6119839   5.562   6.439   2.005 -2.1893  0.2845  3.2055
   30MOL    H6219840   5.700   6.214   1.842 -0.6312 -0.6255 -1.9557
   30MOL    H6319841   5.633   6.171   1.621  1.4612  1.7118  1.1407
   30MOL    H6419842   5.324   5.821   1.519 -0.5041  1.0795 -1.2327
   30MOL    H6519843   5.430   5.647   1.376  2.2186 -0.6710 -1.2876
   30MOL    H6619844   5.724   5.956   1.251 -0.6702  2.6495  0.4882
   30MOL    H6719845   5.608   6.111   1.400  1.1600 -0.3972 -0.7815
   30MOL    H6819846   5.245   6.041   1.756  0.4605 -1.3696 -1.7275
   30MOL    H6919847   5.316   6.080   1.995  1.0912  2.4609  1.5586
   30MOL    C7019848   5.412   5.615   0.946  0.3026  0.6033  0.4016
   30MOL    C7119849   5.505   5.679   1.030  0.1118 -0.2027  0.2778
   30MOL    C7219850   5.556   5.619   1.142  0.1296  0.2015 -0.3483
   30MOL    O7319851   5.644   5.686   1.219 -0.2537  0.2934 -0.2335
   30MOL    C7419852   5.507   5.494   1.179 -0.4928 -0.3231 -0.0217
   30MOL    C7519853   5.404   5.435   1.103 -0.2184 -0.0744  0.6208
   30MOL    C7619854   5.359   5.491   0.987  0.9224  0.4023  0.3798
   30MOL    C7719855   5.278   5.417   0.890 -0.7037  0.2080  0.3005
   30MOL    O7819856   5.180   5.468   0.840  0.0506 -0.0945  0.1224
   30MOL    C7919857   5.326   5.283   0.851 -0.1289 -0.3641 -0.1573
   30MOL    C8019858   5.467   5.261   0.846  0.7254 -0.0049  0.1773
   30MOL    C8119859   5.529   5.145   0.796 -0.5999  0.9392  0.2331
   30MOL    C8219860   5.450   5.047   0.730 -0.5413 -0.5301 -0.1841
   30MOL    O8319861   5.524   4.947   0.663 -0.3682 -0.2351  0.0816
   30MOL    C8419862   5.564   4.842   0.743 -0.5245 -0.2078 -0.0252
   30MOL    C8519863   5.703   4.831   0.773 -0.7996 -0.0508  0.1382
   30MOL    C8619864   5.746   4.720   0.855 -0.5395 -0.1505  0.0477
   30MOL    C8719865   5.649   4.628   0.900  0.6994 -0.1448  0.1137
   30MOL    C8819866   5.514   4.646   0.877  0.4056  0.1194  0.0133
   30MOL    C8919867   5.471   4.748   0.786 -0.2015  0.0908 -0.0683
   30MOL    C9019868   5.309   5.064   0.741  0.4264 -0.1183 -0.0690
   30MOL    C9119869   5.250   5.179   0.798 -0.6577  0.3413 -0.1938
   30MOL    H9219870   5.376   5.664   0.857 -4.2911  0.0163  1.8423
   30MOL    H9319871   5.543   5.777   1.003  0.7198 -0.6399 -0.4477
   30MOL    H9419872   5.546   5.462   1.275  1.6092  1.7259 -0.1543
   30MOL    H9519873   5.355   5.348   1.144 -0.4188 -0.1535  0.2070
   30MOL    H9619874   5.534   5.330   0.894  0.5843 -0.6436  1.2939
   30MOL    H9719875   5.636   5.132   0.790 -0.7280 -0.7136  1.1657
   30MOL    H9819876   5.778   4.900   0.737 -1.5816  0.7929  0.1036
   30MOL    H9919877   5.848   4.685   0.852 -0.9407 -1.1824 -2.3326
   30MOL   H10019878   5.440   4.576   0.912 -0.6388  1.7943  1.2132
   30MOL   H10119879   5.372   4.758   0.743 -0.8548  1.4611  1.6787
   30MOL   H10219880   5.233   4.995   0.705  0.0324 -0.5179  1.4575
   30MOL   H10319881   5.145   5.182   0.822  0.0143  0.2937  2.9496
   30MOL   C10419882   5.737   4.517   1.329 -0.5211  0.2819 -0.1597
   30MOL   C10519883   5.764   4.537   1.190  0.4588 -1.0118 -0.7187
   30MOL   C10619884   5.667   4.496   1.090  0.2933  0.4610 -0.0700
   30MOL   O10719885   5.692   4.515   0.961  0.2767 -0.2181 -0.3847
   30MOL   C10819886   5.547   4.436   1.134 -0.4747 -0.7990 -0.0836
   30MOL   C10919887   5.521   4.415   1.271 -0.4922  0.3173 -0.5843
   30MOL   C11019888   5.612   4.455   1.366  0.1679  0.6321 -0.4197
   30MOL   C11119889   5.574   4.439   1.503  0.1141  0.2588 -0.1472
   30MOL   O11219890   5.563   4.327   1.555  0.7552  0.5252 -0.5188
   30MOL   C11319891   5.555   4.564   1.585  0.4399  0.6237 -0.2080
   30MOL   C11419892   5.521   4.683   1.517  0.2481  0.6723 -0.3326
   30MOL   C11519893   5.490   4.793   1.594 -0.0569  0.5554 -0.7669
   30MOL   C11619894   5.492   4.795   1.733 -0.8610  0.2446 -0.8102
   30MOL   O11719895   5.447   4.907   1.807 -0.3511 -0.0159  0.0235
   30MOL   C11819896   5.490   5.032   1.775 -0.0119 -0.1135  0.1956
   30MOL   C11919897   5.403   5.124   1.705  0.0973  0.2572  0.0761
   30MOL   C12019898   5.452   5.254   1.678 -0.4125 -0.2791  0.5717
   30MOL   C12119899   5.587   5.289   1.710  0.0908  0.4143  0.4041
   30MOL   C12219900   5.672   5.194   1.765 -0.3414 -1.0173 -0.7155
   30MOL   C12319901   5.625   5.067   1.798 -0.6049  0.7331  0.3479
   30MOL   C12419902   5.542   4.680   1.798 -0.0988 -0.4751 -0.0278
   30MOL   C12519903   5.557   4.561   1.730 -0.6092  0.3328 -0.1889
   30MOL   H12619904   5.808   4.543   1.406 -0.2300 -0.3570 -0.2106
   30MOL   H12719905   5.859   4.579   1.161  0.3333  0.3131  0.7366
   30MOL   H12819906   5.472   4.392   1.069 -1.7954 -0.3995  1.1373
   30MOL   H12919907   5.423   4.379   1.301  0.1445 -0.1777  0.9423
   30MOL   H13019908   5.517   4.690   1.410  0.2488  0.7715 -0.3260
   30MOL   H13119909   5.466   4.884   1.541 -1.0101  0.4306 -0.5485
   30MOL   H13219910   5.306   5.099   1.666 -0.8088  0.6530  1.9888
   30MOL   H13319911   5.384   5.319   1.625 -1.5738 -2.4844 -0.7469
   30MOL   H13419912   5.773   5.212   1.796 -1.7531  0.3830  3.3724
   30MOL   H13519913   5.700   5.004   1.843  0.6290  0.6412 -1.7608
   30MOL   H13619914   5.541   4.680   1.906  0.7175 -1.2909 -0.0164
   30MOL   H13719915   5.570   4.471   1.788 -0.6355  0.7449  0.4627
   30MOL   C13819916   5.774   5.609   1.932  0.0386 -0.1019  0.6822
   30MOL   C13919917   5.763   5.513   1.828 -0.1427  0.1000  0.3394
   30MOL   C14019918   5.656   5.515   1.741  0.7371 -0.1482  0.7748
   30MOL   O14119919   5.633   5.408   1.656  0.2793 -0.1069  0.2300
   30MOL   C14219920   5.575   5.631   1.737  0.1666 -0.0750  1.2320
   30MOL   C14319921   5.597   5.736   1.828  1.0220 -1.1925  0.4284
   30MOL   C14419922   5.693   5.719   1.929  0.3256  0.3400 -0.4520
   30MOL   C14519923   5.720   5.816   2.033  1.1932 -0.3990 -0.2498
   30MOL   O14619924   5.758   5.933   2.007  0.2213  0.5734  0.2151
   30MOL   C14719925   5.693   5.773   2.175  0.3378 -0.0315 -0.8700
   30MOL   C14819926   5.602   5.670   2.211 -0.2022 -0.7016  0.4284
   30MOL   C14919927   5.597   5.622   2.347 -0.5618  0.0983 -0.1743
   30MOL   C15019928   5.672   5.684   2.451  0.3390 -0.6828  0.8070
   30MOL   O15119929   5.665   5.641   2.586 -0.0849 -0.0120  0.1250
   30MOL   C15219930   5.581   5.709   2.675 -0.5358  0.1186 -0.0131
   30MOL   C15319931   5.515   5.827   2.656 -0.0588  0.3525  0.0316
   30MOL   C15419932   5.430   5.881   2.753 -0.1531 -0.3013  0.4206
   30MOL   C15519933   5.400   5.810   2.874  0.5679 -0.0510  0.4830
   30MOL   C15619934   5.460   5.688   2.894 -0.3011  0.5081  0.5502
   30MOL   C15719935   5.550   5.638   2.799 -0.2435  0.2367 -0.4655
   30MOL   C15819936   5.756   5.789   2.412 -0.2424  0.5381  0.4243
   30MOL   C15919937   5.772   5.831   2.279  0.3051  0.3426  0.0377
   30MOL   H16019938   5.856   5.622   2.000 -0.3133  1.6240  0.7908
   30MOL   H16119939   5.843   5.441   1.815  0.4611  0.9749 -0.9294
   30MOL   H16219940   5.498   5.655   1.665 -0.9737  0.1468  2.5272
   30MOL   H16319941   5.536   5.825   1.836  0.9628 -1.2184  0.2605
   30MOL   H16419942   5.542   5.618   2.137  1.2540  0.2771 -1.4880
   30MOL   H16519943   5.527   5.541   2.366 -2.1726  1.0074 -2.0493
   30MOL   H16619944   5.549   5.896   2.579  1.5594  1.5778  1.7871
   30MOL   H16719945   5.375   5.970   2.727  0.3338  0.0601  0.6286
   30MOL   H16819946   5.435   5.635   2.985  2.0289  1.2424  1.6523
   30MOL   H16919947   5.595   5.541   2.815  1.4132  1.0521 -0.0833
   30MOL   H17019948   5.803   5.853   2.486  0.4736 -2.2029  2.4076
   30MOL   H17119949   5.838   5.916   2.268 -0.7930  0.9387 -2.0604
   30MOL   C17219950   5.272   6.213   3.015  0.2068  0.0639  0.2443
   30MOL   C17319951   5.244   6.089   2.966 -0.2230  0.3962  0.4496
   30MOL   C17419952   5.323   5.976   3.013 -0.2663 -0.3196  0.1166
   30MOL   O17519953   5.307   5.850   2.966  0.1189 -0.4587  0.0767
   30MOL   C17619954   5.422   6.001   3.108 -0.6817 -0.1824  0.6028
   30MOL   C17719955   5.442   6.123   3.166  0.6329 -0.2434 -0.5841
   30MOL   C17819956   5.363   6.233   3.120  0.4565 -0.4044 -0.5457
   30MOL   C17919957   5.411   6.372   3.158  0.3806 -0.3077  0.2365
   30MOL   O18019958   5.362   6.474   3.098  0.0608 -0.5025  0.2368
   30MOL   C18119959   5.511   6.382   3.267 -0.1205 -0.2125  0.0998
   30MOL   C18219960   5.643   6.420   3.239 -0.0580 -0.0938  0.0488
   30MOL   C18319961   5.732   6.441   3.341  0.0437 -0.0569  0.4097
   30MOL   C18419962   5.705   6.415   3.478  0.5426 -0.3957  0.7178
   30MOL   O18519963   5.798   6.443   3.569  0.0638  0.1247  0.5400
   30MOL   C18619964   5.763   6.542   3.662  0.2586 -0.6235 -0.4966
   30MOL   C18719965   5.719   6.515   3.791  0.7737  0.1916 -0.5999
   30MOL   C18819966   5.695   6.620   3.877  0.0876  0.4443 -0.0871
   30MOL   C18919967   5.707   6.755   3.827  0.3924 -0.1088 -0.0969
   30MOL   C19019968   5.745   6.787   3.695 -0.6239  0.1302 -0.2328
   30MOL   C19119969   5.788   6.677   3.621  1.1305  0.1044 -0.1920
   30MOL   C19219970   5.581   6.354   3.503 -0.2379 -0.1736  0.6030
   30MOL   C19319971   5.483   6.339   3.403  0.1346  1.0970 -0.5590
   30MOL   H19419972   5.212   6.297   2.983  0.9688  0.2974 -0.5758
   30MOL   H19519973   5.166   6.086   2.892 -0.4868 -0.8871  0.7634
   30MOL   H19619974   5.483   5.919   3.143 -0.1095 -0.0919 -0.1572
   30MOL   H19719975   5.523   6.129   3.237  0.0469 -3.0806  0.4097
   30MOL   H19819976   5.681   6.428   3.138  0.2907 -2.6738 -0.0518
   30MOL   H19919977   5.824   6.486   3.308 -1.1709  1.3785 -1.1153
   30MOL   H20019978   5.714   6.412   3.823  0.8344  0.3537 -0.0767
   30MOL   H20119979   5.683   6.611   3.984  0.2983  0.0346 -0.1003
   30MOL   H20219980   5.766   6.889   3.666  0.8545  0.1966  1.0027
   30MOL   H20319981   5.846   6.699   3.532  0.4259 -0.3104 -0.7638
   30MOL   H20419982   5.554   6.347   3.607  1.1310 -0.8543  0.9242
   30MOL   H20519983   5.390   6.298   3.439  1.4705 -1.7558 -0.2179
   30MOL   C20619984   5.504   7.126   3.710 -0.7208  0.5356 -0.1038
   30MOL   C20719985   5.533   6.996   3.759  0.3010 -0.6405 -0.5830
   30MOL   C20819986   5.630   6.971   3.862  0.5316  0.0827  0.2709
   30MOL   O20919987   5.669   6.850   3.919  0.5784  0.3451 -0.0244
   30MOL   C21019988   5.687   7.084   3.918 -0.0851 -0.0339  0.2675
   30MOL   C21119989   5.648   7.213   3.888 -0.6562  0.2362  0.6259
   30MOL   C21219990   5.561   7.237   3.778  0.2092  0.7978 -0.1653
   30MOL   C21319991   5.514   7.376   3.747 -0.0538  0.5636  1.0306
   30MOL   O21419992   5.595   7.467   3.744  0.0865  0.3619  0.2488
   30MOL   C21519993   5.370   7.409   3.702 -0.0228  0.7239  0.4694
   30MOL   C21619994   5.260   7.352   3.772  0.0798 -0.0405  0.0341
   30MOL   C21719995   5.122   7.384   3.748 -0.4706  0.6959  0.3288
   30MOL   C21819996   5.102   7.482   3.645 -0.5261  0.1641  0.4089
   30MOL   O21919997   4.976   7.526   3.614 -0.5412 -0.2920 -0.1952
   30MOL   C22019998   4.883   7.444   3.562 -0.5201 -0.1145  0.8584
   30MOL   C22119999   4.749   7.494   3.575 -0.1338  0.7553  0.1439
   30MOL   C22220000   4.644   7.407   3.536 -0.3098 -0.3343 -0.0767
   30MOL   C22320001   4.668   7.284   3.473 -0.2524  0.3870  0.4213
   30MOL   C22420002   4.800   7.245   3.454 -0.3332 -0.1849 -0.4222
   30MOL   C22520003   4.909   7.321   3.504  0.8715  0.3234 -0.2775
   30MOL   C22620004   5.211   7.539   3.577  0.3085  0.7880  0.9641
   30MOL   C22720005   5.348   7.503   3.608  0.3939 -0.1459  0.1122
   30MOL   H22820006   5.435   7.145   3.630 -1.1543  2.3012  0.6674
   30MOL   H22920007   5.489   6.904   3.725  0.1331 -1.0856  0.7885
   30MOL   H23020008   5.766   7.078   3.992  0.3731  2.5436  0.0617
   30MOL   H23120009   5.694   7.299   3.934 -0.1167  0.1668  0.2126
   30MOL   H23220010   5.282   7.282   3.851 -0.8065 -1.0697 -0.6192
   30MOL   H23320011   5.042   7.331   3.799 -0.4566 -0.0127 -0.3789
   30MOL   H23420012   4.729   7.588   3.625  2.3401  0.9984  0.7300
   30MOL   H23520013   4.541   7.438   3.549 -0.1067  0.4115 -0.2414
   30MOL   H23620014   4.827   7.150   3.410  0.0751 -0.3959  0.2710
   30MOL   H23720015   5.001   7.265   3.492  0.5547 -0.2812  0.0746
   30MOL   H23820016   5.199   7.607   3.494  2.0003  1.4433  1.2392
   30MOL   H23920017   5.429   7.541   3.547  0.4030 -1.3952 -0.6735
   30MOL   C24020018   4.422   7.351   3.134  0.1482  0.4958  0.6507
   30MOL   C24120019   4.517   7.298   3.219 -0.0257 -0.6243 -0.0843
   30MOL   C24220020   4.479   7.243   3.338 -0.1048  0.2387 -1.0154
   30MOL   O24320021   4.575   7.196   3.429  0.8634  0.1781  0.1938
   30MOL   C24420022   4.347   7.225   3.370 -0.0300  0.8032 -0.1920
   30MOL   C24520023   4.248   7.274   3.283  0.1176 -0.4007 -0.4910
   30MOL   C24620024   4.288   7.344   3.166 -0.3119 -0.3301  0.2317
   30MOL   C24720025   4.183   7.411   3.086 -0.7246  0.0184 -0.7511
   30MOL   O24820026   4.077   7.359   3.055 -0.5056 -0.2618 -0.1979
   30MOL   C24920027   4.213   7.551   3.037 -0.5101  0.1102  0.0746
   30MOL   C25020028   4.305   7.575   2.935  0.4101 -0.1373  0.0013
   30MOL   C25120029   4.321   7.708   2.888  0.6163  0.3664 -0.2220
   30MOL   C25220030   4.250   7.816   2.955  0.4582  0.2684 -0.0556
   30MOL   O25320031   4.269   7.949   2.920 -0.2807  0.2806 -0.6216
   30MOL   C25420032   4.351   7.979   2.816 -0.4089 -0.1008 -0.2828
   30MOL   C25520033   4.490   7.999   2.831  0.4462  0.6812 -0.4607
   30MOL   C25620034   4.579   8.026   2.727  0.2257 -0.5534  0.3869
   30MOL   C25720035   4.526   8.028   2.595  0.0957 -1.1108  0.0736
   30MOL   C25820036   4.383   8.012   2.581  0.0144  0.3645  0.5279
   30MOL   C25920037   4.300   7.982   2.686  0.2048  0.7126 -0.3746
   30MOL   C26020038   4.148   7.789   3.052 -0.0418 -0.4177 -0.3620
   30MOL   C26120039   4.128   7.652   3.091 -0.5730 -0.6840 -0.3359
   30MOL   H26220040   4.455   7.404   3.046 -1.0724  0.7914  0.3628
   30MOL   H26320041   4.622   7.308   3.194  0.5098  0.4777  2.4719
   30MOL   H26420042   4.313   7.166   3.454 -1.9745 -0.4678 -1.8524
   30MOL   H26520043   4.147   7.270   3.321  0.8715  0.7724  1.6589
   30MOL   H26620044   4.360   7.495   2.887  1.4692  0.4984  0.1481
   30MOL   H26720045   4.391   7.720   2.806  2.1474 -0.6095  0.9103
   30MOL   H26820046   4.529   7.992   2.931 -1.9986 -0.2619  0.4569
   30MOL   H26920047   4.686   8.037   2.735  0.3428 -0.7545 -0.7877
   30MOL   H27020048   4.336   8.016   2.484  1.5322  0.0342 -0.2253
   30MOL   H27120049   4.197   7.952   2.671 -0.0942  0.6139  1.7211
   30MOL   H27220050   4.085   7.867   3.093 -2.8772 -2.1223 -1.3313
   30MOL   H27320051   4.054   7.620   3.163  0.1890 -2.9495 -0.5068
   30MOL   C27420052   4.573   7.760   2.249  0.5281 -0.2065 -0.1431
   30MOL   C27520053   4.574   7.846   2.364 -0.0707 -0.2641  0.4013
   30MOL   C27620054   4.595   7.986   2.365 -0.4318  1.0541 -0.1179
   30MOL   O27720055   4.602   8.061   2.482 -0.1691 -0.2817  0.3160
   30MOL   C27820056   4.608   8.040   2.235  0.1075  0.2825 -0.0972
   30MOL   C27920057   4.602   7.961   2.118  0.3783 -0.2603  0.5129
   30MOL   C28020058   4.584   7.821   2.124 -0.1238 -0.1279  0.1086
   30MOL   C28120059   4.562   7.747   1.996 -0.2767 -0.1905  0.2316
   30MOL   O28220060   4.465   7.671   1.978 -0.3984  0.9416 -0.2215
   30MOL   C28320061   4.658   7.766   1.882 -0.5881  0.9035  0.0460
   30MOL   C28420062   4.625   7.723   1.746 -0.0474 -0.2634  0.0853
   30MOL   C28520063   4.717   7.737   1.636 -0.5256 -0.5801  0.2141
   30MOL   C28620064   4.832   7.817   1.655  0.6959  0.4948  0.0321
   30MOL   O28720065   4.906   7.853   1.541 -0.7124 -0.6350  0.9311
   30MOL   C28820066   4.908   7.987   1.517  0.5928  0.9619  0.3532
   30MOL   C28920067   5.031   8.042   1.467  0.7812  0.4162  0.0367
   30MOL   C29020068   5.053   8.178   1.466  0.2339  0.1797 -0.3435
   30MOL   C29120069   4.949   8.268   1.498  0.5541 -0.7099 -0.0762
   30MOL   C29220070   4.828   8.219   1.541  0.5962 -0.8110 -0.3584
   30MOL   C29320071   4.806   8.083   1.552  0.6354  0.4518  0.2643
   30MOL   C29420072   4.863   7.859   1.785 -0.1467 -0.3223  0.6235
   30MOL   C29520073   4.785   7.824   1.897  0.0682  0.5543 -0.1878
   30MOL   H29620074   4.554   7.654   2.258  2.3169 -0.3548  2.3373
   30MOL   H29720075   4.569   7.803   2.463 -0.5066 -2.1068 -0.3983
   30MOL   H29820076   4.615   8.147   2.220 -2.8830  0.1175 -3.1931
   30MOL   H29920077   4.603   8.013   2.023 -0.8129 -2.4941 -0.7699
   30MOL   H30020078   4.528   7.680   1.726  1.0970 -3.3626  0.7860
   30MOL   H30120079   4.689   7.711   1.535 -0.5169  1.6164 -0.3597
   30MOL   H30220080   5.114   7.975   1.447  0.5981 -0.1095  0.9913
   30MOL   H30320081   5.150   8.218   1.442 -0.0958 -0.6713 -3.3147
   30MOL   H30420082   4.750   8.284   1.579  1.6605  0.1951  0.1273
   30MOL   H30520083   4.715   8.051   1.601 -2.5612  4.3787 -2.7081
   30MOL   H30620084   4.945   7.928   1.800  0.2459 -0.6391 -0.0435
   30MOL   H30720085   4.820   7.856   1.994 -0.3663  1.2076 -0.2411
   30MOL   C30820086   4.685   0.291   1.387  0.1333  0.0888  0.4159
   30MOL   C30920087   4.787   0.191   1.391  0.3515 -0.9251 -0.0271
   30MOL   C31020088   4.879   0.184   1.499 -0.1115  0.0746 -0.5508
   30MOL   O31120089   4.980   0.093   1.502  0.2414 -0.0584 -0.0303
   30MOL   C31220090   4.873   0.282   1.603  0.3966  0.2403 -0.0951
   30MOL   C31320091   4.772   0.378   1.598 -0.7402 -0.2250  0.0582
   30MOL   C31420092   4.680   0.392   1.489 -0.0314  0.4178  0.6139
   30MOL   C31520093   4.583   0.501   1.485  0.2761 -0.3008  0.5189
   30MOL   O31620094   4.467   0.475   1.459  0.2948 -0.0774  0.4327
   30MOL   C31720095   4.619   0.648   1.511 -0.0328 -0.6057 -0.0479
   30MOL   C31820096   4.748   0.697   1.491 -0.0553  0.0645  0.0671
   30MOL   C31920097   4.785   0.828   1.511  0.5369  0.3783  0.9105
   30MOL   C32020098   4.684   0.918   1.553  1.1093 -0.1031  0.1491
   30MOL   O32120099   4.717   1.052   1.565  0.2937 -0.3074 -0.0518
   30MOL   C32220100   4.651   1.138   1.478 -0.3774  0.1555 -0.1919
   30MOL   C32320101   4.582   1.245   1.533  0.1227 -0.6431  0.0623
   30MOL   C32420102   4.508   1.331   1.451  0.1788  0.0963  0.0672
   30MOL   C32520103   4.540   1.332   1.315 -0.3534  0.8860  0.0232
   30MOL   C32620104   4.616   1.222   1.256  0.3576  0.4760 -0.7923
   30MOL   C32720105   4.667   1.121   1.339 -0.0533 -0.5313 -0.1589
   30MOL   C32820106   4.547   0.873   1.574 -0.2600  0.0994  0.7200
   30MOL   C32920107   4.513   0.735   1.554 -0.9743 -0.9762 -0.2201
   30MOL   H33020108   4.613   0.290   1.306  1.2818 -2.6724 -0.6289
   30MOL   H33120109   4.774   0.105   1.327 -1.3764 -1.4667  0.9974
   30MOL   H33220110   4.948   0.286   1.680  0.7843 -0.2289 -0.4464
   30MOL   H33320111   4.767   0.444   1.682 -1.2377  0.1030 -0.2315
   30MOL   H33420112   4.819   0.626   1.453  1.5340  1.0611  1.1496
   30MOL   H33520113   4.884   0.865   1.492  0.4057 -0.3709 -1.4648
   30MOL   H33620114   4.569   1.262   1.639  0.1676  1.1676 -0.2120
   30MOL   H33720115   4.448   1.407   1.499  2.3125  1.5991  0.4358
   30MOL   H33820116   4.648   1.223   1.152 -0.8304  0.1199 -1.1735
   30MOL   H33920117   4.724   1.038   1.299  2.4464  2.0684 -2.1702
   30MOL   H34020118   4.466   0.937   1.607  0.6017  0.6456  1.7902
   30MOL   H34120119   4.413   0.695   1.568 -0.8342 -1.2506 -0.0056
   30MOL   C34220120   4.176   1.418   1.069 -0.1666  0.2489 -0.5154
   30MOL   C34320121   4.283   1.450   1.153 -0.4215 -0.0057  0.5197
   30MOL   C34420122   4.411   1.398   1.129  0.3704 -0.4693 -0.9813
   30MOL   O34520123   4.501   1.433   1.231 -0.2060  0.0228  0.4293
   30MOL   C34620124   4.440   1.329   1.007  0.4741 -0.5022 -1.1846
   30MOL   C34720125   4.335   1.319   0.912  0.0933 -0.0244  1.0205
   30MOL   C34820126   4.202   1.369   0.944 -0.6358  0.1585 -0.0820
   30MOL   C34920127   4.091   1.341   0.848  0.3256 -0.7879  0.3656
   30MOL   O35020128   4.073   1.227   0.803  0.2247 -0.6544  0.5483
   30MOL   C35120129   3.999   1.454   0.806  0.5028  0.5258  0.1768
   30MOL   C35220130   3.874   1.428   0.746 -0.1141  0.1697 -0.3640
   30MOL   C35320131   3.798   1.543   0.714  0.7006  0.1474  0.5677
   30MOL   C35420132   3.836   1.672   0.744 -0.6019  0.2521 -0.3080
   30MOL   O35520133   3.752   1.772   0.716  0.4746  0.5796 -0.7713
   30MOL   C35620134   3.733   1.864   0.817  0.5479  0.0464  0.1929
   30MOL   C35720135   3.776   1.992   0.789  0.2177 -0.3095  0.1636
   30MOL   C35820136   3.758   2.090   0.886 -0.4556 -0.2847 -0.5145
   30MOL   C35920137   3.693   2.066   1.008  0.2792  0.5279 -0.4019
   30MOL   C36020138   3.655   1.940   1.034 -0.0660  0.5162  0.2307
   30MOL   C36120139   3.668   1.838   0.937  0.5393 -0.7759  0.6000
   30MOL   C36220140   3.958   1.698   0.802  0.7350 -0.0205  0.6385
   30MOL   C36320141   4.037   1.586   0.828  0.2447  0.3280  0.3305
   30MOL   H36420142   4.077   1.452   1.095 -0.0696 -0.3062  0.5948
   30MOL   H36520143   4.271   1.508   1.244  0.0087  1.5652 -0.4106
   30MOL   H36620144   4.538   1.291   0.981 -0.9710 -2.4928 -4.0625
   30MOL   H36720145   4.353   1.275   0.816  0.1905  1.6047  0.2737
   30MOL   H36820146   3.837   1.328   0.731 -2.1346  0.8090  0.1846
   30MOL   H36920147   3.700   1.530   0.671  1.0078 -0.7279  0.1281
   30MOL   H37020148   3.818   2.013   0.692  0.6463  0.3063  0.4811
   30MOL   H37120149   3.801   2.186   0.862 -0.5500 -0.0341  0.3145
   30MOL   H37220150   3.607   1.911   1.127 -1.0592  1.7733  0.1249
   30MOL   H37320151   3.623   1.741   0.956 -1.7906  0.1715  0.0742
   30MOL   H37420152   3.985   1.801   0.819 -0.3330  0.1514  1.3881
   30MOL   H37520153   4.133   1.601   0.875 -0.0193  1.4425  0.5388
   30MOL   C37620154   4.001   2.323   1.149 -0.0707  0.0006  0.0271
   30MOL   C37720155   3.901   2.223   1.137  0.0279  0.8646  0.3132
   30MOL   C37820156   3.768   2.261   1.112  0.0840  0.4566 -0.0598
   30MOL   O37920157   3.668   2.169   1.100  0.1893  1.0937  0.1761
   30MOL   C38020158   3.737   2.395   1.086 -0.1303 -0.0164 -0.2640
   30MOL   C38120159   3.832   2.494   1.107  0.2459 -0.0768  0.6537
   30MOL   C38220160   3.964   2.461   1.148 -0.1196 -0.2211  0.3338
   30MOL   C38320161   4.062   2.566   1.174  0.0074  0.7345  0.1535
   30MOL   O38420162   4.050   2.679   1.118 -0.0201 -0.3135  0.4340
   30MOL   C38520163   4.172   2.531   1.268  0.8189  0.1474 -0.4345
   30MOL   C38620164   4.307   2.548   1.240 -0.5093 -0.6956 -0.3337
   30MOL   C38720165   4.401   2.501   1.335 -0.0422  0.0572  0.2340
   30MOL   C38820166   4.365   2.436   1.454  0.8346 -0.0096 -0.9960
   30MOL   O38920167   4.465   2.397   1.539 -0.4840 -0.6380 -0.0514
   30MOL   C39020168   4.451   2.282   1.602  0.4065  0.9256  0.6141
   30MOL   C39120169   4.460   2.286   1.738 -0.7815  0.5266 -1.4855
   30MOL   C39220170   4.422   2.173   1.813  0.3856 -0.2528 -0.1507
   30MOL   C39320171   4.390   2.052   1.752  1.0853  0.3484 -0.3881
   30MOL   C39420172   4.398   2.046   1.610 -0.1148  0.4221 -0.0338
   30MOL   C39520173   4.420   2.160   1.532  0.2030 -0.5714  0.4304
   30MOL   C39620174   4.226   2.426   1.488 -0.1878  0.0694  0.3210
   30MOL   C39720175   4.135   2.466   1.390 -0.5029  0.3671 -0.2609
   30MOL   H39820176   4.104   2.301   1.174  0.5220  1.0702 -1.4289
   30MOL   H39920177   3.916   2.117   1.151  0.0557  0.9999  1.3311
   30MOL   H40020178   3.646   2.434   1.044  0.2362  0.1899 -0.8635
   30MOL   H40120179   3.804   2.599   1.103 -1.5729 -0.6273 -2.4293
   30MOL   H40220180   4.329   2.592   1.143 -2.7072  0.2653 -0.4431
   30MOL   H40320181   4.505   2.525   1.315  0.3089  0.2104  2.1480
   30MOL   H40420182   4.492   2.378   1.784 -2.2595  0.2011  0.2721
   30MOL   H40520183   4.420   2.185   1.920 -0.4095 -2.1845  0.0669
   30MOL   H40620184   4.388   1.951   1.561  2.5920  0.1124 -0.0302
   30MOL   H40720185   4.416   2.150   1.425 -0.3112  1.6594  0.2109
   30MOL   H40820186   4.189   2.378   1.577 -0.8622 -1.0070 -0.5309
   30MOL   H40920187   4.031   2.459   1.420 -0.4760  0.2425 -0.1955
   30MOL   C41020188   4.158   1.964   2.128  0.0520 -0.0196 -0.0958
   30MOL   C41120189   4.267   1.948   2.045  0.2366  0.2926 -0.5042
   30MOL   C41220190   4.251   1.949   1.905  0.2015  0.7993 -0.0822
   30MOL   O41320191   4.361   1.939   1.827 -0.1010 -0.0462  0.5269
   30MOL   C41420192   4.120   1.963   1.848  0.0584 -0.5256 -0.1298
   30MOL   C41520193   4.008   1.981   1.932  0.6069 -0.6765 -0.5178
   30MOL   C41620194   4.027   1.975   2.073  0.0428 -0.8984  0.5475
   30MOL   C41720195   3.906   2.000   2.150  0.1107  0.3445 -0.9017
   30MOL   O41820196   3.845   2.107   2.143  0.3007 -0.3857  0.0262
   30MOL   C41920197   3.854   1.886   2.233  0.0486  0.6194  0.5747
   30MOL   C42020198   3.744   1.904   2.319 -0.0242  0.0475  0.0016
   30MOL   C42120199   3.689   1.799   2.394 -0.7342 -0.0513 -0.1413
   30MOL   C42220200   3.745   1.671   2.370 -0.6047  0.2739  0.0123
   30MOL   O42320201   3.689   1.573   2.440 -0.0738  0.2038  0.4661
   30MOL   C42420202   3.638   1.457   2.386 -0.1479 -0.9205  0.7343
   30MOL   C42520203   3.508   1.468   2.336 -0.0346 -0.5952  0.2450
   30MOL   C42620204   3.450   1.354   2.284 -0.3008  0.8893 -0.1448
   30MOL   C42720205   3.525   1.233   2.283 -0.2781 -0.7487  0.1343
   30MOL   C42820206   3.656   1.227   2.334  0.6384  0.3335  0.6877
   30MOL   C42920207   3.716   1.341   2.395 -0.1337  0.3735  0.0189
   30MOL   C43020208   3.856   1.647   2.288  0.0534  0.2324  0.3541
   30MOL   C43120209   3.914   1.755   2.223  0.4220  0.0268 -0.5368
   30MOL   H43220210   4.192   1.965   2.231 -2.0502  0.5094  0.6026
   30MOL   H43320211   4.365   1.929   2.085 -0.4862  1.2390  1.7764
   30MOL   H43420212   4.111   1.994   1.744 -0.1803 -0.0936  0.0156
   30MOL   H43520213   3.907   1.993   1.895  0.6148 -1.1139 -0.6803
   30MOL   H43620214   3.695   1.999   2.330  0.6725  0.4571 -0.4467
   30MOL   H43720215   3.616   1.824   2.469 -0.0036 -1.5921  1.0987
   30MOL   H43820216   3.450   1.559   2.334 -4.5520 -3.3249  1.6149
   30MOL   H43920217   3.348   1.350   2.247  0.2658 -4.2340 -1.4732
   30MOL   H44020218   3.701   1.129   2.335  0.0153  0.0408  2.5019
   30MOL   H44120219   3.819   1.342   2.427 -0.7841  0.9778  2.1638
   30MOL   H44220220   3.900   1.551   2.269 -0.8146 -0.2443  0.7483
   30MOL   H44320221   4.003   1.729   2.168  1.5391  0.7256  0.8777
   30MOL   C44420222   3.449   0.862   2.498  0.4133 -0.8385 -0.2986
   30MOL   C44520223   3.497   0.935   2.389  0.1009 -0.1990  0.3644
   30MOL   C44620224   3.418   1.031   2.325 -0.6752  0.2589  0.4201
   30MOL   O44720225   3.471   1.116   2.230  0.2266 -0.4440  0.0020
   30MOL   C44820226   3.283   1.042   2.358 -0.4570  0.2538 -0.1233
   30MOL   C44920227   3.239   0.971   2.474  0.4847  0.0132  0.3153
   30MOL   C45020228   3.318   0.878   2.546 -0.6085  0.0691 -0.4265
   30MOL   C45120229   3.256   0.804   2.668 -0.8372 -0.5275  0.0664
   30MOL   O45220230   3.136   0.777   2.674 -0.2404 -0.8859  0.1666
   30MOL   C45320231   3.337   0.781   2.790  0.0048 -0.6887  0.7663
   30MOL   C45420232   3.309   0.674   2.880 -0.5270 -0.6241  0.0799
   30MOL   C45520233   3.386   0.659   2.997  0.4325 -0.5240  0.2979
   30MOL   C45620234   3.495   0.745   3.030  0.8675 -0.1735  0.2466
   30MOL   O45720235   3.592   0.725   3.119 -1.0607  0.1168  0.4207
   30MOL   C45820236   3.602   0.788   3.237  0.2982  0.3500 -0.1484
   30MOL   C45920237   3.707   0.877   3.253 -0.3113  0.5707  0.0102
   30MOL   C46020238   3.715   0.949   3.372  0.0400  0.0019 -0.1242
   30MOL   C46120239   3.619   0.934   3.477 -1.1888  0.2517 -0.1346
   30MOL   C46220240   3.516   0.845   3.455 -0.5573 -0.4368  0.2700
   30MOL   C46320241   3.508   0.768   3.339 -0.0166  0.0521  0.1544
   30MOL   C46420242   3.521   0.852   2.942 -0.5342  0.3537  0.1843
   30MOL   C46520243   3.444   0.869   2.824 -0.3699 -0.0553 -0.7145
   30MOL   H46620244   3.521   0.799   2.548  1.1429  0.2877  0.1121
   30MOL   H46720245   3.597   0.925   2.347  1.1553  2.6478  2.0915
   30MOL   H46820246   3.209   1.102   2.307  0.4862  0.2458 -1.5148
   30MOL   H46920247   3.134   0.988   2.493  0.5073 -0.2787  0.7054
   30MOL   H47020248   3.233   0.601   2.857  0.3488 -2.3518  2.4972
   30MOL   H47120249   3.383   0.571   3.059  0.6662  1.4912  3.2564
   30MOL   H47220250   3.784   0.901   3.182  0.7180 -2.8903 -0.1192
   30MOL   H47320251   3.796   1.017   3.396  0.4761 -0.7244  0.4958
   30MOL   H47420252   3.442   0.832   3.533  0.3517  1.1898  1.4257
   30MOL   H47520253   3.424   0.701   3.327 -1.3270  1.1635  2.6067
   30MOL   H47620254   3.585   0.932   2.976 -0.0038 -0.2445  0.6104
   30MOL   H47720255   3.463   0.960   2.768  0.8728 -0.0821 -0.3707
   30MOL   C47820256   3.591   0.809   3.922 -0.7535  0.2459  0.2169
   30MOL   C47920257   3.557   0.886   3.810  0.2905  0.5045 -0.1539
   30MOL   C48020258   3.657   0.915   3.712  0.3491 -0.1523  0.4105
   30MOL   O48120259   3.627   0.994   3.602 -0.3577  0.2811 -0.1533
   30MOL   C48220260   3.784   0.852   3.718 -0.3284 -0.0968 -0.1907
   30MOL   C48320261   3.814   0.773   3.830 -0.6304  0.3184 -0.3839
   30MOL   C48420262   3.722   0.752   3.932  0.0417 -0.2485 -0.3682
   30MOL   C48520263   3.754   0.686   4.059 -0.5915 -0.1492  0.2767
   30MOL   O48620264   3.662   0.632   4.125  0.2632  0.2621 -0.2895
   30MOL   C48720265   3.896   0.676   4.107 -0.0532 -0.4379  0.4741
   30MOL   C48820266   3.953   0.551   4.119 -0.6695  0.0012 -0.3525
   30MOL   C48920267   4.091   0.534   4.145  0.0612  0.3693  0.0528
   30MOL   C49020268   4.169   0.648   4.162 -0.2786 -0.4305  0.4819
   30MOL   O49120269   4.304   0.630   4.191 -0.0547  0.1563 -0.6133
   30MOL   C49220270   4.384   0.610   4.081  0.0898 -0.0465 -1.4538
   30MOL   C49320271   4.457   0.721   4.020 -0.1410 -0.1982  0.4453
   30MOL   C49420272   4.533   0.700   3.903  0.5358 -0.5843  0.6601
   30MOL   C49520273   4.558   0.569   3.866 -0.3986  0.4149  0.1419
   30MOL   C49620274   4.496   0.462   3.930  0.7251  0.2914  0.0693
   30MOL   C49720275   4.403   0.481   4.033  0.3236  0.1499  0.5832
   30MOL   C49820276   4.111   0.778   4.159 -0.1633 -0.4391 -0.3741
   30MOL   C49920277   3.973   0.793   4.124  0.2443 -0.2402 -0.4587
   30MOL   H50020278   3.520   0.810   4.003 -0.5290 -0.1597  0.4250
   30MOL   H50120279   3.461   0.933   3.799  1.1654  2.6794  1.1929
   30MOL   H50220280   3.862   0.863   3.644 -0.8859  4.4152 -0.2375
   30MOL   H50320281   3.905   0.715   3.843 -1.0756 -0.2354  0.3573
   30MOL   H50420282   3.885   0.467   4.111 -0.3027 -0.2811 -0.5548
   30MOL   H50520283   4.123   0.431   4.142 -0.2225  0.3220 -1.4727
   30MOL   H50620284   4.440   0.821   4.056 -1.2230 -0.5078  0.8253
   30MOL   H50720285   4.585   0.783   3.857 -0.8116 -0.1838 -0.1913
   30MOL   H50820286   4.522   0.359   3.908 -0.6766  0.1904 -1.1906
   30MOL   H50920287   4.365   0.387   4.069 -0.1569  0.4499  0.8599
   30MOL   H51020288   4.179   0.861   4.177  0.8973 -1.2977 -0.3452
   30MOL   H51120289   3.928   0.891   4.116 -0.0239 -0.2300  0.9704
   30MOL   C51220290   4.679   0.460   3.409  0.2576  0.1357  0.4493
   30MOL   C51320291   4.700   0.498   3.541 -0.3221  0.4429 -0.2899
   30MOL   C51420292   4.598   0.517   3.630  0.2009  0.0959 -0.7578
   30MOL   O51520293   4.638   0.552   3.758  0.3692 -0.3257 -0.1189
   30MOL   C51620294   4.461   0.502   3.592  0.4737 -1.0010 -0.2995
   30MOL   C51720295   4.436   0.458   3.462 -1.0521 -0.4044  0.7925
   30MOL   C51820296   4.545   0.440   3.369  0.3871 -0.8867  0.1244
   30MOL   C51920297   4.524   0.399   3.226 -0.7744 -0.2441 -0.0646
   30MOL   O52020298   4.445   0.468   3.159  0.0368  0.0067 -0.3511
   30MOL   C52120299   4.606   0.292   3.153  0.2473  0.1653  0.4671
   30MOL   C52220300   4.615   0.160   3.205 -0.3632 -0.1271 -0.3964
   30MOL   C52320301   4.695   0.056   3.134 -0.1835  0.4163 -0.2277
   30MOL   C52420302   4.754   0.092   3.012  0.2665  0.2373  0.5309
   30MOL   O52520303   4.821   8.309   2.944  0.3135  0.2134  0.2063
   30MOL   C52620304   4.913   8.224   3.016  0.1241 -0.1518  0.4773
   30MOL   C52720305   5.032   8.278   3.069 -0.5326  0.2475  0.4157
   30MOL   C52820306   5.126   8.188   3.131  0.2888 -0.2405  0.6102
   30MOL   C52920307   5.098   8.047   3.136 -0.6332  0.1839  0.3307
   30MOL   C53020308   4.985   7.995   3.076  0.3658  0.5111 -0.1745
   30MOL   C53120309   4.894   8.085   3.013  0.1377 -0.4398  0.1967
   30MOL   C53220310   4.737   0.218   2.956 -0.2323 -0.1636 -0.2712
   30MOL   C53320311   4.658   0.314   3.024 -0.3704 -0.0300  0.6648
   30MOL   H53420312   4.756   0.449   3.334  0.0175 -1.2884  0.3963
   30MOL   H53520313   4.802   0.527   3.563 -1.0868  2.4056  0.7667
   30MOL   H53620314   4.380   0.522   3.661  0.5664 -0.3792 -0.3684
   30MOL   H53720315   4.333   0.452   3.429 -1.3000 -1.5709  1.7352
   30MOL   H53820316   4.552   0.123   3.284  1.0194  0.5941  1.0708
   30MOL   H53920317   4.704   8.265   3.163  4.0591  0.9947  0.9651
   30MOL   H54020318   5.057   0.069   3.060 -1.2101  0.2425 -1.8457
   30MOL   H54120319   5.219   8.210   3.181  0.7252 -1.6919  0.4651
   30MOL   H54220320   4.968   7.889   3.077 -0.1540  0.5879 -0.6530
   30MOL   H54320321   4.806   8.037   2.971 -0.5900  1.0119  0.0462
   30MOL   H54420322   4.781   0.247   2.861 -1.5356  0.7360 -0.6063
   30MOL   H54520323   4.655   0.409   2.973 -0.0425 -0.8722 -0.9544
   30MOL   C54620324   5.158   7.607   3.240 -0.5696 -0.0345 -0.5397
   30MOL   C54720325   5.160   7.746   3.263  0.0470  0.4907 -0.4834
   30MOL   C54820326   5.211   7.836   3.171  0.6155  0.1424 -0.5382
   30MOL   O54920327   5.197   7.970   3.197 -0.5166 -0.9221  0.3404
   30MOL   C55020328   5.271   7.788   3.056  0.4828 -1.0706  0.3894
   30MOL   C55120329   5.274   7.651   3.031  0.2723  0.9488 -0.1693
   30MOL   C55220330   5.217   7.557   3.122  1.2527  0.7795  0.4850
   30MOL   C55320331   5.210   7.408   3.087  0.1198 -0.3043 -0.1066
   30MOL   O55420332   5.147   7.370   2.991 -0.1655 -0.3096 -0.1254
   30MOL   C55520333   5.318   7.324   3.157 -0.3340  0.5040  0.1485
   30MOL   C55620334   5.364   7.203   3.096 -0.0609  0.2281  0.2833
   30MOL   C55720335   5.469   7.124   3.156  0.4799 -0.4613  0.2466
   30MOL   C55820336   5.526   7.174   3.272  0.1601 -0.3310  0.2062
   30MOL   O55920337   5.631   7.102   3.328 -0.6408  0.0747  0.1374
   30MOL   C56020338   5.747   7.167   3.365 -0.4289 -1.1598 -0.2947
   30MOL   C56120339   5.793   7.141   3.497 -0.4340 -0.3461  0.6261
   30MOL   C56220340   5.916   7.192   3.535 -0.6130 -0.3791  0.6817
   30MOL   C56320341   5.990   7.276   3.455 -0.3458  0.6441  0.7702
   30MOL   C56420342   5.947   7.301   3.322  0.1900 -0.5147  1.0968
   30MOL   C56520343   5.823   7.247   3.277 -0.5227  0.3503  1.0707
   30MOL   C56620344   5.484   7.294   3.331 -0.8798 -0.0143  0.4433
   30MOL   C56720345   5.383   7.370   3.275 -1.0219 -0.2130  0.8290
   30MOL   H56820346   5.109   7.548   3.316 -1.5650  2.4042  0.7995
   30MOL   H56920347   5.104   7.780   3.349  2.1487  0.6185  0.8539
   30MOL   H57020348   5.313   7.849   2.977 -2.4452 -0.9445 -1.1524
   30MOL   H57120349   5.317   7.627   2.935  0.2724  0.7104 -0.1118
   30MOL   H57220350   5.320   7.180   3.000 -1.2540  1.9054  0.4222
   30MOL   H57320351   5.496   7.029   3.113 -0.4030  0.1090 -1.6467
   30MOL   H57420352   5.736   7.065   3.548  1.5720 -2.6126 -0.4161
   30MOL   H57520353   5.964   7.171   3.629  0.9316 -0.5975 -0.1524
   30MOL   H57620354   6.001   7.357   3.248 -1.0185 -1.2688 -0.3917
   30MOL   H57720355   5.778   7.266   3.180 -0.7759 -1.5195  0.7891
   30MOL   H57820356   5.545   7.327   3.414 -0.3225  2.4104 -0.8765
   30MOL   H57920357   5.350   7.457   3.331  1.4361  0.8357  0.6979
   30MOL   C58020358   6.178   7.672   3.398  0.1347  0.0143 -0.0593
   30MOL   C58120359   6.199   7.534   3.416  0.2972 -0.1181  0.6010
   30MOL   C58220360   6.112   7.467   3.506 -0.3117 -0.0398 -0.0434
   30MOL   O58320361   6.104   7.331   3.503 -0.2396  0.1031 -0.3468
   30MOL   C58420362   6.033   7.539   3.590  1.0140 -0.2089 -0.1421
   30MOL   C58520363   6.025   7.679   3.587 -0.2054 -0.0514  0.2459
   30MOL   C58620364   6.095   7.748   3.490 -0.0623 -0.3388  0.3227
   30MOL   C58720365   6.085   7.900   3.496 -0.4013 -0.2803 -0.7077
   30MOL   O58820366   5.996   7.952   3.556  0.1677 -0.6600  0.2257
   30MOL   C58920367   6.185   7.991   3.434 -0.0956 -0.0228 -0.9855
   30MOL   C59020368   6.145   8.115   3.377  0.1273 -0.1087 -0.1669
   30MOL   C59120369   6.243   8.188   3.305 -0.3194 -0.5019 -0.1346
   30MOL   C59220370   6.378   8.161   3.308 -0.2775  0.0028  0.1555
   30MOL   O59320371   6.463   8.242   3.239  0.1739 -0.8834  0.6022
   30MOL   C59420372   6.525   8.205   3.124 -0.3200 -0.0162 -0.8677
   30MOL   C59520373   6.607   8.299   3.064  0.1299 -0.5665 -0.4825
   30MOL   C59620374   6.690   8.267   2.955 -0.3024  0.0451 -0.0956
   30MOL   C59720375   6.695   8.138   2.903  0.7233  0.2077 -0.2654
   30MOL   C59820376   6.597   8.040   2.955  0.3274 -0.7573  0.0082
   30MOL   C59920377   6.518   8.079   3.063  0.1170 -0.4112 -0.7292
   30MOL   C60020378   6.419   8.048   3.381  0.2799  0.1746  0.7265
   30MOL   C60120379   6.324   7.959   3.430  0.5421 -0.8452 -0.4801
   30MOL   H60220380   6.230   7.723   3.319  1.9178  0.6634  1.4890
   30MOL   H60320381   6.253   7.481   3.339 -0.2821 -0.2397  0.2775
   30MOL   H60420382   5.964   7.500   3.664  1.2927  0.6997  0.6098
   30MOL   H60520383   5.962   7.729   3.659 -3.1055 -1.7712 -1.0422
   30MOL   H60620384   6.043   8.150   3.373  0.5159  1.1489  0.8471
   30MOL   H60720385   6.199   8.274   3.256 -0.6129 -2.2546 -3.0297
   30MOL   H60820386   6.615   0.086   3.105 -1.9678 -0.5966  0.0443
   30MOL   H60920387   6.757   0.031   2.919 -0.8539 -0.7701 -3.0152
   30MOL   H61020388   6.597   7.940   2.914  1.7639 -1.3205  1.3401
   30MOL   H61120389   6.444   8.010   3.099 -0.5434 -0.7248 -2.6458
   30MOL   H61220390   6.526   8.030   3.378  0.9668  4.0703  0.1455
   30MOL   H61320391   6.365   7.872   3.478  3.6070  1.5191  1.3505
   30MOL   C61420392   7.131   8.195   2.743  0.8754 -0.9630  0.0048
   30MOL   C61520393   7.001   8.157   2.737  0.2979 -0.1411 -0.1198
   30MOL   C61620394   6.921   8.127   2.849 -0.0467  0.3202  1.0527
   30MOL   O61720395   6.790   8.094   2.818  0.6311  1.1291 -0.0680
   30MOL   C61820396   6.985   8.135   2.976 -0.6389  1.4914  0.3888
   30MOL   C61920397   7.121   8.172   2.978  0.2855  0.6221  0.5115
   30MOL   C62020398   7.197   8.207   2.863  0.1956  0.6712 -0.4691
   30MOL   C62120399   7.336   8.262   2.876  0.2142 -0.1749 -0.0187
   30MOL   O62220400   7.359   0.031   2.968 -0.0906 -0.0109  0.6614
   30MOL   C62320401   7.432   8.225   2.761  0.2281  0.1059 -0.5293
   30MOL   C62420402   7.427   8.104   2.693  0.1966  0.5883  0.4288
   30MOL   C62520403   7.510   8.072   2.583 -0.9238 -0.0695  0.7730
   30MOL   C62620404   7.610   8.165   2.546 -0.0514 -0.0758 -0.2632
   30MOL   O62720405   7.685   8.140   2.430  0.1192 -0.0527  0.0181
   30MOL   C62820406   7.771   8.235   2.382 -0.4142 -0.4089  0.8767
   30MOL   C62920407   7.721   0.010   2.292  0.0843 -0.0250  0.1836
   30MOL   C63020408   7.800   0.107   2.229  0.0494 -0.2689  0.0699
   30MOL   C63120409   7.929   0.118   2.265 -0.4423  0.2034 -0.0270
   30MOL   C63220410   7.979   0.037   2.372  0.2734 -0.1238 -0.0017
   30MOL   C63320411   7.901   8.248   2.430 -0.2633 -0.2337  0.0323
   30MOL   C63420412   7.626   8.284   2.621 -0.1727 -0.4476 -0.5796
   30MOL   C63520413   7.538   8.310   2.731 -0.2912  0.6383 -0.2324
   30MOL   H63620414   7.179   8.217   2.649 -0.6466  2.0196 -0.1251
   30MOL   H63720415   6.955   8.147   2.640  0.3475 -0.5360 -0.1047
   30MOL   H63820416   6.946   8.105   3.072  1.4373  2.1972  1.4745
   30MOL   H63920417   7.169   8.185   3.074 -1.4737  0.0214  1.5094
   30MOL   H64020418   7.352   8.028   2.709  1.1377 -0.1715  1.2983
   30MOL   H64120419   7.505   7.977   2.532 -0.7610 -0.4796  1.5127
   30MOL   H64220420   7.614   8.311   2.282 -0.1501  1.0758  1.2588
   30MOL   H64320421   7.758   0.186   2.168  1.1095  0.6289  0.4849
   30MOL   H64420422   8.076   0.060   2.412  0.8220 -1.9041 -0.2417
   30MOL   H64520423   7.940   8.191   2.513 -2.7556 -1.8956  0.1065
   30MOL   H64620424   7.704   0.043   2.598  0.0649 -0.0348  1.4432
   30MOL   H64720425   7.545   0.088   2.788  0.6964 -1.1547  2.5729
   30MOL   C64820426   8.114   0.186   1.872 -0.0085 -0.0815 -0.3539
   30MOL   C64920427   8.097   0.161   2.010  0.2517  0.1355  0.2558
   30MOL   C65020428   8.020   0.251   2.089 -0.7305  0.5933 -0.1728
   30MOL   O65120429   8.000   0.227   2.226  0.3270 -0.3615  0.3864
   30MOL   C65220430   7.968   0.371   2.031 -0.0549  0.7102 -0.1054
   30MOL   C65320431   7.999   0.396   1.899 -0.2105  0.9106  0.3862
   30MOL   C65420432   8.070   0.303   1.818  0.3839 -0.3707 -0.3449
   30MOL   C65520433   8.090   0.329   1.674 -0.4950  0.1202  0.7770
   30MOL   O65620434   8.065   0.440   1.621 -0.1069 -0.2042  0.1477
   30MOL   C65720435   8.125   0.213   1.580  0.0906 -0.6823  0.2057
   30MOL   C65820436   8.217   0.242   1.473  0.4743  0.0179  0.0402
   30MOL   C65920437   8.266   0.130   1.398 -0.1716  0.2979 -0.2174
   30MOL   C66020438   8.214   8.310   1.408  0.7764 -0.5935 -0.3593
   30MOL   O66120439   8.249   8.204   1.315 -0.2496  0.4431 -0.3210
   30MOL   C66220440   0.068   8.159   1.316  0.0943  0.4293 -0.4719
   30MOL   C66320441   0.164   8.218   1.224  0.1516 -0.3704 -0.0119
   30MOL   C66420442   0.288   8.154   1.214 -0.7083 -0.5147  0.1036
   30MOL   C66520443   0.324   8.044   1.293  0.1168  0.2182  0.3079
   30MOL   C66620444   0.231   7.999   1.389 -0.1429 -0.0205 -0.6892
   30MOL   C66720445   0.104   8.046   1.397  0.1062 -0.0759  0.4004
   30MOL   C66820446   8.111   8.294   1.504  0.2512 -0.6982  0.6129
   30MOL   C66920447   8.073   0.085   1.594 -0.1204  0.3141 -0.6855
   30MOL   H67020448   8.182   0.123   1.817 -0.5059 -1.0537  0.1423
   30MOL   H67120449   8.129   0.069   2.056  0.9722 -0.6687 -1.8079
   30MOL   H67220450   7.908   0.439   2.090 -1.5958 -0.3447 -0.4347
   30MOL   H67320451   7.970   0.494   1.863 -1.5950 -0.4011 -2.2182
   30MOL   H67420452   8.261   0.340   1.457  0.3641  0.1677  0.6356
   30MOL   H67520453   0.023   0.142   1.316  0.1306  0.7173  0.1012
   30MOL   H67620454   0.127   8.294   1.157 -0.9195  0.3375  1.3699
   30MOL   H67720455   0.368   8.188   1.149  0.2556 -2.2940  0.3288
   30MOL   H67820456   0.245   7.909   1.447  0.4255  2.0897  2.5643
   30MOL   H67920457   0.034   8.004   1.468 -0.3214  1.8833  1.1599
   30MOL   H68020458   8.062   8.198   1.507 -1.0745 -0.0256  0.8621
   30MOL   H68120459   7.993   0.061   1.663 -0.2736 -1.2208 -1.3634
   30MOL   H68220460   0.419   7.995   1.278 -0.1305 -0.4951  1.0576
   31MOL     C120461   4.464   1.621   1.670  0.5680 -0.3495  0.6072
   31MOL     C220462   4.512   1.600   1.802  0.4547 -0.5233  0.2055
   31MOL     C320463   4.419   1.587   1.911  0.3090 -0.0661  0.5428
   31MOL     O420464   4.473   1.582   2.039 -0.0806  0.8784  0.8220
   31MOL     C520465   4.283   1.574   1.878 -0.4537 -0.1378  0.2047
   31MOL     C620466   4.240   1.587   1.747 -0.8027 -0.2031  0.4806
   31MOL     C720467   4.332   1.614   1.638 -0.0637 -0.2837 -0.3841
   31MOL     C820468   4.289   1.648   1.502 -0.6391 -0.1568 -0.5011
   31MOL     O920469   4.368   1.698   1.420 -0.3256 -0.7771 -0.3089
   31MOL    C1020470   4.151   1.591   1.453 -0.0863 -0.1173  0.6158
   31MOL    C1120471   4.072   1.671   1.367  0.2773  0.1856 -0.0660
   31MOL    C1220472   3.946   1.622   1.328 -0.5267  0.8382  0.5603
   31MOL    C1320473   3.900   1.496   1.374 -0.4974 -0.9333 -0.4716
   31MOL    O1420474   3.774   1.458   1.345  0.4621  0.0997  0.0171
   31MOL    C1520475   3.675   1.516   1.420 -0.5238  0.1388  0.0074
   31MOL    C1620476   3.664   1.482   1.561  0.1970  0.0996  0.4133
   31MOL    C1720477   3.557   1.540   1.636 -0.1442 -0.2734  0.0430
   31MOL    C1820478   3.470   1.647   1.586  0.1241  0.4221 -0.4734
   31MOL    C1920479   3.500   1.696   1.456  0.6281  0.6439 -0.1096
   31MOL    C2020480   3.599   1.630   1.372 -0.0438  0.9706  0.1894
   31MOL    C2120481   3.989   1.415   1.449 -0.0262 -0.3328  0.5005
   31MOL    C2220482   4.114   1.464   1.489  0.0443  0.2732 -0.8917
   31MOL    H2320483   4.535   1.643   1.592  0.1313  0.2662  0.3760
   31MOL    H2420484   4.619   1.607   1.814  0.7630 -0.1433 -2.5255
   31MOL    H2520485   4.202   1.554   1.946 -1.3241  0.6827 -0.5781
   31MOL    H2620486   4.137   1.571   1.719 -0.6186 -0.1635 -0.2409
   31MOL    H2720487   4.105   1.767   1.331  1.1510 -0.2108 -0.3623
   31MOL    H2820488   3.884   1.679   1.260  0.5329  0.3672 -0.8380
   31MOL    H2920489   3.732   1.408   1.599  0.6351  0.2859  0.0034
   31MOL    H3020490   3.545   1.498   1.735  1.3367 -1.5146 -0.2967
   31MOL    H3120491   3.436   1.775   1.420  0.1159  0.4676  0.3952
   31MOL    H3220492   3.621   1.686   1.283  1.5732  2.0691  1.2550
   31MOL    H3320493   3.955   1.316   1.478 -0.5769 -0.8569 -1.8089
   31MOL    H3420494   4.180   1.407   1.554  0.0898 -1.5458 -2.4766
   31MOL    H3520495   4.565   1.597   2.052  0.1618 -0.3415  0.6150
   31MOL    C3620496   3.056   1.515   1.628  0.1997 -0.3240 -0.3995
   31MOL    C3720497   3.172   1.591   1.599  0.5697  0.2064  0.3060
   31MOL    C3820498   3.263   1.626   1.696  0.6525 -0.4711 -0.1683
   31MOL    O3920499   3.376   1.705   1.669  0.3411  0.5262 -0.3640
   31MOL    C4020500   3.239   1.580   1.827 -0.5910  0.2075 -0.2000
   31MOL    C4120501   3.128   1.499   1.857 -0.0612 -0.4408  0.0899
   31MOL    C4220502   3.037   1.460   1.757  0.5242  0.1351 -0.1562
   31MOL    C4320503   2.927   1.358   1.776 -1.4039  0.3814 -0.8287
   31MOL    O4420504   2.825   1.361   1.712  0.3196 -0.1504  0.6951
   31MOL    C4520505   2.945   1.261   1.892  0.5011  0.3553 -0.0178
   31MOL    C4620506   2.829   1.211   1.960 -0.2705 -0.3006  0.6414
   31MOL    C4720507   2.846   1.126   2.074  0.0427  0.6817  0.4817
   31MOL    C4820508   2.974   1.081   2.118  0.7003 -0.1481 -0.6442
   31MOL    O4920509   2.989   1.008   2.232 -0.2422  0.2447 -0.1859
   31MOL    C5020510   2.912   1.042   2.346  0.0551  0.2382  0.0892
   31MOL    C5120511   2.837   0.943   2.409 -0.6716  0.9116 -0.6891
   31MOL    C5220512   2.752   0.982   2.515  0.3401  0.1225 -0.2200
   31MOL    C5320513   2.735   1.111   2.557 -0.3115  0.6502 -0.0140
   31MOL    C5420514   2.820   1.210   2.503 -0.7771 -0.3788 -0.0326
   31MOL    C5520515   2.905   1.175   2.392  0.0560 -0.0366  0.2565
   31MOL    C5620516   3.084   1.124   2.040 -0.0617  0.4152  0.6131
   31MOL    C5720517   3.070   1.212   1.931  1.1143  0.6231 -0.0885
   31MOL    H5820518   2.999   1.483   1.542 -3.1861  2.5572  0.6434
   31MOL    H5920519   3.177   1.631   1.499 -0.3775 -0.9979 -0.2338
   31MOL    H6020520   3.313   1.621   1.895  0.5830 -1.2443 -0.5583
   31MOL    H6120521   3.098   1.465   1.955 -1.5760  0.0284 -0.2063
   31MOL    H6220522   2.733   1.244   1.924  0.1660  0.2059 -0.0731
   31MOL    H6320523   2.761   1.076   2.118  1.8341 -1.6394  1.4101
   31MOL    H6420524   2.849   0.844   2.367 -0.4844  0.6747 -0.0860
   31MOL    H6520525   2.702   0.901   2.565  0.5760  0.6116  0.8201
   31MOL    H6620526   2.826   1.309   2.544 -0.8382 -0.6293  0.5888
   31MOL    H6720527   2.965   1.252   2.348 -0.4582 -0.1179 -0.5868
   31MOL    H6820528   3.185   1.095   2.065  0.3729  1.6690  0.3332
   31MOL    H6920529   3.157   1.248   1.878  0.7141 -0.1731 -1.3266
   31MOL    C7020530   2.443   0.898   2.831  0.0221  1.2380  0.0541
   31MOL    C7120531   2.495   0.992   2.739 -1.2098  0.1022  0.0532
   31MOL    C7220532   2.626   1.039   2.750  0.9322  0.1971 -0.4882
   31MOL    O7320533   2.663   1.143   2.672 -0.0576  0.3776 -0.8202
   31MOL    C7420534   2.710   0.992   2.851  0.4526  0.1255  0.7277
   31MOL    C7520535   2.647   0.916   2.955  0.0213  0.4685 -0.3452
   31MOL    C7620536   2.518   0.859   2.948  0.8185 -0.8923  0.0590
   31MOL    C7720537   2.452   0.774   3.055 -0.0798 -0.5107  0.4635
   31MOL    O7820538   2.338   0.721   3.041 -0.5812 -0.1126  0.4683
   31MOL    C7920539   2.525   0.761   3.179 -0.0665  0.4048  0.7352
   31MOL    C8020540   2.510   0.860   3.279  0.1006 -0.1543 -0.9449
   31MOL    C8120541   2.593   0.847   3.396 -0.1356  0.6429 -0.0144
   31MOL    C8220542   2.678   0.741   3.421 -0.7437  0.1198  0.4043
   31MOL    O8320543   2.750   0.724   3.529 -0.4406 -0.2489 -0.1855
   31MOL    C8420544   2.691   0.728   3.650 -0.3921  0.3675 -0.2899
   31MOL    C8520545   2.731   0.821   3.749  0.1518 -0.0097 -0.2202
   31MOL    C8620546   2.662   0.826   3.871 -0.5738 -0.2218 -0.5688
   31MOL    C8720547   2.553   0.738   3.903  0.1021  0.1272 -0.4457
   31MOL    C8820548   2.509   0.649   3.799 -0.3111  0.6791 -0.4241
   31MOL    C8920549   2.574   0.648   3.680 -0.1022 -0.1489  0.3723
   31MOL    C9020550   2.691   0.649   3.313 -0.5353  0.8065 -0.0679
   31MOL    C9120551   2.618   0.657   3.195 -1.4365  0.7058 -0.7384
   31MOL    H9220552   2.340   0.869   2.822  0.5577 -0.2464 -1.5905
   31MOL    H9320553   2.431   1.039   2.665  0.6429  3.1177  0.2631
   31MOL    H9420554   2.812   1.027   2.860  0.2708  0.7561  0.3802
   31MOL    H9520555   2.705   0.888   3.042 -3.8911  0.0856  2.2770
   31MOL    H9620556   2.447   0.946   3.264 -0.2928 -0.3683 -0.5371
   31MOL    H9720557   2.590   0.919   3.477  0.1796  0.6822 -0.0382
   31MOL    H9820558   2.816   0.889   3.743  0.1299 -0.1008 -2.0339
   31MOL    H9920559   2.692   0.897   3.947 -1.0741 -0.9931  0.3515
   31MOL   H10020560   2.424   0.583   3.813  0.2383  0.0998  0.2186
   31MOL   H10120561   2.544   0.581   3.601  2.2821 -3.1937  1.9443
   31MOL   H10220562   2.755   0.562   3.321  0.9301  1.8937  0.2635
   31MOL   H10320563   2.636   0.588   3.115 -0.1592  0.0993  0.0545
   31MOL   C10420564   2.130   0.659   4.052 -0.5197  0.2992 -0.7940
   31MOL   C10520565   2.271   0.645   4.055  0.2540  0.9747 -0.0477
   31MOL   C10620566   2.350   0.761   4.027 -0.0531  0.3577 -0.1893
   31MOL   O10720567   2.485   0.744   4.026 -0.5011  0.1540 -0.3210
   31MOL   C10820568   2.289   0.881   4.003  0.2836 -1.1500  0.1228
   31MOL   C10920569   2.152   0.894   4.004 -0.5079 -0.6449  0.4840
   31MOL   C11020570   2.067   0.783   4.028  1.1931  0.1333  0.3223
   31MOL   C11120571   1.921   0.792   4.034 -0.2138  0.2250 -0.4049
   31MOL   O11220572   1.864   0.866   4.115 -0.2291 -0.1218 -0.4003
   31MOL   C11320573   1.842   0.696   3.950  0.5677  0.3266  0.1087
   31MOL   C11420574   1.885   0.659   3.816 -0.1359  0.1107  0.3704
   31MOL   C11520575   1.793   0.599   3.730 -1.0201  0.3436  0.0445
   31MOL   C11620576   1.672   0.555   3.773  0.4377  0.0487  0.0297
   31MOL   O11720577   1.586   0.490   3.685 -0.8732 -0.0993 -0.1059
   31MOL   C11820578   1.475   0.560   3.632  0.2715  0.2317  0.2750
   31MOL   C11920579   1.466   0.701   3.634  0.0694 -0.7396 -0.3450
   31MOL   C12020580   1.358   0.769   3.585 -0.3076  0.0070  0.4681
   31MOL   C12120581   1.252   0.706   3.519  0.1336  0.2365 -0.0872
   31MOL   C12220582   1.255   0.559   3.522  0.6818 -0.4848 -0.3594
   31MOL   C12320583   1.369   0.492   3.572 -0.2380  0.8381  0.1749
   31MOL   C12420584   1.632   0.587   3.901 -0.2601  0.5831  0.8737
   31MOL   C12520585   1.712   0.656   3.991  0.2692  0.9476  0.7423
   31MOL   H12620586   2.067   0.572   4.064 -1.3704  1.1162  0.8123
   31MOL   H12720587   2.323   0.554   4.079 -0.8283  0.1161 -0.8703
   31MOL   H12820588   2.358   0.962   3.986  2.2107 -2.5361  1.0989
   31MOL   H12920589   2.111   0.993   3.992  1.1317  0.0630  0.6697
   31MOL   H13020590   1.982   0.683   3.776  0.9146 -3.2303  0.7994
   31MOL   H13120591   1.821   0.588   3.626 -1.7781 -0.6249 -0.0678
   31MOL   H13220592   1.546   0.759   3.678 -1.8782  4.4336 -3.1485
   31MOL   H13320593   1.351   0.877   3.589 -1.9040 -0.0569 -0.0701
   31MOL   H13420594   1.174   0.496   3.488  0.4038 -1.5113  2.1202
   31MOL   H13520595   1.362   0.385   3.557  0.3792  0.9481 -0.9126
   31MOL   H13620596   1.527   0.569   3.917 -0.8015  1.1356 -1.8390
   31MOL   H13720597   1.678   0.678   4.091 -1.6160 -1.3143  0.6207
   31MOL   C13820598   0.798   0.673   3.452  0.2606 -0.1530  0.0975
   31MOL   C13920599   0.937   0.695   3.420  0.3316  0.4099  0.1433
   31MOL   C14020600   1.026   0.759   3.504  0.3334  0.0657 -0.4559
   31MOL   O14120601   1.151   0.776   3.460  0.3202 -0.6567 -0.1111
   31MOL   C14220602   0.969   0.825   3.616  0.3062 -0.1611 -0.1381
   31MOL   C14320603   0.833   0.822   3.643  0.1823 -0.5827 -0.2504
   31MOL   C14420604   0.745   0.742   3.565 -0.5626 -0.1005  0.2134
   31MOL   C14520605   0.599   0.734   3.597  0.0437  0.3079  0.4699
   31MOL   O14620606   0.533   0.824   3.653 -0.1345  0.2026 -0.2198
   31MOL   C14720607   0.527   0.609   3.553  0.5158  0.1263  1.3471
   31MOL   C14820608   0.394   0.613   3.505  0.1981  0.0389 -0.2933
   31MOL   C14920609   0.324   0.494   3.475  0.5331 -0.1245  0.0589
   31MOL   C15020610   0.372   0.367   3.499  0.1029  0.1429 -0.3329
   31MOL   O15120611   0.297   0.256   3.477  0.1773  0.3736  0.3095
   31MOL   C15220612   0.355   0.151   3.416  0.1004  0.3294 -0.8446
   31MOL   C15320613   0.432   0.158   3.298  0.3200 -0.3823 -0.6009
   31MOL   C15420614   0.472   0.041   3.242  0.2426  0.0365  0.4288
   31MOL   C15520615   0.460   8.227   3.292  0.5450 -0.0353 -0.0341
   31MOL   C15620616   0.389   8.220   3.412 -0.1832  0.1750 -0.1149
   31MOL   C15720617   0.326   0.023   3.471 -0.2493 -0.2763  0.2043
   31MOL   C15820618   0.510   0.365   3.546 -0.5117  0.2718  0.1164
   31MOL   C15920619   0.583   0.480   3.573  0.6236 -0.1927  0.1388
   31MOL   H16020620   0.723   0.627   3.389 -1.3348  1.0116  1.1097
   31MOL   H16120621   0.978   0.641   3.336 -2.0232  0.1836 -0.9053
   31MOL   H16220622   1.047   0.872   3.674 -0.9767  1.0833  0.5861
   31MOL   H16320623   0.795   0.863   3.736 -1.4664 -0.0962 -1.1199
   31MOL   H16420624   0.339   0.706   3.498  0.4246  0.0728 -1.9293
   31MOL   H16520625   0.223   0.506   3.437  0.1061 -0.5709  1.0243
   31MOL   H16620626   0.448   0.258   3.261 -0.3157 -0.1343 -0.2316
   31MOL   H16720627   0.526   0.051   3.149  1.0518  1.4046  1.0393
   31MOL   H16820628   0.372   8.123   3.458 -0.8121  0.3690  0.0675
   31MOL   H16920629   0.264   0.016   3.559  1.4046 -1.4818  1.2968
   31MOL   H17020630   0.559   0.268   3.551  1.9799  1.4153 -1.0799
   31MOL   H17120631   0.681   0.465   3.616  0.3630 -0.2632  0.7084
   31MOL   C17220632   0.867   8.221   3.120 -0.3038  0.6857 -0.5535
   31MOL   C17320633   0.751   8.217   3.204  0.2955 -0.4814 -0.0007
   31MOL   C17420634   0.647   8.131   3.168  0.4059  0.9521 -0.0870
   31MOL   O17520635   0.517   8.117   3.229 -0.3686  0.0913 -0.3135
   31MOL   C17620636   0.666   8.035   3.062 -0.1125 -0.3963 -0.8432
   31MOL   C17720637   0.775   8.044   2.979 -0.4263  0.0066 -0.2493
   31MOL   C17820638   0.878   8.134   3.009 -0.6172  0.7073 -0.1808
   31MOL   C17920639   0.998   8.148   2.928  0.5824 -0.4865  0.6451
   31MOL   O18020640   1.071   8.056   2.895  0.2945 -0.1227  0.7781
   31MOL   C18120641   1.033   8.289   2.881 -0.4188 -0.0158  0.4016
   31MOL   C18220642   1.172   8.310   2.860 -0.1417 -0.6479  0.1400
   31MOL   C18320643   1.219   0.122   2.825 -0.4748 -0.0978  0.1187
   31MOL   C18420644   1.127   0.227   2.807 -0.2987 -0.5950  0.1375
   31MOL   O18520645   1.171   0.346   2.764 -0.6484 -0.7889 -0.1235
   31MOL   C18620646   1.245   0.354   2.649 -0.2979 -1.2020  0.3249
   31MOL   C18720647   1.376   0.412   2.652 -0.2246 -0.2912  0.1467
   31MOL   C18820648   1.444   0.426   2.535 -0.1051  0.3284  0.6418
   31MOL   C18920649   1.387   0.388   2.409 -0.1247  0.0688  0.4122
   31MOL   C19020650   1.262   0.322   2.410  0.5543 -0.2583 -0.3793
   31MOL   C19120651   1.188   0.303   2.529 -0.8454 -0.0620  0.0616
   31MOL   C19220652   0.987   0.208   2.819  0.1834  0.1127 -0.4811
   31MOL   C19320653   0.940   0.079   2.859 -0.2912  0.0714 -1.0221
   31MOL   H19420654   0.944   8.297   3.129  0.0555  0.1752  0.7485
   31MOL   H19520655   0.740   8.281   3.290  0.6742  0.0074 -0.3139
   31MOL   H19620656   0.598   7.954   3.040 -0.3691 -1.0334  2.1152
   31MOL   H19720657   0.790   7.967   2.904 -0.2182 -0.2547  0.0586
   31MOL   H19820658   1.242   8.228   2.869  0.2713 -0.1992  1.0630
   31MOL   H19920659   1.324   0.142   2.811  0.0973 -2.4392  0.7827
   31MOL   H20020660   1.406   0.436   2.754  0.5383  0.6726 -0.2847
   31MOL   H20120661   1.539   0.477   2.541 -0.1049  0.4968 -0.6331
   31MOL   H20220662   1.224   0.297   2.312 -0.4405  0.6497 -0.2366
   31MOL   H20320663   1.089   0.260   2.528  0.8681 -4.2329  0.3166
   31MOL   H20420664   0.925   0.295   2.803 -0.2785 -0.7682 -3.8982
   31MOL   H20520665   0.832   0.071   2.866 -0.2237  1.0523  1.4675
   31MOL   C20620666   1.663   0.123   2.246 -0.4905  0.0948 -0.0982
   31MOL   C20720667   1.558   0.207   2.286 -0.2773  0.8073 -0.6557
   31MOL   C20820668   1.546   0.338   2.244  0.6164  0.7588 -0.5441
   31MOL   O20920669   1.451   0.423   2.285 -0.0290 -0.5586 -0.5952
   31MOL   C21020670   1.639   0.388   2.154  0.4171  0.2141  0.0445
   31MOL   C21120671   1.743   0.306   2.103  0.6427  0.3719  0.0754
   31MOL   C21220672   1.757   0.170   2.157 -0.1818 -0.6484 -0.8403
   31MOL   C21320673   1.870   0.082   2.108 -0.2406  0.1878 -0.5331
   31MOL   O21420674   1.986   0.121   2.089  0.4061 -0.1977  0.3446
   31MOL   C21520675   1.840   8.254   2.079  0.0359  0.2127  0.4790
   31MOL   C21620676   1.942   8.157   2.089 -0.2053  0.6248 -0.1379
   31MOL   C21720677   1.916   8.025   2.047  0.0378  0.4262 -0.1735
   31MOL   C21820678   1.788   7.984   2.009 -0.0687  0.5194 -0.1909
   31MOL   O21920679   1.757   7.853   1.979 -0.1961  0.3658 -0.5726
   31MOL   C22020680   1.701   7.775   2.078 -0.7773  0.5698 -0.1537
   31MOL   C22120681   1.565   7.746   2.061  0.4966  0.0916  0.4842
   31MOL   C22220682   1.500   7.664   2.155 -0.8250 -0.0196  0.4661
   31MOL   C22320683   1.582   7.601   2.255  0.9576  0.8092 -0.2899
   31MOL   C22420684   1.718   7.638   2.275 -0.5408 -0.0293 -0.7017
   31MOL   C22520685   1.781   7.724   2.180 -0.4242  0.4019 -0.2779
   31MOL   C22620686   1.689   8.085   1.999  0.4116 -0.6151  0.0365
   31MOL   C22720687   1.714   8.219   2.032  0.5135 -0.2408 -0.2045
   31MOL   H22820688   1.669   0.021   2.284  1.7966  0.8613  1.7151
   31MOL   H22920689   1.481   0.165   2.349  0.9271 -0.9902 -0.3339
   31MOL   H23020690   1.628   0.490   2.121 -0.0029  0.2884  0.4031
   31MOL   H23120691   1.813   0.334   2.025 -1.2194 -0.3098 -1.8698
   31MOL   H23220692   2.039   8.184   2.130  0.3779  0.5208 -1.4254
   31MOL   H23320693   1.998   7.955   2.055  1.1390  1.3858 -2.5527
   31MOL   H23420694   1.505   7.754   1.972 -0.7004  2.3493  1.4290
   31MOL   H23520695   1.404   7.627   2.123 -0.7693  1.3955 -1.4341
   31MOL   H23620696   1.780   7.594   2.351 -2.1652 -1.8806 -0.4068
   31MOL   H23720697   1.882   7.759   2.195 -0.4442  0.0770  0.6670
   31MOL   H23820698   1.587   8.062   1.972  0.7242  0.7145 -2.4098
   31MOL   H23920699   1.638   8.295   2.032  0.4531 -0.2540  2.6690
   31MOL   C24020700   1.520   7.139   2.395  0.3585  0.4583 -0.3662
   31MOL   C24120701   1.503   7.280   2.397  0.6164  1.0357  0.6446
   31MOL   C24220702   1.566   7.375   2.318 -0.2963  0.0739  0.5827
   31MOL   O24320703   1.530   7.512   2.339  0.4410 -0.2841  0.2884
   31MOL   C24420704   1.660   7.323   2.227  0.0791  0.4458  0.2128
   31MOL   C24520705   1.684   7.183   2.224  0.0444 -0.4482 -0.0063
   31MOL   C24620706   1.611   7.090   2.304 -0.1465 -0.6136  0.1784
   31MOL   C24720707   1.632   6.947   2.281  0.2136  0.1182  0.1227
   31MOL   O24820708   1.732   6.905   2.232  0.3788 -0.4404 -0.3624
   31MOL   C24920709   1.524   6.850   2.314 -0.2134 -0.5623 -0.3069
   31MOL   C25020710   1.388   6.869   2.275 -0.4351 -0.2946 -0.8880
   31MOL   C25120711   1.291   6.771   2.299  0.2735  0.5057 -0.3881
   31MOL   C25220712   1.330   6.647   2.352 -0.1928 -0.0497  0.2403
   31MOL   O25320713   1.236   6.545   2.363  0.4607  0.1390 -0.5052
   31MOL   C25420714   1.190   6.491   2.246 -0.3443  0.4209 -0.0455
   31MOL   C25520715   1.056   6.459   2.237  0.4657  0.1429 -0.1409
   31MOL   C25620716   0.996   6.404   2.122 -0.7884 -0.8077 -0.1987
   31MOL   C25720717   1.077   6.395   2.004  0.3494  0.1322  0.7080
   31MOL   C25820718   1.220   6.424   2.007  0.3072  0.3466  0.0401
   31MOL   C25920719   1.274   6.467   2.131  0.4448  0.0748  0.6012
   31MOL   C26020720   1.463   6.632   2.392 -0.2741  0.2207 -0.4071
   31MOL   C26120721   1.559   6.729   2.363 -0.6417  0.1086  0.3439
   31MOL   H26220722   1.464   7.074   2.459  2.8235  0.6545  2.0956
   31MOL   H26320723   1.435   7.319   2.472 -1.3445  1.2582 -1.1983
   31MOL   H26420724   1.717   7.386   2.160 -1.2566  1.5375  0.0988
   31MOL   H26520725   1.766   7.142   2.167 -0.0240  0.0907 -0.4900
   31MOL   H26620726   1.359   6.971   2.251 -0.2275  0.5963  2.4044
   31MOL   H26720727   1.186   6.784   2.276 -0.3325  0.3195  2.0458
   31MOL   H26820728   0.988   6.477   2.319 -0.0294  2.6899 -1.0563
   31MOL   H26920729   0.889   6.387   2.121 -1.2340  1.6470  0.5831
   31MOL   H27020730   1.291   6.411   1.927 -0.8012 -1.1947 -0.7159
   31MOL   H27120731   1.379   6.492   2.138  0.8999 -1.3423 -0.8442
   31MOL   H27220732   1.487   6.538   2.440 -0.0503  1.7823  2.7031
   31MOL   H27320733   1.661   6.711   2.395 -1.0116  0.0776  1.5575
   31MOL   C27420734   1.125   6.018   1.805  0.3332  0.0751 -0.4824
   31MOL   C27520735   1.130   6.158   1.827 -0.2812 -0.0883  0.3562
   31MOL   C27620736   1.013   6.229   1.863 -0.2817  0.0944 -0.0168
   31MOL   O27720737   1.021   6.359   1.880 -0.6484  0.1808 -0.4671
   31MOL   C27820738   0.887   6.161   1.861  0.0733 -0.0328 -0.4336
   31MOL   C27920739   0.882   6.021   1.840  0.1062 -0.0444  0.4097
   31MOL   C28020740   0.999   5.954   1.812  0.8994  0.4836 -0.3185
   31MOL   C28120741   1.001   5.805   1.797  0.8719  0.1300  0.5504
   31MOL   O28220742   0.955   5.752   1.694  0.1987 -0.3793 -0.2411
   31MOL   C28320743   1.076   5.727   1.899  0.3001 -0.1700 -0.0185
   31MOL   C28420744   1.127   5.790   2.016  1.0040  0.2904 -0.2942
   31MOL   C28520745   1.183   5.708   2.120  0.3466 -0.1911 -0.7913
   31MOL   C28620746   1.208   5.570   2.099  0.2691  0.4306  0.4455
   31MOL   O28720747   1.270   5.494   2.194 -0.7846 -0.1430  0.1900
   31MOL   C28820748   1.213   5.472   2.318  0.2789 -0.2284 -0.0611
   31MOL   C28920749   1.231   5.561   2.427  0.3429 -0.0928 -0.3028
   31MOL   C29020750   1.176   5.522   2.555  0.2576  0.0792 -0.0706
   31MOL   C29120751   1.080   5.414   2.563 -0.4229  0.0673  0.4243
   31MOL   C29220752   1.055   5.330   2.452 -0.1188  0.8282  0.0295
   31MOL   C29320753   1.123   5.366   2.335 -0.2487 -0.0442 -0.5329
   31MOL   C29420754   1.159   5.513   1.978 -0.4320 -0.1704 -0.4863
   31MOL   C29520755   1.095   5.590   1.883 -0.5293 -0.0859 -0.0303
   31MOL   H29620756   1.220   5.971   1.787  0.7691  0.4141  0.8791
   31MOL   H29720757   1.227   6.203   1.838 -0.1142 -1.0450  3.0425
   31MOL   H29820758   0.794   6.212   1.881 -0.1071  0.1733 -1.7173
   31MOL   H29920759   0.788   5.969   1.854 -0.1872  0.9640  2.3745
   31MOL   H30020760   1.114   5.896   2.034  0.8403  0.6209 -2.1903
   31MOL   H30120761   1.216   5.762   2.207 -1.2701 -0.9080  0.2980
   31MOL   H30220762   1.298   5.645   2.421  0.6590 -0.2106  1.3660
   31MOL   H30320763   1.197   5.594   2.633 -2.3104  0.4711  0.2933
   31MOL   H30420764   0.987   5.247   2.450  0.2003  0.5633  0.1657
   31MOL   H30520765   1.104   5.300   2.251  2.5135 -1.7780  0.1253
   31MOL   H30620766   1.186   5.410   1.959  1.9774  0.4184 -0.3123
   31MOL   H30720767   1.068   5.547   1.788  0.3262  0.5521 -0.5690
   31MOL   C30820768   0.640   5.391   2.635 -0.3554 -0.4282  0.1697
   31MOL   C30920769   0.769   5.341   2.650  0.4890  0.5307  0.5960
   31MOL   C31020770   0.875   5.428   2.688  0.0748  0.6600 -0.8778
   31MOL   O31120771   1.010   5.389   2.681  0.1607  0.3580 -0.2274
   31MOL   C31220772   0.851   5.561   2.718  0.3668 -0.0200  1.0546
   31MOL   C31320773   0.720   5.609   2.704 -0.3284  0.6912 -0.2030
   31MOL   C31420774   0.612   5.526   2.667 -0.7809  0.2728  0.1726
   31MOL   C31520775   0.471   5.582   2.656  0.2085  0.5581  0.2092
   31MOL   O31620776   0.446   5.689   2.604 -0.1529  0.0424 -0.0230
   31MOL   C31720777   0.359   5.495   2.713 -0.1784  0.1572  0.2286
   31MOL   C31820778   0.242   5.491   2.636  0.4450 -0.2207 -0.1571
   31MOL   C31920779   0.131   5.424   2.697 -0.2849 -0.2120  0.3073
   31MOL   C32020780   0.143   5.364   2.820 -0.6042  0.1547 -0.6779
   31MOL   O32120781   0.033   5.288   2.869  0.5018 -0.4793  0.7906
   31MOL   C32220782   8.300   5.307   2.996  1.0608 -0.2233 -0.0551
   31MOL   C32320783   8.243   5.438   3.033 -0.2723 -0.4722  0.3430
   31MOL   C32420784   8.202   5.462   3.163 -0.1514 -1.2301 -0.4071
   31MOL   C32520785   8.225   5.367   3.264 -0.3920 -0.0886 -0.1672
   31MOL   C32620786   8.288   5.248   3.232  0.0360 -0.4423  0.1841
   31MOL   C32720787   0.014   5.216   3.097  0.2619 -0.4809  0.5223
   31MOL   C32820788   0.265   5.363   2.891  0.2375  0.4312  0.1949
   31MOL   C32920789   0.371   5.430   2.834  0.2422 -0.1170  0.2130
   31MOL   H33020790   0.552   5.333   2.615 -1.0711 -0.2522  2.6471
   31MOL   H33120791   0.789   5.237   2.629  0.7540  0.7340 -0.1915
   31MOL   H33220792   0.930   5.631   2.739 -1.0478  2.2961 -0.9754
   31MOL   H33320793   0.694   5.709   2.735  0.8870  0.4042  1.8700
   31MOL   H33420794   0.223   5.532   2.538  0.5902 -2.1801 -1.0331
   31MOL   H33520795   0.040   5.427   2.638  1.4155 -0.9037 -2.4576
   31MOL   H33620796   8.228   5.520   2.964  0.2478  0.8005  1.7077
   31MOL   H33720797   8.153   5.555   3.189  0.9511 -1.1163  1.3811
   31MOL   H33820798   8.310   5.186   3.318 -1.2784 -0.8945  0.1941
   31MOL   H33920799   0.067   5.125   3.069  0.2591 -0.5211  0.6447
   31MOL   H34020800   0.275   5.320   2.990 -1.3048  0.6087  0.4436
   31MOL   H34120801   0.452   5.447   2.904  1.2786 -1.9362 -0.5257
   31MOL   C34220802   8.288   5.419   3.732 -0.3273  0.4116  0.3721
   31MOL   C34320803   8.206   5.425   3.621 -0.0676 -0.1280 -0.5657
   31MOL   C34420804   8.263   5.407   3.495  0.2320 -0.6917 -0.8406
   31MOL   O34520805   8.176   5.385   3.392  0.2861  0.3183 -0.2840
   31MOL   C34620806   0.089   5.411   3.481  0.3346 -0.2224  0.5030
   31MOL   C34720807   0.173   5.415   3.595 -0.0467  0.3032 -0.8517
   31MOL   C34820808   0.113   5.410   3.723  0.0548 -0.2796 -0.2918
   31MOL   C34920809   0.197   5.394   3.846  0.5734 -0.0882 -0.3729
   31MOL   O35020810   0.160   5.452   3.952 -0.5822  0.0168  0.1344
   31MOL   C35120811   0.322   5.313   3.847  0.2944  0.3413 -0.3648
   31MOL   C35220812   0.337   5.193   3.775  0.2697  0.3059  0.2846
   31MOL   C35320813   0.457   5.113   3.790  1.0131 -0.0448  0.1628
   31MOL   C35420814   0.555   5.146   3.884 -0.5636  0.0272 -0.2341
   31MOL   O35520815   0.651   5.050   3.922 -0.1055  0.1312  0.3548
   31MOL   C35620816   0.694   5.044   4.048 -0.6242  0.4007 -0.3750
   31MOL   C35720817   0.812   5.110   4.084  0.5959 -0.1613  0.4148
   31MOL   C35820818   0.869   5.087   4.210  0.7357 -0.8885 -0.0510
   31MOL   C35920819   0.805   5.000   4.302  0.6407 -0.5477  0.2639
   31MOL   C36020820   0.684   4.937   4.270  0.4544 -0.8287  0.2918
   31MOL   C36120821   0.634   4.954   4.137  0.4884 -0.3947  0.3347
   31MOL   C36220822   0.546   5.274   3.943  0.8926  0.3363  0.9206
   31MOL   C36320823   0.432   5.361   3.918 -0.3665  0.2160 -0.3041
   31MOL   H36420824   8.253   5.418   3.834 -1.7824  0.7471 -0.1088
   31MOL   H36520825   8.098   5.437   3.623  0.2533  3.2716 -1.2292
   31MOL   H36620826   0.128   5.403   3.381 -3.5491  0.9464 -1.1943
   31MOL   H36720827   0.281   5.411   3.584  0.1561 -0.0002  1.0400
   31MOL   H36820828   0.255   5.155   3.716 -0.9733 -0.1821  2.2846
   31MOL   H36920829   0.462   5.021   3.733 -0.8327  1.0587 -1.8937
   31MOL   H37020830   0.869   5.173   4.017  1.6208 -1.2609  0.2334
   31MOL   H37120831   0.964   5.133   4.236  0.9576 -0.5514 -1.4136
   31MOL   H37220832   0.645   4.866   4.342 -1.0679 -0.0955  0.1992
   31MOL   H37320833   0.546   4.900   4.107 -0.1074  0.4223  0.5845
   31MOL   H37420834   0.623   5.298   4.015 -0.2168  1.7284  1.6666
   31MOL   H37520835   0.425   5.464   3.950 -2.1898  0.3399 -1.0288
   31MOL   C37620836   1.173   4.821   4.548 -0.4938  0.7135 -0.7612
   31MOL   C37720837   1.057   4.896   4.534 -0.3839 -0.3885 -1.1119
   31MOL   C37820838   0.981   4.900   4.418 -0.5646  0.2367 -0.0069
   31MOL   O37920839   0.869   4.972   4.422  0.0489 -0.0989  0.5150
   31MOL   C38020840   1.020   4.813   4.311 -0.1040 -0.4999 -0.4161
   31MOL   C38120841   1.136   4.733   4.323 -0.4092 -0.1653 -0.0996
   31MOL   C38220842   1.217   4.736   4.441  0.2095  0.6410  0.2244
   31MOL   C38320843   1.343   4.652   4.437 -0.7834 -0.3556  0.0674
   31MOL   O38420844   1.400   4.610   4.332 -0.0973  0.4385  0.0906
   31MOL   C38520845   1.407   4.620   4.567 -0.0176  0.0275 -0.2294
   31MOL   C38620846   1.338   4.587   4.682  0.2163 -0.0969  0.9303
   31MOL   C38720847   1.410   4.540   4.795 -0.0600 -0.3259 -0.1416
   31MOL   C38820848   1.551   4.519   4.786 -0.2551 -0.6285 -0.7109
   31MOL   O38920849   1.611   4.446   4.886 -0.6919 -0.4061 -0.1392
   31MOL   C39020850   1.750   4.454   4.913 -1.0915 -0.1834  0.1006
   31MOL   C39120851   1.792   4.541   5.015 -0.2163  0.8810  0.2064
   31MOL   C39220852   1.930   4.559   5.035  0.1763  0.4846 -0.0324
   31MOL   C39320853   2.019   4.491   4.953  0.4676  0.0731 -0.2547
   31MOL   C39420854   1.973   4.404   4.849 -0.1802  0.4095  0.4161
   31MOL   C39520855   1.838   4.394   4.827 -0.5839  0.4409  0.1958
   31MOL   C39620856   1.622   4.569   4.673  0.1449 -0.4385 -0.0289
   31MOL   C39720857   1.549   4.611   4.568 -0.3113  0.0788 -0.0147
   31MOL   H39820858   1.231   4.840   4.637 -0.4173  1.1030 -0.8936
   31MOL   H39920859   1.027   4.958   4.617 -1.2557 -1.4977 -0.5826
   31MOL   H40020860   0.960   4.810   4.221 -1.0292  0.8771  0.1492
   31MOL   H40120861   1.169   4.676   4.237  0.5869  0.2129  0.0278
   31MOL   H40220862   1.230   4.599   4.684  0.4027  2.0870 -0.2201
   31MOL   H40320863   1.362   4.514   4.888 -1.5391  0.1483 -0.7652
   31MOL   H40420864   1.718   4.593   5.075  0.6092  2.6408 -0.2528
   31MOL   H40520865   1.963   4.622   5.117  2.3754 -0.9174  0.2054
   31MOL   H40620866   2.037   4.353   4.778  0.7955  0.9252  0.9109
   31MOL   H40720867   1.800   4.345   4.739 -0.1044  0.8836 -0.2600
   31MOL   H40820868   1.729   4.562   4.662 -0.0626 -1.9386 -1.2975
   31MOL   H40920869   1.610   4.629   4.480  1.6358  1.0050  1.4787
   31MOL   C41020870   2.305   4.845   4.929  0.0789  0.3124  0.3048
   31MOL   C41120871   2.248   4.724   4.985 -0.2861  0.5524 -0.2952
   31MOL   C41220872   2.212   4.614   4.909 -0.0745  0.5929  0.5248
   31MOL   O41320873   2.155   4.504   4.966  0.1294  0.6706  0.2463
   31MOL   C41420874   2.233   4.617   4.771  0.5790 -0.1970 -0.2291
   31MOL   C41520875   2.284   4.738   4.714 -0.2240 -0.5451 -0.0645
   31MOL   C41620876   2.330   4.848   4.792  0.4862 -0.1109  0.1872
   31MOL   C41720877   2.372   4.975   4.734  0.0748 -0.1986  0.4349
   31MOL   O41820878   2.328   5.078   4.781  0.2202 -0.1497 -0.0168
   31MOL   C41920879   2.461   4.967   4.609 -0.5905 -0.3351  0.0186
   31MOL   C42020880   2.541   4.859   4.570 -0.7410 -0.3457  0.1221
   31MOL   C42120881   2.633   4.872   4.460  0.1579  0.1555  0.6882
   31MOL   C42220882   2.631   4.985   4.378 -0.5646 -0.8240 -0.0090
   31MOL   O42320883   2.702   5.006   4.263 -0.1171  0.6157 -0.2470
   31MOL   C42420884   2.780   4.908   4.210  0.2444  0.5146  0.0479
   31MOL   C42520885   2.915   4.896   4.257 -0.3348 -0.7512  0.2731
   31MOL   C42620886   2.998   4.810   4.185 -0.2959  0.2605 -0.6929
   31MOL   C42720887   2.952   4.722   4.086 -0.6825 -0.0231 -0.3474
   31MOL   C42820888   2.819   4.731   4.047  0.0122  0.2274 -0.2280
   31MOL   C42920889   2.732   4.821   4.110 -0.3261  0.5236 -0.3431
   31MOL   C43020890   2.545   5.087   4.412 -0.3069 -0.3313  0.2013
   31MOL   C43120891   2.460   5.080   4.523  0.8154 -0.1169  0.6400
   31MOL   H43220892   2.333   4.922   5.000  0.7821 -1.3161  1.8329
   31MOL   H43320893   2.230   4.714   5.091  1.8349  2.8249  0.3323
   31MOL   H43420894   2.210   4.538   4.702  3.1353 -0.4735 -0.8361
   31MOL   H43520895   2.297   4.741   4.607 -0.0783  0.2742 -0.0240
   31MOL   H43620896   2.549   4.768   4.627  0.5737 -0.7272 -0.6408
   31MOL   H43720897   2.694   4.783   4.455 -0.5687 -0.2486 -1.3284
   31MOL   H43820898   2.952   4.960   4.336 -2.5847  0.5791  0.2621
   31MOL   H43920899   3.102   4.815   4.214 -0.7164 -2.2164  1.4226
   31MOL   H44020900   2.792   4.665   3.966  0.2599 -1.0244  0.7041
   31MOL   H44120901   2.636   4.837   4.064  0.2887 -0.1359 -1.8924
   31MOL   H44220902   2.543   5.178   4.354  0.3132 -0.6949 -0.3872
   31MOL   H44320903   2.383   5.149   4.553 -0.8757 -0.9194 -1.7109
   31MOL   C44420904   3.180   4.306   3.986  0.1777 -0.5608  0.1840
   31MOL   C44520905   3.163   4.447   3.977  0.8872  0.6939 -0.4061
   31MOL   C44620906   3.042   4.509   4.010 -0.2174 -0.1191 -0.0462
   31MOL   O44720907   3.034   4.646   4.002  0.0766 -0.2924 -0.7568
   31MOL   C44820908   2.935   4.424   4.063 -0.0093 -0.5490 -0.1043
   31MOL   C44920909   2.952   4.286   4.070 -0.1583  0.3452 -0.4282
   31MOL   C45020910   3.074   4.229   4.028 -0.1726 -0.4469  0.3865
   31MOL   C45120911   3.103   4.082   4.047  0.0470 -0.8183  0.2282
   31MOL   O45220912   3.102   4.034   4.158 -0.1605 -0.2501  0.1904
   31MOL   C45320913   3.145   4.004   3.927  0.1466 -0.0307 -0.4245
   31MOL   C45420914   3.097   4.046   3.796 -0.7179  0.5912  0.0282
   31MOL   C45520915   3.149   3.968   3.688  0.4814 -0.4063  0.1324
   31MOL   C45620916   3.237   3.865   3.708  0.7709  0.3933 -0.4815
   31MOL   O45720917   3.276   3.813   3.592 -0.3564  0.6084  0.0588
   31MOL   C45820918   3.239   3.685   3.547  0.0316 -0.0518  0.6523
   31MOL   C45920919   3.325   3.608   3.456  0.2279 -1.0368  0.3943
   31MOL   C46020920   3.292   3.492   3.393  0.1883 -0.1089  0.1883
   31MOL   C46120921   3.164   3.443   3.408 -0.0347 -0.6124 -0.0552
   31MOL   C46220922   3.076   3.516   3.479  0.3916  0.4403  0.2445
   31MOL   C46320923   3.107   3.635   3.550 -0.1906  1.0897 -0.6799
   31MOL   C46420924   3.281   3.819   3.830 -0.9964  0.0323 -0.5436
   31MOL   C46520925   3.226   3.888   3.944  0.4262 -0.4223 -0.5319
   31MOL   H46620926   3.274   4.264   3.954  0.3988 -0.7036  1.0012
   31MOL   H46720927   3.243   4.501   3.929  1.5821  0.0066 -0.0281
   31MOL   H46820928   2.845   4.469   4.104 -0.4442 -1.2016 -0.3444
   31MOL   H46920929   2.881   4.224   4.123  2.0806 -0.0751  2.2031
   31MOL   H47020930   3.031   4.130   3.785 -0.1734  0.5935 -3.6374
   31MOL   H47120931   3.114   3.999   3.591 -3.2346 -0.9057  1.2300
   31MOL   H47220932   3.430   3.633   3.453  0.1571 -0.8480 -1.0066
   31MOL   H47320933   3.368   3.430   3.347  0.7307  0.7129 -0.0223
   31MOL   H47420934   2.975   3.481   3.492 -0.2358  1.1865 -2.3682
   31MOL   H47520935   3.024   3.675   3.605  0.0201  1.8690 -0.9214
   31MOL   H47620936   3.348   3.734   3.837 -0.8621  0.2950  1.8576
   31MOL   H47720937   3.258   3.858   4.043  0.8005 -2.5139 -1.2706
   31MOL   C47820938   3.253   3.028   3.493  0.2848  0.1308 -0.0541
   31MOL   C47920939   3.186   3.150   3.474  0.1953 -0.0238 -0.1744
   31MOL   C48020940   3.199   3.220   3.353 -0.2810 -0.4393  0.3511
   31MOL   O48120941   3.116   3.330   3.338  0.0823 -0.0686  0.1166
   31MOL   C48220942   3.273   3.178   3.248 -0.2749 -0.4501 -0.0679
   31MOL   C48320943   3.340   3.050   3.268 -0.8071  0.0520 -0.7483
   31MOL   C48420944   3.332   2.972   3.388  0.9968  0.1309  0.0205
   31MOL   C48520945   3.389   2.835   3.392  0.0349 -0.1100  0.2916
   31MOL   O48620946   3.391   2.770   3.289 -0.2229  0.6067  0.1086
   31MOL   C48720947   3.456   2.800   3.516  0.6456  0.2298  0.0331
   31MOL   C48820948   3.524   2.894   3.594  0.6513  0.7237  0.0115
   31MOL   C48920949   3.586   2.863   3.713 -0.0842 -0.2620  1.2992
   31MOL   C49020950   3.575   2.733   3.756  1.6266 -0.0840 -0.1285
   31MOL   O49120951   3.630   2.700   3.876 -0.4314  0.8317 -0.0927
   31MOL   C49220952   3.583   2.764   3.988  0.4133  0.2468  0.3312
   31MOL   C49320953   3.668   2.854   4.057 -0.2803 -0.7619 -0.6146
   31MOL   C49420954   3.618   2.944   4.154 -1.0237  0.5984  0.4438
   31MOL   C49520955   3.490   2.914   4.203  0.1495  0.3570  0.1221
   31MOL   C49620956   3.408   2.818   4.139 -0.3200  0.3233  0.2462
   31MOL   C49720957   3.450   2.747   4.029 -0.1024  0.1424 -0.2689
   31MOL   C49820958   3.505   2.633   3.685  0.3328 -0.0787  0.1025
   31MOL   C49920959   3.457   2.666   3.561 -0.5195  0.1698 -0.4116
   31MOL   H50020960   3.240   2.971   3.583 -2.5913 -0.0992 -0.5592
   31MOL   H50120961   3.122   3.192   3.550  0.1019 -1.2846  0.4604
   31MOL   H50220962   3.280   3.239   3.160 -0.7482 -1.7044 -1.0025
   31MOL   H50320963   3.388   3.008   3.181 -2.5535 -1.9779 -0.7826
   31MOL   H50420964   3.524   2.996   3.559 -2.0184  0.4153 -0.9252
   31MOL   H50520965   3.651   2.928   3.770  1.3204 -0.1167 -0.3974
   31MOL   H50620966   3.770   2.870   4.027 -0.3067 -1.6010 -1.1957
   31MOL   H50720967   3.682   3.023   4.190 -0.1599  0.9536 -1.7830
   31MOL   H50820968   3.310   2.796   4.179  0.3690 -1.5435  0.9693
   31MOL   H50920969   3.383   2.676   3.983  0.1007 -1.2866  1.5775
   31MOL   H51020970   3.495   2.530   3.716  1.4374 -0.2542 -0.1274
   31MOL   H51120971   3.411   2.586   3.504  0.9547  1.2327 -3.2058
   31MOL   C51220972   3.369   2.973   4.669 -0.3414  0.2904 -0.0675
   31MOL   C51320973   3.362   3.002   4.530 -0.6278 -0.4457  0.3724
   31MOL   C51420974   3.458   2.964   4.436 -0.2948  1.0746  0.0404
   31MOL   O51520975   3.437   2.991   4.302  0.0272 -0.0561 -0.4435
   31MOL   C51620976   3.575   2.890   4.484 -0.1356 -0.3482  0.0411
   31MOL   C51720977   3.584   2.868   4.623 -0.2215 -0.3586 -0.0076
   31MOL   C51820978   3.489   2.904   4.716  1.1084 -0.3407 -0.4450
   31MOL   C51920979   3.516   2.869   4.857 -0.1109  0.2118 -0.7235
   31MOL   O52020980   3.561   2.758   4.887  0.3263 -0.4825  0.4171
   31MOL   C52120981   3.489   2.965   4.964  0.5285  0.2591 -0.1722
   31MOL   C52220982   3.435   2.918   5.085  0.2471  0.3316 -0.0480
   31MOL   C52320983   3.414   3.012   5.190 -0.1520 -0.2932 -0.1820
   31MOL   C52420984   3.444   3.150   5.174 -0.3126  0.3849 -0.2532
   31MOL   O52520985   3.445   3.235   5.287 -0.3672  0.3080 -0.3766
   31MOL   C52620986   3.325   3.292   5.336  0.2403 -0.0055  0.1407
   31MOL   C52720987   3.279   3.243   5.458  0.8836 -0.4531 -0.7996
   31MOL   C52820988   3.163   3.296   5.509 -0.9378  0.7199 -0.1838
   31MOL   C52920989   3.087   3.396   5.436 -0.3915  0.8797  1.0168
   31MOL   C53020990   3.135   3.442   5.307  0.4473  0.0164  0.0861
   31MOL   C53120991   3.254   3.389   5.256  0.4100 -0.2665 -0.1241
   31MOL   C53220992   3.490   3.194   5.045  0.2431 -0.2215 -0.6570
   31MOL   C53320993   3.516   3.101   4.944 -0.0959  0.1624 -0.1690
   31MOL   H53420994   3.298   3.012   4.741  0.9397  1.8770  0.3660
   31MOL   H53520995   3.273   3.046   4.487 -0.6954 -0.9495 -0.0048
   31MOL   H53620996   3.644   2.856   4.409  0.5465  0.9997  0.0484
   31MOL   H53720997   3.679   2.823   4.648  0.5814 -0.1456 -2.5353
   31MOL   H53820998   3.408   2.814   5.095  0.2340  0.2530 -0.8450
   31MOL   H53920999   3.378   2.996   5.291  1.0821  1.3343  0.5454
   31MOL   H54021000   3.346   3.175   5.508  1.5869  1.6434  1.1967
   31MOL   H54121001   3.139   3.269   5.611  1.4951 -0.4740  0.1157
   31MOL   H54221002   3.080   3.513   5.247 -0.5882 -1.1237 -0.3467
   31MOL   H54321003   3.296   3.431   5.166  0.2858  0.4717  0.1618
   31MOL   H54421004   3.520   3.296   5.029  1.6036 -0.5628 -0.3503
   31MOL   H54521005   3.549   3.142   4.850 -0.8222  2.1205  0.3963
   31MOL   C54621006   2.875   3.798   5.421 -0.3237 -0.0022 -0.6698
   31MOL   C54721007   2.949   3.691   5.474 -1.2346  0.2323  0.1308
   31MOL   C54821008   2.903   3.557   5.459 -0.1014 -0.5114 -0.3992
   31MOL   O54921009   2.967   3.445   5.496 -0.4669 -0.0431  0.1581
   31MOL   C55021010   2.779   3.540   5.397 -0.3047  0.4689  0.0360
   31MOL   C55121011   2.703   3.648   5.352  0.4153 -0.6236 -0.5633
   31MOL   C55221012   2.754   3.782   5.354  0.6449  0.4478 -0.0414
   31MOL   C55321013   2.684   3.891   5.284 -0.6944 -0.8415  0.0272
   31MOL   O55421014   2.597   3.863   5.199 -0.2263 -0.2887  0.0754
   31MOL   C55521015   2.719   4.031   5.317 -0.1055 -0.0143  0.0359
   31MOL   C55621016   2.718   4.124   5.209  0.4384 -0.0969 -0.3948
   31MOL   C55721017   2.735   4.262   5.232 -0.0778 -0.0806 -0.1885
   31MOL   C55821018   2.737   4.310   5.367 -0.7328  0.3093 -0.9120
   31MOL   O55921019   2.747   4.444   5.387  0.1620  0.4479  0.5623
   31MOL   C56021020   2.650   4.506   5.459 -0.0624  0.0704  0.2330
   31MOL   C56121021   2.534   4.550   5.388  0.5442 -0.4994 -0.0049
   31MOL   C56221022   2.427   4.612   5.450 -0.5494  0.1626 -0.4191
   31MOL   C56321023   2.430   4.628   5.587 -0.0518 -0.8804  0.4035
   31MOL   C56421024   2.547   4.599   5.662  0.6731 -0.3494 -0.0188
   31MOL   C56521025   2.653   4.536   5.597 -0.5281 -0.0896  0.5765
   31MOL   C56621026   2.739   4.222   5.477 -0.6392 -0.0798 -0.4802
   31MOL   C56721027   2.734   4.083   5.451 -0.2531  0.1777  0.4365
   31MOL   H56821028   2.920   3.895   5.412 -2.3241  0.9414 -0.7603
   31MOL   H56921029   3.046   3.709   5.518 -0.5239 -1.0964 -0.8605
   31MOL   H57021030   2.743   3.440   5.376  3.2827 -0.9505  0.2923
   31MOL   H57121031   2.604   3.635   5.311  0.7250 -1.7094 -0.9655
   31MOL   H57221032   2.701   4.080   5.112  1.5169  1.3041 -1.2385
   31MOL   H57321033   2.722   4.327   5.147 -4.5147  0.6598  0.9270
   31MOL   H57421034   2.519   4.518   5.286  0.1211  0.9289 -0.4051
   31MOL   H57521035   2.343   4.641   5.388  0.6217  0.8855 -1.6989
   31MOL   H57621036   2.541   4.608   5.769 -3.1914  1.5123 -0.2982
   31MOL   H57721037   2.742   4.514   5.654 -1.1071 -0.5363  1.3101
   31MOL   H57821038   2.734   4.254   5.580  1.3067 -0.1034 -0.3537
   31MOL   H57921039   2.736   4.007   5.528 -1.5222  2.0380  2.3663
   31MOL   C58021040   2.232   4.924   5.890 -0.6457 -0.3386  0.4751
   31MOL   C58121041   2.254   4.799   5.839 -0.1673 -0.2779 -0.7742
   31MOL   C58221042   2.311   4.793   5.706 -0.4142 -0.1027  0.2324
   31MOL   O58321043   2.319   4.666   5.650 -0.3853  0.1203  0.1578
   31MOL   C58421044   2.342   4.911   5.635 -0.4657  0.5864 -0.3900
   31MOL   C58521045   2.318   5.038   5.691  0.0181 -0.4339  0.4568
   31MOL   C58621046   2.263   5.047   5.822 -0.0914  0.1933  0.3577
   31MOL   C58721047   2.234   5.178   5.885  0.5868 -0.4377 -0.2810
   31MOL   O58821048   2.267   5.197   6.001  0.1358  0.6850 -0.2476
   31MOL   C58921049   2.162   5.275   5.805  0.3108 -0.6438 -0.3963
   31MOL   C59021050   2.053   5.237   5.722 -0.3679  0.4493  0.3009
   31MOL   C59121051   1.971   5.335   5.670  0.5902 -0.3698 -0.0967
   31MOL   C59221052   1.991   5.475   5.694 -0.1155 -0.2616  0.0736
   31MOL   O59321053   1.904   5.573   5.649 -0.0889 -0.2129  0.8865
   31MOL   C59421054   1.868   5.582   5.513  0.1711  0.1643 -0.1083
   31MOL   C59521055   1.945   5.531   5.402 -0.1807 -0.0790 -0.2343
   31MOL   C59621056   1.899   5.541   5.271 -0.3243  0.0600  0.3587
   31MOL   C59721057   1.778   5.610   5.245  0.0977  0.2566  0.4055
   31MOL   C59821058   1.704   5.652   5.354  0.4824  1.0940  0.2947
   31MOL   C59921059   1.751   5.654   5.487  0.7057 -0.1774  0.0482
   31MOL   C60021060   2.105   5.512   5.773 -0.1520  0.3055 -0.3192
   31MOL   C60121061   2.184   5.412   5.832 -0.2885  0.4692  0.5583
   31MOL   H60221062   2.178   4.927   5.984 -0.2631  0.2188  0.6783
   31MOL   H60321063   2.228   4.710   5.894 -1.4153 -0.4556 -1.6238
   31MOL   H60421064   2.367   4.922   5.530 -1.2030 -2.6659 -0.9667
   31MOL   H60521065   2.331   5.129   5.635  0.6349 -0.8190 -0.0385
   31MOL   H60621066   2.025   5.133   5.720  0.7516  0.1592 -1.6181
   31MOL   H60721067   1.882   5.300   5.621  0.6216 -1.2767  0.4835
   31MOL   H60821068   2.032   5.472   5.426  0.0630  1.0849  1.8496
   31MOL   H60921069   1.963   5.505   5.192  1.4531  3.5433  0.0937
   31MOL   H61021070   1.609   5.698   5.330 -1.4796 -2.1968  1.4268
   31MOL   H61121071   1.688   5.693   5.566  1.3332 -2.2620  1.6449
   31MOL   H61221072   2.123   5.616   5.793  0.3347  0.7343 -2.8320
   31MOL   H61321073   2.263   5.440   5.899  0.3330 -0.3985  0.1884
   31MOL   C61421074   1.761   5.423   4.828  0.1962  0.1195  0.3605
   31MOL   C61521075   1.707   5.485   4.947 -0.2486 -0.0259  0.0806
   31MOL   C61621076   1.770   5.589   5.009 -0.0584  0.1280 -0.1201
   31MOL   O61721077   1.714   5.637   5.126 -0.6644  0.2196 -0.3038
   31MOL   C61821078   1.889   5.640   4.950 -0.3991  0.3211 -0.2700
   31MOL   C61921079   1.946   5.582   4.832  0.2900  0.2362 -0.0283
   31MOL   C62021080   1.880   5.469   4.769  0.3344 -0.1507  0.0298
   31MOL   C62121081   1.932   5.392   4.656  0.2294 -0.0784  1.0095
   31MOL   O62221082   1.889   5.279   4.631 -0.1429 -0.3957  0.0610
   31MOL   C62321083   2.035   5.459   4.565  0.0280  0.2374 -0.0973
   31MOL   C62421084   2.158   5.392   4.529  0.1190 -0.0018  0.1039
   31MOL   C62521085   2.247   5.454   4.440 -0.4166  0.2810  0.5846
   31MOL   C62621086   2.218   5.575   4.378 -0.2739 -0.6426  0.2168
   31MOL   O62721087   2.314   5.628   4.288  0.3142  0.0495 -0.6986
   31MOL   C62821088   2.300   5.646   4.149  0.1812 -0.3353  0.3235
   31MOL   C62921089   2.399   5.717   4.080 -0.3140  0.6966  0.2996
   31MOL   C63021090   2.389   5.731   3.937  0.9603 -0.0000 -0.1178
   31MOL   C63121091   2.269   5.687   3.873  0.0089  0.2411  0.3084
   31MOL   C63221092   2.171   5.616   3.941 -0.4068  0.0492  0.2114
   31MOL   C63321093   2.182   5.589   4.083 -1.4436 -0.2028  0.2383
   31MOL   C63421094   2.098   5.647   4.406 -0.0052  0.8380  0.3834
   31MOL   C63521095   2.010   5.590   4.506 -0.5450  0.5599  0.0530
   31MOL   H63621096   1.700   5.350   4.777 -1.2279  0.8025  1.0461
   31MOL   H63721097   1.615   5.442   4.984 -0.6306  0.8971  0.2123
   31MOL   H63821098   1.930   5.722   5.007 -2.0002  0.6086  0.4971
   31MOL   H63921099   2.034   5.612   4.778  1.8653 -1.7830  1.3458
   31MOL   H64021100   2.195   5.301   4.575  1.3913  0.5840  0.2545
   31MOL   H64121101   2.348   5.420   4.424 -0.7004 -0.1346 -0.3277
   31MOL   H64221102   2.480   5.761   4.136  1.3502 -0.8048 -0.8754
   31MOL   H64321103   2.474   5.778   3.892  0.0038 -0.0551 -2.0403
   31MOL   H64421104   2.089   5.577   3.882 -1.1265 -1.0850  1.9251
   31MOL   H64521105   2.118   5.518   4.132 -0.1288 -0.9531  0.8946
   31MOL   H64621106   2.081   5.746   4.365 -1.6974 -0.1234 -1.2646
   31MOL   H64721107   1.919   5.646   4.522  0.3294  1.6559  1.3128
   31MOL   C64821108   1.957   5.895   3.576  0.3849  0.2986  0.0531
   31MOL   C64921109   2.053   5.796   3.609 -0.0647 -0.4806  0.4581
   31MOL   C65021110   2.151   5.823   3.706 -0.0854  0.0987 -0.4801
   31MOL   O65121111   2.244   5.722   3.741 -0.0597 -0.0150  0.2685
   31MOL   C65221112   2.156   5.946   3.774  0.3952 -0.9260  0.0647
   31MOL   C65321113   2.069   6.053   3.730 -0.2277  0.3403  0.0060
   31MOL   C65421114   1.974   6.023   3.630  0.3528  0.2671  0.5681
   31MOL   C65521115   1.884   6.137   3.575  0.8256  1.5457 -1.4362
   31MOL   O65621116   1.896   6.177   3.458 -0.2238 -0.1688 -0.0918
   31MOL   C65721117   1.772   6.191   3.657 -0.3428 -0.5830 -0.2164
   31MOL   C65821118   1.770   6.181   3.797 -0.3023  0.2185 -0.4780
   31MOL   C65921119   1.669   6.236   3.871 -0.6272  0.0725  0.1018
   31MOL   C66021120   1.573   6.323   3.815  0.0832  0.1367  0.5700
   31MOL   O66121121   1.469   6.382   3.890 -0.3337  0.5609  0.0744
   31MOL   C66221122   1.336   6.329   3.881 -0.8453  0.4561  0.3827
   31MOL   C66321123   1.228   6.395   3.941  0.1477 -0.8203 -0.0866
   31MOL   C66421124   1.096   6.344   3.921 -0.4795  0.1668  0.4306
   31MOL   C66521125   1.075   6.217   3.867  0.2726 -0.6333  0.0140
   31MOL   C66621126   1.180   6.151   3.807 -0.2592 -0.2098  0.0000
   31MOL   C66721127   1.311   6.211   3.812 -0.2141  0.4773 -0.7370
   31MOL   C66821128   1.575   6.342   3.671  0.8215  0.6359  0.2439
   31MOL   C66921129   1.672   6.272   3.599  0.2148 -0.7699  0.0694
   31MOL   H67021130   1.877   5.877   3.506  0.3913 -2.0684  0.6294
   31MOL   H67121131   2.058   5.709   3.545  0.3948 -0.2011  0.1083
   31MOL   H67221132   2.221   5.969   3.857  0.5547  0.3244 -0.4045
   31MOL   H67321133   2.079   6.147   3.783  0.3134 -0.0192  0.5417
   31MOL   H67421134   1.842   6.127   3.856 -1.8529 -1.3724 -0.0087
   31MOL   H67521135   1.677   6.232   3.979  0.8568  1.2391  0.0576
   31MOL   H67621136   1.243   6.486   3.998 -2.6589 -0.4181  0.1235
   31MOL   H67721137   1.013   6.391   3.972  0.4606 -0.4945  2.6682
   31MOL   H67821138   1.167   6.056   3.759 -0.5531 -0.8372  1.2929
   31MOL   H67921139   1.386   6.156   3.758  1.3429  0.2602  1.6075
   31MOL   H68021140   1.498   6.406   3.630  0.1293  0.3262  1.0458
   31MOL   H68121141   1.663   6.275   3.491 -0.3676  1.5205  0.1497
   31MOL   H68221142   0.978   6.170   3.863  1.1811 -2.5710  0.2888
   32MOL     C121143   0.906   5.749   4.662 -0.4291 -0.3692  0.4507
   32MOL     C221144   1.031   5.747   4.609  0.8044  0.0945  0.6413
   32MOL     C321145   1.134   5.798   4.692 -0.6315  0.4081  0.4296
   32MOL     O421146   1.262   5.810   4.635  0.0889 -0.5947 -0.6774
   32MOL     C521147   1.111   5.835   4.823  0.7760  0.7808 -0.0638
   32MOL     C621148   0.981   5.848   4.870  0.2119 -0.3464 -0.2424
   32MOL     C721149   0.875   5.805   4.791  0.0587  0.2894  0.0849
   32MOL     C821150   0.732   5.802   4.833  0.2327 -0.4242  0.4812
   32MOL     O921151   0.643   5.821   4.752 -0.3278 -0.1635 -0.2530
   32MOL    C1021152   0.700   5.791   4.976  0.5623  0.1786 -0.6006
   32MOL    C1121153   0.578   5.855   5.014  0.2751  0.1696  0.0238
   32MOL    C1221154   0.532   5.861   5.141  0.3510 -0.3414 -0.1531
   32MOL    C1321155   0.601   5.792   5.241 -0.3029 -0.6732 -0.2005
   32MOL    O1421156   0.552   5.768   5.367  0.1083  0.4564  0.5865
   32MOL    C1521157   0.425   5.712   5.375  0.5184 -0.0633 -0.0304
   32MOL    C1621158   0.403   5.573   5.347 -0.8753  0.2610 -0.0619
   32MOL    C1721159   0.273   5.522   5.336 -0.1000  0.0102  0.0114
   32MOL    C1821160   0.163   5.608   5.367  0.0515 -0.4885 -0.0739
   32MOL    C1921161   0.189   5.744   5.396 -0.6564 -0.2777  0.2420
   32MOL    C2021162   0.319   5.794   5.407  0.1011 -0.4203 -0.3574
   32MOL    C2121163   0.725   5.730   5.211  0.1711 -0.5382  0.1571
   32MOL    C2221164   0.773   5.724   5.076  0.4981  0.0457 -0.3272
   32MOL    H2321165   0.834   5.688   4.609 -2.5309  2.0112  0.4655
   32MOL    H2421166   1.045   5.702   4.511 -0.4521 -0.8035  0.8587
   32MOL    H2521167   1.192   5.873   4.884  1.5816  2.1985 -1.9710
   32MOL    H2621168   0.966   5.888   4.970  0.9146  1.5803 -0.8833
   32MOL    H2721169   0.526   5.912   4.938  1.6857  0.7263 -0.5280
   32MOL    H2821170   0.443   5.917   5.160 -0.2891 -1.4184  0.0886
   32MOL    H2921171   0.488   5.508   5.331 -2.4858 -1.3139 -2.5493
   32MOL    H3021172   0.257   5.418   5.313 -1.6565  0.2491 -0.0338
   32MOL    H3121173   0.104   5.810   5.407 -0.8222 -0.4805  0.1680
   32MOL    H3221174   0.347   5.899   5.411  0.8401 -0.6048 -0.6431
   32MOL    H3321175   0.778   5.685   5.293 -1.7381  0.2227  1.8353
   32MOL    H3421176   0.864   5.672   5.051  1.6430  2.0493 -0.4460
   32MOL    H3521177   1.328   5.837   4.698 -1.2506 -1.1820  1.0332
   32MOL    C3621178   8.134   5.598   5.655  0.4756 -0.8468  0.0408
   32MOL    C3721179   8.198   5.632   5.534  0.4687  0.1404 -0.4939
   32MOL    C3821180   8.293   5.538   5.484 -0.0413 -0.0352 -0.5227
   32MOL    O3921181   0.037   5.562   5.363  0.0067 -0.0925 -0.1165
   32MOL    C4021182   0.016   5.423   5.555 -0.0086 -0.3990  0.6096
   32MOL    C4121183   8.261   5.388   5.676 -0.1180  0.5081  0.4685
   32MOL    C4221184   8.162   5.477   5.724  0.0207  0.5409 -0.6215
   32MOL    C4321185   8.091   5.451   5.851 -0.8750  0.8482 -0.7843
   32MOL    O4421186   8.099   5.520   5.955 -0.2080  0.4674 -0.0265
   32MOL    C4521187   7.999   5.333   5.846 -1.0104  0.0458  0.2471
   32MOL    C4621188   7.899   5.319   5.744 -0.9289  0.7204 -0.4170
   32MOL    C4721189   7.807   5.208   5.742 -0.4500 -0.0354 -1.3618
   32MOL    C4821190   7.808   5.113   5.843 -0.3085  0.3941 -0.6751
   32MOL    O4921191   7.728   4.999   5.838  0.5012 -0.2022  0.1934
   32MOL    C5021192   7.788   4.890   5.777  0.5340 -0.3494  0.5106
   32MOL    C5121193   7.846   4.899   5.650 -0.3211 -0.0123  0.1791
   32MOL    C5221194   7.891   4.784   5.578  0.2223 -0.1856 -0.0728
   32MOL    C5321195   7.882   4.657   5.640 -0.1497 -0.7382 -0.6691
   32MOL    C5421196   7.827   4.649   5.772 -0.2494  0.3307 -0.5853
   32MOL    C5521197   7.788   4.763   5.839  0.0182 -0.7653 -0.5428
   32MOL    C5621198   7.900   5.131   5.948 -0.6858 -0.8691  0.9938
   32MOL    C5721199   7.996   5.239   5.947 -0.6035  0.8022  0.2035
   32MOL    H5821200   8.055   5.665   5.685  0.0055 -1.3669 -0.0061
   32MOL    H5921201   8.168   5.728   5.493 -3.0625 -0.5451  0.2982
   32MOL    H6021202   0.098   5.367   5.512 -3.0639 -2.2280 -3.0798
   32MOL    H6121203   8.284   5.294   5.724  0.0082 -0.0446 -0.6508
   32MOL    H6221204   7.891   5.390   5.664 -0.4882  0.2001 -0.9228
   32MOL    H6321205   7.747   5.193   5.653 -2.2220 -1.1730 -0.0306
   32MOL    H6421206   7.841   4.992   5.595  0.3587  0.2675  0.5823
   32MOL    H6521207   7.928   4.782   5.477  1.3589 -0.7383  0.3372
   32MOL    H6621208   7.835   4.554   5.823  1.8704  0.0225 -1.4668
   32MOL    H6721209   7.743   4.748   5.936 -0.6626 -0.9822 -0.8914
   32MOL    H6821210   7.886   5.067   6.034 -1.9150 -2.5207 -0.3880
   32MOL    H6921211   8.064   5.253   6.030  0.3698 -1.4217 -0.1675
   32MOL    C7021212   7.615   4.435   5.397 -0.8438  0.9385 -0.0150
   32MOL    C7121213   7.729   4.512   5.437  0.6000  0.3145  0.0685
   32MOL    C7221214   7.830   4.462   5.528 -0.2941 -0.0180  0.1898
   32MOL    O7321215   7.922   4.540   5.582 -0.3345  0.6303  0.2957
   32MOL    C7421216   7.834   4.325   5.554  0.0084 -0.1802 -0.4248
   32MOL    C7521217   7.727   4.248   5.510 -1.1086 -0.1431  0.2426
   32MOL    C7621218   7.620   4.299   5.430 -0.0785 -0.2744  0.7442
   32MOL    C7721219   7.518   4.216   5.367  0.5501 -0.7571  0.2188
   32MOL    O7821220   7.473   4.245   5.258 -0.0394  0.3909 -0.0167
   32MOL    C7921221   7.476   4.095   5.441  0.5873 -0.0614 -0.2998
   32MOL    C8021222   7.460   4.104   5.584  0.3154 -0.2444  0.5280
   32MOL    C8121223   7.410   3.985   5.648  0.5041  0.3379 -0.0857
   32MOL    C8221224   7.378   3.870   5.577 -0.2548  0.7466 -0.3122
   32MOL    O8321225   7.333   3.761   5.637  0.3196  0.5302  0.0322
   32MOL    C8421226   7.410   3.650   5.647  0.6938 -1.3032 -0.1379
   32MOL    C8521227   7.397   3.551   5.551  0.3076 -0.4457 -0.0269
   32MOL    C8621228   7.484   3.447   5.566 -0.4180 -0.0196 -0.1630
   32MOL    C8721229   7.585   3.444   5.669 -0.3373 -0.0138  0.8436
   32MOL    C8821230   7.594   3.548   5.756  0.3929  0.1043  0.4951
   32MOL    C8921231   7.502   3.650   5.750 -0.1089 -0.1400 -0.3173
   32MOL    C9021232   7.415   3.861   5.442  0.4631 -0.4046  0.8699
   32MOL    C9121233   7.466   3.973   5.379  0.1861 -0.1983  0.1432
   32MOL    H9221234   7.549   4.487   5.330  0.2016  2.2827 -0.0317
   32MOL    H9321235   7.725   4.618   5.416  1.4535  0.7734  2.1325
   32MOL    H9421236   7.906   4.279   5.621  0.2715  0.4057 -0.3059
   32MOL    H9521237   7.728   4.142   5.533 -1.9028  0.1209  1.5469
   32MOL    H9621238   7.474   4.201   5.630 -1.1183  0.6524 -0.8676
   32MOL    H9721239   7.394   3.983   5.755  2.6319 -0.1586  0.2427
   32MOL    H9821240   7.313   3.552   5.482  0.5416 -0.4959 -0.3114
   32MOL    H9921241   7.471   3.361   5.502  0.1275 -0.5946  0.4879
   32MOL   H10021242   7.678   3.551   5.825 -0.3779 -0.4719  1.4763
   32MOL   H10121243   7.508   3.731   5.821 -1.9850 -1.5242  1.5180
   32MOL   H10221244   7.395   3.768   5.392 -0.3238  0.2941 -0.1453
   32MOL   H10321245   7.493   3.956   5.276 -0.9863  1.9396 -0.5383
   32MOL   C10421246   7.689   2.997   5.557 -0.3044  0.2088 -0.1034
   32MOL   C10521247   7.727   3.136   5.576  0.9182  0.0846 -0.3873
   32MOL   C10621248   7.646   3.217   5.657  0.5001 -0.2064  0.5442
   32MOL   O10721249   7.680   3.344   5.686 -0.3682 -0.1293  0.0022
   32MOL   C10821250   7.532   3.162   5.727  0.2467  0.2230  0.3142
   32MOL   C10921251   7.499   3.025   5.714  0.1619 -0.9810  0.5603
   32MOL   C11021252   7.572   2.947   5.622  0.0719 -0.2651 -0.0845
   32MOL   C11121253   7.532   2.800   5.600  0.0693 -0.0920 -0.1130
   32MOL   O11221254   7.474   2.733   5.683 -0.6414 -0.1463 -0.6557
   32MOL   C11321255   7.562   2.734   5.471  0.7869 -0.7106  0.1485
   32MOL   C11421256   7.580   2.595   5.472 -0.7187  0.2350 -0.1536
   32MOL   C11521257   7.615   2.525   5.349 -0.3515 -0.0831  0.2409
   32MOL   C11621258   7.623   2.590   5.226  0.4033 -0.2085  0.0810
   32MOL   O11721259   7.674   2.529   5.112  0.6205 -0.3873 -0.0264
   32MOL   C11821260   7.793   2.567   5.060 -0.1832  0.3948  0.2044
   32MOL   C11921261   7.915   2.557   5.140  0.0393  0.3674 -0.0948
   32MOL   C12021262   8.037   2.588   5.081 -0.2834 -0.4367  0.3516
   32MOL   C12121263   8.045   2.641   4.951  0.3289 -0.0678  0.0068
   32MOL   C12221264   7.933   2.647   4.869  0.3741 -0.1573 -0.7196
   32MOL   C12321265   7.812   2.611   4.926  0.8059 -0.6813 -0.5509
   32MOL   C12421266   7.589   2.726   5.227 -0.8119  0.1817  0.1040
   32MOL   C12521267   7.563   2.796   5.349  0.1253 -0.1558 -0.0729
   32MOL   H12621268   7.745   2.926   5.497 -0.6717  0.6950 -1.0260
   32MOL   H12721269   7.802   3.182   5.514  2.8912 -0.2201  1.7122
   32MOL   H12821270   7.484   3.226   5.799 -1.2679 -1.7696  1.1526
   32MOL   H12921271   7.424   2.979   5.776 -1.8216  1.3392 -0.0527
   32MOL   H13021272   7.573   2.552   5.571  1.0349  1.8532  0.7142
   32MOL   H13121273   7.635   2.420   5.365  0.9452 -0.1828 -1.7743
   32MOL   H13221274   7.904   2.516   5.239 -0.2396 -0.4158 -0.4425
   32MOL   H13321275   8.121   2.576   5.147 -0.4175 -1.2106  0.3862
   32MOL   H13421276   7.941   2.664   4.763  0.8322 -1.7671 -0.9505
   32MOL   H13521277   7.720   2.621   4.870  0.1476 -1.6145  0.3360
   32MOL   H13621278   7.601   2.784   5.136  2.3108  0.7358  0.7999
   32MOL   H13721279   7.556   2.903   5.336 -0.1754 -0.4826 -2.8864
   32MOL   C13821280   0.004   2.448   4.669  0.1458 -0.4313  0.3430
   32MOL   C13921281   8.232   2.547   4.723  0.4024  0.0528 -0.4913
   32MOL   C14021282   8.254   2.600   4.852 -0.1366  0.5836 -0.2014
   32MOL   O14121283   8.162   2.687   4.895 -0.1641 -0.1180 -0.2722
   32MOL   C14221284   0.056   2.559   4.920 -0.1935  0.6708  0.3208
   32MOL   C14321285   0.141   2.460   4.868 -0.3908  0.2658 -0.3679
   32MOL   C14421286   0.119   2.405   4.745  0.0805  0.1968  0.5575
   32MOL   C14521287   0.218   2.309   4.682  0.7987  0.9588  0.3117
   32MOL   O14621288   0.180   2.232   4.591 -0.1298 -0.1286 -0.1482
   32MOL   C14721289   0.366   2.312   4.716 -0.0006  0.0506 -0.3886
   32MOL   C14821290   0.444   2.185   4.704 -0.4427 -0.3572 -0.4351
   32MOL   C14921291   0.575   2.178   4.738  0.6750  0.0372 -0.5417
   32MOL   C15021292   0.639   2.298   4.783  0.6676 -0.2410 -0.2257
   32MOL   O15121293   0.770   2.296   4.827  0.0036 -0.4121 -0.7878
   32MOL   C15221294   0.793   2.236   4.947  0.4906 -0.0285 -0.4131
   32MOL   C15321295   0.745   2.282   5.072  0.1110  0.2638  0.3760
   32MOL   C15421296   0.791   2.221   5.186 -0.4901 -0.0826 -0.1731
   32MOL   C15521297   0.871   2.113   5.185 -0.3342  0.3829 -0.3997
   32MOL   C15621298   0.903   2.049   5.064  0.5204 -0.6301  0.5690
   32MOL   C15721299   0.871   2.117   4.941 -0.4501 -0.5739  0.2132
   32MOL   C15821300   0.563   2.417   4.792 -0.3955  0.5521  0.2438
   32MOL   C15921301   0.427   2.426   4.765  0.6377 -0.6356 -0.0516
   32MOL   H16021302   8.302   2.398   4.575 -0.2098  1.6983 -0.7616
   32MOL   H16121303   8.153   2.578   4.657  0.7943 -1.1407 -1.5512
   32MOL   H16221304   0.069   2.606   5.017  0.7637  0.4300  0.3114
   32MOL   H16321305   0.229   2.434   4.925 -0.6597  0.0940 -0.0378
   32MOL   H16421306   0.402   2.093   4.667 -0.5705 -0.0456 -1.0753
   32MOL   H16521307   0.635   2.089   4.728  1.3994  0.6193 -1.6202
   32MOL   H16621308   0.696   2.378   5.083 -0.7495 -0.1385  0.0625
   32MOL   H16721309   0.772   2.260   5.285 -0.8178 -0.4296 -0.1012
   32MOL   H16821310   0.955   1.955   5.053  0.1949 -0.9252  1.5618
   32MOL   H16921311   0.907   2.083   4.845 -0.6317 -0.6305  0.1645
   32MOL   H17021312   0.607   2.508   4.831 -1.5668  1.2336 -0.0009
   32MOL   H17121313   0.363   2.513   4.770  0.2701 -0.7413 -2.2462
   32MOL   C17221314   1.229   1.862   5.322  0.0406 -0.1158  0.8197
   32MOL   C17321315   1.093   1.896   5.301  0.6949  0.4890 -0.1498
   32MOL   C17421316   1.046   2.024   5.325  0.3995  0.5515  0.3453
   32MOL   O17521317   0.906   2.053   5.308 -0.3357  0.8981  0.1171
   32MOL   C17621318   1.136   2.117   5.376 -0.2615 -0.0877 -0.1338
   32MOL   C17721319   1.269   2.086   5.409 -0.0344  0.5195 -0.0266
   32MOL   C17821320   1.313   1.955   5.376  0.2719 -0.0160  0.3381
   32MOL   C17921321   1.459   1.929   5.406  0.2078  0.1914  0.4863
   32MOL   O18021322   1.489   1.826   5.461 -0.1787 -0.3931 -0.5704
   32MOL   C18121323   1.570   2.028   5.369  0.0444 -0.0582 -0.4552
   32MOL   C18221324   1.545   2.119   5.263 -0.2223 -0.2656 -0.4338
   32MOL   C18321325   1.653   2.201   5.219 -0.5149 -0.3226 -0.3536
   32MOL   C18421326   1.785   2.186   5.269  0.0731  0.3071 -0.0492
   32MOL   O18521327   1.899   2.258   5.226 -0.1079  0.0210 -0.2048
   32MOL   C18621328   1.874   2.371   5.160  0.0958 -0.3385 -0.6921
   32MOL   C18721329   1.849   2.493   5.227 -0.5133 -0.9327  0.4056
   32MOL   C18821330   1.805   2.605   5.152  0.2803 -0.2607 -0.4249
   32MOL   C18921331   1.809   2.605   5.009  0.8548  0.2923 -0.2599
   32MOL   C19021332   1.838   2.482   4.943 -0.0940  0.0612 -0.3883
   32MOL   C19121333   1.866   2.366   5.018 -0.2213  0.0942  0.3582
   32MOL   C19221334   1.803   2.090   5.368 -0.8772  0.5813 -0.3211
   32MOL   C19321335   1.697   2.012   5.418  0.0927 -0.4624  0.7041
   32MOL   H19421336   1.272   1.763   5.317  1.2841  0.3421  2.1343
   32MOL   H19521337   1.025   1.823   5.259 -1.9287  1.6534  1.9347
   32MOL   H19621338   1.090   2.213   5.393  0.5477  0.5081 -1.2838
   32MOL   H19721339   1.331   2.166   5.444 -0.0129  0.0150  1.1060
   32MOL   H19821340   1.447   2.126   5.218 -0.5515 -0.3132  0.2694
   32MOL   H19921341   1.621   2.267   5.140 -0.9909  0.1755  0.2546
   32MOL   H20021342   1.858   2.507   5.333 -0.9159  2.5361  0.0333
   32MOL   H20121343   1.773   2.689   5.213 -4.3590 -1.2012 -1.3833
   32MOL   H20221344   1.838   2.474   4.835 -0.0766 -1.7077 -0.2674
   32MOL   H20321345   1.885   2.271   4.971  0.3026  0.3827 -0.0227
   32MOL   H20421346   1.902   2.062   5.402 -0.8064 -0.1409 -1.0764
   32MOL   H20521347   1.715   1.935   5.492  3.1437 -1.7173 -1.2143
   32MOL   C20621348   1.417   2.813   4.975 -0.1779 -0.7444  0.6927
   32MOL   C20721349   1.559   2.802   4.996  0.5259 -0.1989  0.5401
   32MOL   C20821350   1.636   2.726   4.915  0.0367 -0.6402 -0.4235
   32MOL   O20921351   1.766   2.717   4.943  0.1458 -0.0546  1.0249
   32MOL   C21021352   1.580   2.661   4.802  0.1301 -0.2009 -0.0111
   32MOL   C21121353   1.441   2.671   4.780 -0.1824  0.0530 -0.6454
   32MOL   C21221354   1.356   2.747   4.866 -0.4829 -0.5140 -0.1774
   32MOL   C21321355   1.207   2.766   4.853 -0.2042 -0.0169 -0.5657
   32MOL   O21421356   1.146   2.839   4.927  0.0639  0.3979 -0.0177
   32MOL   C21521357   1.135   2.688   4.746 -0.1274  0.1103 -0.1668
   32MOL   C21621358   1.049   2.579   4.767  0.1890 -0.0471  0.6087
   32MOL   C21721359   0.986   2.518   4.661 -0.6327  0.2806  0.5400
   32MOL   C21821360   1.005   2.573   4.529  0.7126  0.5234  0.0801
   32MOL   O21921361   0.943   2.521   4.419 -0.1476 -0.3903 -0.3433
   32MOL   C22021362   0.816   2.564   4.403  0.1655 -0.4922 -0.0583
   32MOL   C22121363   0.702   2.488   4.443  0.3104 -0.2372 -0.4117
   32MOL   C22221364   0.576   2.546   4.450 -0.2759 -0.3343 -0.1956
   32MOL   C22321365   0.559   2.680   4.411 -0.0655  0.6303  0.1155
   32MOL   C22421366   0.667   2.759   4.367  0.1623 -0.1205  0.2619
   32MOL   C22521367   0.795   2.700   4.359 -0.5865  0.4641 -0.3562
   32MOL   C22621368   1.086   2.683   4.508  0.0194 -0.2214  0.0841
   32MOL   C22721369   1.156   2.737   4.612  0.3030  0.5078  0.9786
   32MOL   H22821370   1.352   2.882   5.025  0.2953  1.4679 -1.6287
   32MOL   H22921371   1.602   2.841   5.087  0.3438 -1.1725  1.0500
   32MOL   H23021372   1.643   2.587   4.754 -1.1604 -1.5740  0.3640
   32MOL   H23121373   1.394   2.612   4.703 -0.5689 -1.2496  0.5472
   32MOL   H23221374   1.035   2.540   4.867  2.2843  0.9949  1.3172
   32MOL   H23321375   0.926   2.429   4.674  1.3990 -0.9492  1.8221
   32MOL   H23421376   0.704   2.383   4.471  0.3263 -0.2083 -0.3047
   32MOL   H23521377   0.491   2.486   4.479  0.1064 -1.3257 -1.0805
   32MOL   H23621378   0.665   2.862   4.332  0.7148  0.4037  1.7105
   32MOL   H23721379   0.884   2.751   4.327  1.0605 -3.3994 -2.2489
   32MOL   H23821380   1.096   2.734   4.413  2.2981  0.7431  0.8073
   32MOL   H23921381   1.219   2.822   4.590  0.2335  0.1490 -0.6985
   32MOL   C24021382   0.310   2.579   4.083  0.1214  0.3429  0.2225
   32MOL   C24121383   0.374   2.594   4.210  0.2909  0.0816  0.1924
   32MOL   C24221384   0.374   2.719   4.281 -0.1695  0.4814  0.2337
   32MOL   O24321385   0.431   2.734   4.403 -0.1852 -0.0458 -0.2662
   32MOL   C24421386   0.312   2.828   4.222  0.3415  0.0039  0.2296
   32MOL   C24521387   0.240   2.819   4.099 -0.1380 -0.4834 -0.3433
   32MOL   C24621388   0.247   2.699   4.030  0.6590  0.3472  0.2784
   32MOL   C24721389   0.176   2.694   3.907  1.0219 -0.1016  0.8487
   32MOL   O24821390   0.155   2.793   3.835 -0.4101 -0.0208  0.2447
   32MOL   C24921391   0.103   2.571   3.888  0.3160 -0.1529  0.0198
   32MOL   C25021392   0.019   2.503   3.976  0.6565 -0.0234 -0.4708
   32MOL   C25121393   8.278   2.380   3.947 -0.1793  0.8208  0.3598
   32MOL   C25221394   8.299   2.319   3.822  0.2049  0.5613  0.1555
   32MOL   O25321395   8.246   2.202   3.784 -0.1359 -0.2508  0.3664
   32MOL   C25421396   8.113   2.192   3.758 -0.4443 -0.0196 -0.2517
   32MOL   C25521397   8.042   2.290   3.684  0.2610 -0.3698  0.2535
   32MOL   C25621398   7.902   2.273   3.655  0.7914  0.4880  0.0164
   32MOL   C25721399   7.837   2.161   3.722 -0.1495 -0.7065 -0.3251
   32MOL   C25821400   7.909   2.069   3.798 -0.0382  0.1106 -0.5736
   32MOL   C25921401   8.045   2.081   3.820  0.1163 -0.1288 -0.1005
   32MOL   C26021402   0.062   2.393   3.729  0.0598  0.2789 -0.3409
   32MOL   C26121403   0.124   2.513   3.761  0.2152 -0.5358 -1.1233
   32MOL   H26221404   0.317   2.481   4.038  0.4094  1.2246 -1.7106
   32MOL   H26321405   0.423   2.505   4.247  1.6393  0.8156  0.2123
   32MOL   H26421406   0.300   2.916   4.283  1.4093 -0.4558  1.1236
   32MOL   H26521407   0.186   2.904   4.060 -0.7279 -0.1705  1.1087
   32MOL   H26621408   0.017   2.536   4.079  0.8523  1.3618 -0.9079
   32MOL   H26721409   8.224   2.327   4.024 -0.3047 -1.4030 -1.1862
   32MOL   H26821410   8.093   2.377   3.645  0.4937  0.3117  2.0703
   32MOL   H26921411   7.849   2.342   3.592 -1.2175 -1.6120 -0.6298
   32MOL   H27021412   7.871   1.989   3.859  2.0745 -1.1068 -0.7944
   32MOL   H27121413   8.100   2.002   3.869 -2.0427 -1.6798 -0.0808
   32MOL   H27221414   0.078   2.351   3.631  1.0193 -0.8852  0.3064
   32MOL   H27321415   0.190   2.568   3.695  2.5981 -0.0288  1.5654
   32MOL   C27421416   7.683   1.826   3.527  0.5298 -0.2570 -0.1642
   32MOL   C27521417   7.730   1.956   3.563  0.6222  0.1184 -0.2985
   32MOL   C27621418   7.655   2.029   3.660 -0.5997 -0.0910 -0.3266
   32MOL   O27721419   7.700   2.148   3.714 -0.7394  0.0580 -0.2031
   32MOL   C27821420   7.526   1.982   3.703 -0.0750  0.1997  0.8672
   32MOL   C27921421   7.472   1.860   3.650 -1.2144  0.7790  0.0650
   32MOL   C28021422   7.551   1.781   3.564  0.1486  0.0359 -0.4158
   32MOL   C28121423   7.515   1.646   3.524  1.1035  0.5253 -0.4643
   32MOL   O28221424   7.416   1.630   3.452  0.2212  0.7931 -0.0118
   32MOL   C28321425   7.601   1.542   3.572  0.1261  0.4292  1.2959
   32MOL   C28421426   7.641   1.534   3.709  0.2988 -0.1854  0.1455
   32MOL   C28521427   7.743   1.443   3.739 -0.2499 -0.5511  0.5659
   32MOL   C28621428   7.804   1.364   3.639  0.0407 -0.2249 -0.4008
   32MOL   O28721429   7.903   1.278   3.673 -0.2050  0.0789 -0.2215
   32MOL   C28821430   7.862   1.150   3.722 -0.0656  1.2247  0.4640
   32MOL   C28921431   7.835   1.050   3.628 -0.2611 -0.7834 -0.3420
   32MOL   C29021432   7.758   0.939   3.676 -0.3832  0.2708  0.7038
   32MOL   C29121433   7.732   0.916   3.812 -0.3518 -0.2742 -0.1027
   32MOL   C29221434   7.772   1.014   3.902  0.0081 -0.1089 -0.1209
   32MOL   C29321435   7.836   1.129   3.856 -0.5493 -0.4875 -0.4586
   32MOL   C29421436   7.762   1.372   3.507  0.1205  0.0806  0.4160
   32MOL   C29521437   7.655   1.456   3.475 -0.1722  0.1780 -0.6190
   32MOL   H29621438   7.748   1.768   3.463 -0.5691 -1.2013 -0.4579
   32MOL   H29721439   7.826   1.990   3.527  0.3684  2.4040  1.0833
   32MOL   H29821440   7.457   2.033   3.769  1.5603  2.0052  1.2340
   32MOL   H29921441   7.374   1.820   3.672 -1.0191  0.1521 -0.1752
   32MOL   H30021442   7.591   1.597   3.780  2.2416  0.7418  0.7398
   32MOL   H30121443   7.784   1.435   3.838  3.0018  1.3089 -0.5373
   32MOL   H30221444   7.855   1.065   3.523  0.7851  2.1511  0.2333
   32MOL   H30321445   7.714   0.867   3.609 -2.8266  2.1354  0.2517
   32MOL   H30421446   7.749   0.998   4.007  0.9845  1.4782  0.3611
   32MOL   H30521447   7.861   1.208   3.926  1.1631 -0.3218 -1.2180
   32MOL   H30621448   7.812   1.325   3.423 -0.7603  1.0816 -0.6873
   32MOL   H30721449   7.628   1.459   3.370 -2.5606  0.1760 -0.0288
   32MOL   C30821450   7.293   0.883   3.809 -0.5269  0.2586 -0.5208
   32MOL   C30921451   7.428   0.847   3.780  0.2806 -0.5830 -0.0596
   32MOL   C31021452   7.525   0.845   3.882 -0.2706 -0.0411  0.2007
   32MOL   O31121453   7.657   0.812   3.848 -0.0326 -0.0915 -0.3075
   32MOL   C31221454   7.492   0.867   4.019 -0.3874 -0.1311 -0.7093
   32MOL   C31321455   7.358   0.897   4.050  0.4932  0.1512  0.3264
   32MOL   C31421456   7.259   0.906   3.947 -1.2008 -0.4429  0.0022
   32MOL   C31521457   7.115   0.921   3.979 -0.2104 -0.1182  0.4164
   32MOL   O31621458   7.034   0.855   3.913  0.5235 -0.3723 -0.3861
   32MOL   C31721459   7.061   1.022   4.080 -0.8698 -0.5137  0.6920
   32MOL   C31821460   6.923   1.022   4.113 -0.3763 -0.7994  0.1071
   32MOL   C31921461   6.865   1.122   4.198  0.0561 -0.7831  0.3866
   32MOL   C32021462   6.945   1.233   4.241 -0.1585  0.7569 -0.6708
   32MOL   O32121463   6.887   1.334   4.314 -0.1652  0.5148 -0.4981
   32MOL   C32221464   6.787   1.405   4.254  0.5148  0.6172 -0.2624
   32MOL   C32321465   6.813   1.468   4.129 -0.6691 -0.0252 -0.1419
   32MOL   C32421466   6.716   1.541   4.062  0.3416  0.0288  0.5736
   32MOL   C32521467   6.590   1.565   4.128 -0.1772 -0.7802 -0.7336
   32MOL   C32621468   6.569   1.511   4.255  0.1620  0.4043 -1.4741
   32MOL   C32721469   6.664   1.425   4.315 -0.0562  0.3507 -0.2866
   32MOL   C32821470   7.083   1.224   4.226  0.1032  1.0463  0.2615
   32MOL   C32921471   7.140   1.127   4.134  0.8718  0.3076  0.1304
   32MOL   H33021472   7.222   0.884   3.728  0.5491  0.1793 -1.4735
   32MOL   H33121473   7.448   0.808   3.681 -1.9935 -1.0511 -0.3511
   32MOL   H33221474   7.565   0.869   4.099 -0.7731  1.5215 -0.3659
   32MOL   H33321475   7.322   0.910   4.151  0.6694 -1.0156  0.5555
   32MOL   H33421476   6.866   0.940   4.071 -0.4767  0.1065 -1.5617
   32MOL   H33521477   6.762   1.124   4.228 -0.9193  0.9936 -2.8176
   32MOL   H33621478   6.910   1.463   4.081 -0.3400  0.1392  0.4998
   32MOL   H33721479   6.730   1.591   3.967 -1.1257  0.7118  0.7077
   32MOL   H33821480   6.477   1.517   4.311  1.7943 -0.8192  1.5062
   32MOL   H33921481   6.651   1.392   4.417 -2.2054  0.6411 -0.4393
   32MOL   H34021482   7.153   1.298   4.261  0.8682 -0.0721  1.1396
   32MOL   H34121483   7.248   1.130   4.127  0.9659 -1.5561  0.4950
   32MOL   C34221484   6.630   1.994   4.139 -0.3617 -0.0663  0.0667
   32MOL   C34321485   6.585   1.861   4.157 -0.2318 -0.5025 -0.8181
   32MOL   C34421486   6.550   1.777   4.049 -0.3765  0.0046 -0.2457
   32MOL   O34521487   6.496   1.649   4.071 -0.2007 -0.0068  0.0879
   32MOL   C34621488   6.555   1.832   3.917 -0.2062  0.2800  0.2702
   32MOL   C34721489   6.615   1.961   3.897  0.2171  0.1145 -0.3937
   32MOL   C34821490   6.654   2.043   4.008 -0.8643  0.6577  0.4619
   32MOL   C34921491   6.704   2.179   3.987 -0.4555  0.0527 -0.1466
   32MOL   O35021492   6.675   2.265   4.067  0.6637  0.9726 -0.5991
   32MOL   C35121493   6.801   2.209   3.875 -0.0094  0.2458 -0.0972
   32MOL   C35221494   6.887   2.112   3.829 -0.4153 -0.2215  0.0167
   32MOL   C35321495   6.970   2.137   3.716 -0.9708 -0.5081 -0.3599
   32MOL   C35421496   6.974   2.266   3.664 -0.0737  0.2549  0.0717
   32MOL   O35521497   7.051   2.302   3.561  0.4836  0.3742 -0.1173
   32MOL   C35621498   7.131   2.215   3.495 -0.2661  0.5103  0.0028
   32MOL   C35721499   7.268   2.202   3.530 -0.2380  0.1326  0.5135
   32MOL   C35821500   7.356   2.125   3.448 -0.6689 -0.7806  0.3937
   32MOL   C35921501   7.306   2.037   3.349 -0.0408  0.0483 -0.0119
   32MOL   C36021502   7.167   2.042   3.317 -0.1840  0.2537 -1.1969
   32MOL   C36121503   7.085   2.132   3.390  0.2856  0.2853 -0.0098
   32MOL   C36221504   6.899   2.368   3.722  0.0384 -0.6707 -0.1185
   32MOL   C36321505   6.808   2.336   3.822  0.2864 -0.8442 -0.4304
   32MOL   H36421506   6.643   2.060   4.223  0.2371 -1.3514  0.9737
   32MOL   H36521507   6.570   1.829   4.259  1.0191  3.7318  0.8332
   32MOL   H36621508   6.528   1.764   3.838  1.2839  0.5746 -0.5280
   32MOL   H36721509   6.610   1.998   3.795 -0.6426 -1.8461 -1.1062
   32MOL   H36821510   6.889   2.014   3.874  1.5423 -0.7550 -1.1549
   32MOL   H36921511   7.029   2.058   3.672  0.4303  0.6308 -0.5570
   32MOL   H37021512   7.300   2.251   3.620  2.0968 -1.5536  0.6473
   32MOL   H37121513   7.462   2.127   3.470 -0.8009 -0.8447  1.0487
   32MOL   H37221514   7.123   1.973   3.247  3.8931 -2.3636 -1.3470
   32MOL   H37321515   6.988   2.134   3.344  0.1250 -0.5419  0.2824
   32MOL   H37421516   6.907   2.464   3.672  0.9972 -1.2508 -1.1179
   32MOL   H37521517   6.745   2.412   3.868 -0.3602 -0.5262 -1.8175
   32MOL   C37621518   7.678   2.028   3.083 -0.0835  0.0990 -0.0660
   32MOL   C37721519   7.597   1.988   3.189 -0.1874 -0.0786  0.6053
   32MOL   C37821520   7.457   1.995   3.176 -0.1413 -0.1416  0.1156
   32MOL   O37921521   7.380   1.948   3.280 -0.5099  0.5968 -0.2310
   32MOL   C38021522   7.402   2.042   3.054 -0.3243  0.0464 -0.3501
   32MOL   C38121523   7.490   2.079   2.950 -0.6367 -0.2149 -0.1778
   32MOL   C38221524   7.627   2.075   2.961 -0.0902 -0.0257  0.6535
   32MOL   C38321525   7.716   2.127   2.860  0.4276 -0.2582  0.4894
   32MOL   O38421526   7.695   2.239   2.811  0.4125  1.0422 -0.1720
   32MOL   C38521527   7.814   2.036   2.803 -0.0953  0.3730 -0.2135
   32MOL   C38621528   7.934   2.092   2.757  0.1256 -0.0011  0.8075
   32MOL   C38721529   8.041   2.013   2.713 -0.2449  0.5676 -0.4533
   32MOL   C38821530   8.037   1.871   2.727  0.2161  0.1028  0.4481
   32MOL   O38921531   8.144   1.785   2.707 -0.9692 -0.6582 -0.1425
   32MOL   C39021532   8.248   1.804   2.618  0.0912 -0.3975  0.7035
   32MOL   C39121533   8.216   1.850   2.487 -0.0176  0.3013 -0.2178
   32MOL   C39221534   0.002   1.892   2.395  0.3882  0.2533  0.2482
   32MOL   C39321535   0.132   1.874   2.438 -0.3045  0.0267  0.2638
   32MOL   C39421536   0.169   1.825   2.561  0.6807 -0.3197 -0.1282
   32MOL   C39521537   0.071   1.791   2.650 -0.4924 -0.5556  0.0870
   32MOL   C39621538   7.918   1.808   2.776 -0.2977  0.6132  0.4860
   32MOL   C39721539   7.815   1.894   2.810  0.3101  0.4227  0.8345
   32MOL   H39821540   7.785   2.014   3.089 -0.5760 -5.4012 -0.8688
   32MOL   H39921541   7.644   1.960   3.282 -0.7171 -3.5360 -0.0846
   32MOL   H40021542   7.295   2.046   3.041 -0.3852  0.1423  0.1574
   32MOL   H40121543   7.445   2.126   2.864  0.0719  2.7525  0.9995
   32MOL   H40221544   7.944   2.199   2.751  1.1119 -0.0574  1.3499
   32MOL   H40321545   8.131   2.063   2.681  1.6018 -1.4423  1.4106
   32MOL   H40421546   8.114   1.869   2.458 -0.6831  0.9339  2.3899
   32MOL   H40521547   8.283   1.929   2.299 -4.8649  0.5292  1.9096
   32MOL   H40621548   0.273   1.816   2.590  0.4952 -0.4807  0.5004
   32MOL   H40721549   0.094   1.766   2.753 -0.1467  0.4038  0.2482
   32MOL   H40821550   7.914   1.702   2.793  0.0843  0.6242  0.6513
   32MOL   H40921551   7.734   1.848   2.866 -0.4302  3.0269  1.9503
   32MOL   C41021552   0.351   2.253   2.436  0.1645 -0.0328  0.3683
   32MOL   C41121553   0.326   2.113   2.447  0.6413  0.1393 -0.0674
   32MOL   C41221554   0.264   2.042   2.347  0.3518  0.1266  0.8019
   32MOL   O41321555   0.236   1.906   2.354  0.6476 -0.1735 -0.0189
   32MOL   C41421556   0.249   2.104   2.224  0.3130  0.6295 -0.0481
   32MOL   C41521557   0.281   2.238   2.202 -0.2917  0.5264 -0.3890
   32MOL   C41621558   0.335   2.319   2.312  0.6228  0.6283 -0.1384
   32MOL   C41721559   0.360   2.466   2.298 -0.7689 -0.3313 -0.7875
   32MOL   O41821560   0.289   2.541   2.365 -0.1521 -0.6024  0.0099
   32MOL   C41921561   0.467   2.511   2.204  0.2502 -0.1771  0.6084
   32MOL   C42021562   0.573   2.426   2.161 -0.0723 -0.2153  0.3155
   32MOL   C42121563   0.663   2.464   2.062 -0.4747 -0.4581 -0.0063
   32MOL   C42221564   0.658   2.597   2.007  0.2226 -0.7345 -0.3231
   32MOL   O42321565   0.746   2.634   1.910  0.0587  0.0498 -0.4670
   32MOL   C42421566   0.711   2.628   1.781  0.6276 -0.4483  0.0535
   32MOL   C42521567   0.625   2.733   1.731 -0.7026  0.4879  0.5267
   32MOL   C42621568   0.585   2.722   1.593  0.9621  0.2508  0.3123
   32MOL   C42721569   0.614   2.605   1.519  0.8839  0.1025  0.1105
   32MOL   C42821570   0.680   2.496   1.579  0.3950 -0.2243  0.3366
   32MOL   C42921571   0.735   2.513   1.705 -0.8350  0.0325 -0.2388
   32MOL   C43021572   0.570   2.689   2.067  0.1685  0.6784  0.0101
   32MOL   C43121573   0.471   2.643   2.156  0.5170 -0.3600 -0.2473
   32MOL   H43221574   0.402   2.303   2.517 -0.2571 -1.4260  1.5122
   32MOL   H43321575   0.335   2.056   2.538 -1.0255 -1.3845 -0.8103
   32MOL   H43421576   0.202   2.046   2.146 -0.7477  0.6368  0.5743
   32MOL   H43521577   0.258   2.290   2.110  1.5285  0.5870 -0.8216
   32MOL   H43621578   0.587   2.333   2.216  2.3642 -1.1999 -1.8709
   32MOL   H43721579   0.736   2.390   2.034  1.4860  1.4120  0.1003
   32MOL   H43821580   0.608   2.825   1.785 -0.4380  0.3038  0.9335
   32MOL   H43921581   0.522   2.797   1.549  0.0924  0.2545  1.5297
   32MOL   H44021582   0.696   2.402   1.528 -0.7430  0.5544 -1.4905
   32MOL   H44121583   0.788   2.428   1.745 -3.3462 -2.2780 -1.6787
   32MOL   H44221584   0.576   2.792   2.034  1.5037  0.4627 -0.4521
   32MOL   H44321585   0.402   2.714   2.198  0.6683  0.0807 -0.7391
   32MOL   C44421586   0.331   2.793   1.242 -0.5352 -0.3635  0.0415
   32MOL   C44521587   0.397   2.680   1.298 -0.1790 -0.6554 -0.2132
   32MOL   C44621588   0.536   2.689   1.312  0.4650 -0.1890 -0.7461
   32MOL   O44721589   0.596   2.592   1.385  0.2358 -0.4093 -0.3128
   32MOL   C44821590   0.607   2.802   1.269  0.5526  0.3626 -0.2178
   32MOL   C44921591   0.546   2.902   1.186  0.0843 -0.2871 -0.7196
   32MOL   C45021592   0.403   2.899   1.180 -0.2642  0.2542 -0.2884
   32MOL   C45121593   0.326   2.991   1.100 -0.4242 -0.3952 -0.6072
   32MOL   O45221594   0.356   3.008   0.979  0.7532 -0.2949  0.0033
   32MOL   C45321595   0.225   3.089   1.158 -0.0492  0.3781 -0.1557
   32MOL   C45421596   0.140   3.167   1.072 -0.1146 -0.0834 -0.0925
   32MOL   C45521597   0.040   3.255   1.131  0.6292  0.3626 -0.0728
   32MOL   C45621598   0.033   3.262   1.273  0.5928 -0.3170  0.2586
   32MOL   O45721599   8.250   3.346   1.328 -0.3100 -0.1864 -0.0608
   32MOL   C45821600   8.254   3.378   1.457  0.4964 -0.3000  0.3242
   32MOL   C45921601   0.048   3.456   1.502 -0.2143  0.1176  0.2462
   32MOL   C46021602   0.035   3.501   1.641  0.2927  0.4525  1.0487
   32MOL   C46121603   8.252   3.455   1.727  0.0454  0.1208 -0.6033
   32MOL   C46221604   8.144   3.382   1.673  0.4789  0.0360 -0.0030
   32MOL   C46321605   8.141   3.349   1.534  0.3663 -0.1333 -0.0098
   32MOL   C46421606   0.112   3.180   1.355 -0.1304  0.0922 -0.1795
   32MOL   C46521607   0.205   3.093   1.295  0.7819  0.0963  0.1319
   32MOL   H46621608   0.223   2.791   1.238 -0.6725  0.0843  2.6816
   32MOL   H46721609   0.339   2.600   1.342 -0.7088  1.7999  3.8103
   32MOL   H46821610   0.713   2.809   1.283  0.3117  2.0969  0.9098
   32MOL   H46921611   0.608   2.973   1.134  0.9400 -1.3717 -1.2019
   32MOL   H47021612   0.144   3.146   0.966  2.4108 -0.5795  0.0651
   32MOL   H47121613   8.286   3.310   1.067  2.2230 -0.1039 -2.1976
   32MOL   H47221614   0.133   3.480   1.440  2.4519 -3.0673  2.4448
   32MOL   H47321615   0.113   3.568   1.673 -0.6118  1.8942  0.2927
   32MOL   H47421616   8.064   3.347   1.736  1.6900  0.9951  2.1290
   32MOL   H47521617   8.056   3.298   1.493 -0.1393  2.1169 -1.8690
   32MOL   H47621618   0.101   3.179   1.463  2.6146  0.2652  0.1407
   32MOL   H47721619   0.255   3.022   1.359  1.3048  0.0291 -0.3480
   32MOL   C47821620   7.978   3.381   2.061 -0.9948 -0.2874 -0.3755
   32MOL   C47921621   8.056   3.445   1.963 -0.0587 -0.3366  0.9062
   32MOL   C48021622   8.194   3.423   1.955  0.2652 -0.3318 -0.3176
   32MOL   O48121623   8.265   3.489   1.863 -0.2285 -0.2497  0.4103
   32MOL   C48221624   8.257   3.342   2.050  0.1171  0.2087  0.1060
   32MOL   C48321625   8.176   3.277   2.144 -0.6242 -0.0097  0.3864
   32MOL   C48421626   8.036   3.300   2.158 -0.4941  0.9588 -0.3126
   32MOL   C48521627   7.957   3.225   2.261  0.4392  0.2758  0.4129
   32MOL   O48621628   8.016   3.136   2.327 -0.8118  0.2631 -0.4837
   32MOL   C48721629   7.823   3.270   2.294 -0.3797 -0.3823  0.1870
   32MOL   C48821630   7.730   3.170   2.328 -0.3823  0.3186 -0.9845
   32MOL   C48921631   7.600   3.210   2.369 -0.2320  0.5840  0.2765
   32MOL   C49021632   7.569   3.346   2.381 -0.5640 -0.7536  0.1697
   32MOL   O49121633   7.443   3.390   2.419  0.0164 -0.6484 -0.3509
   32MOL   C49221634   7.412   3.382   2.552  0.2918  0.1000  0.7226
   32MOL   C49321635   7.308   3.296   2.589 -0.4130 -0.1660  0.0829
   32MOL   C49421636   7.267   3.294   2.723  0.0457  0.3105 -0.0872
   32MOL   C49521637   7.332   3.368   2.823  0.0680 -0.1108  0.3145
   32MOL   C49621638   7.453   3.431   2.789  0.4539  0.4732 -0.4606
   32MOL   C49721639   7.488   3.449   2.651 -0.0790 -0.7736 -0.6898
   32MOL   C49821640   7.662   3.441   2.346  0.3515 -1.0031 -0.2525
   32MOL   C49921641   7.789   3.406   2.306 -0.5064 -0.6501  1.2072
   32MOL   H50021642   7.874   3.409   2.072 -0.6673  0.5565  0.7183
   32MOL   H50121643   8.009   3.509   1.890  3.3711  2.0729  0.6789
   32MOL   H50221644   0.052   3.328   2.048  0.2307  1.2295 -1.0476
   32MOL   H50321645   8.208   3.209   2.221  1.8401  1.2911  0.5676
   32MOL   H50421646   7.757   3.066   2.326  1.4623  0.7293  0.7200
   32MOL   H50521647   7.534   3.128   2.392  1.5835 -0.8641  0.3942
   32MOL   H50621648   7.257   3.246   2.508  2.2169 -2.0914 -0.4165
   32MOL   H50721649   7.181   3.238   2.756  1.0517 -0.1311  1.8841
   32MOL   H50821650   7.519   3.470   2.864 -2.3223  1.1038  1.7428
   32MOL   H50921651   7.574   3.510   2.630 -1.3766  0.5331 -2.3155
   32MOL   H51021652   7.630   3.544   2.344  0.4616 -0.9213  1.5068
   32MOL   H51121653   7.858   3.488   2.294  0.0135 -0.7507  3.3714
   32MOL   C51221654   7.078   3.676   2.984  0.1160  0.4490 -0.6741
   32MOL   C51321655   7.110   3.538   2.975  0.5720 -0.7335  0.0960
   32MOL   C51421656   7.243   3.490   3.001 -0.2237  0.3005  0.0293
   32MOL   O51521657   7.287   3.365   2.955 -0.2423  0.2243 -0.2506
   32MOL   C51621658   7.341   3.582   3.046  0.5313  0.1969 -0.3018
   32MOL   C51721659   7.307   3.721   3.047 -0.3837  0.3802  0.2136
   32MOL   C51821660   7.184   3.769   3.009 -0.1373 -0.7577 -0.0215
   32MOL   C51921661   7.162   3.915   2.997  0.4240  0.8520  0.1620
   32MOL   O52021662   7.108   3.963   2.901 -0.1551  0.0250 -0.0473
   32MOL   C52121663   7.207   3.995   3.110  0.6306  0.5213 -0.4530
   32MOL   C52221664   7.134   3.971   3.232  0.1158  0.0184 -0.5079
   32MOL   C52321665   7.180   4.047   3.344  0.1385 -0.4787  0.3223
   32MOL   C52421666   7.290   4.131   3.344  0.6323 -0.4629 -0.4243
   32MOL   O52521667   7.318   4.180   3.468 -0.1060  0.0220  0.4020
   32MOL   C52621668   7.448   4.235   3.496 -0.5911 -0.2274  0.2196
   32MOL   C52721669   7.537   4.153   3.558  0.1167 -0.0756  0.0067
   32MOL   C52821670   7.662   4.206   3.607  0.1472  0.3133 -0.0087
   32MOL   C52921671   7.693   4.343   3.580 -0.3023 -0.0606  0.3810
   32MOL   C53021672   7.593   4.426   3.519  0.1610  0.5088 -0.1568
   32MOL   C53121673   7.475   4.371   3.476  0.3351  0.0303  0.1343
   32MOL   C53221674   7.361   4.149   3.219  0.4631  0.1587 -0.1190
   32MOL   C53321675   7.319   4.081   3.102 -0.0988  0.2185 -0.5733
   32MOL   H53421676   6.978   3.708   2.959  0.5807  3.7479  1.3260
   32MOL   H53521677   7.042   3.458   2.947  1.1615 -1.0205 -0.5282
   32MOL   H53621678   7.443   3.556   3.073 -0.1155 -0.8301  1.2868
   32MOL   H53721679   7.386   3.789   3.075  1.0642 -1.7048  1.3717
   32MOL   H53821680   7.056   3.896   3.231  0.1836 -0.0982  0.9735
   32MOL   H53921681   7.125   4.024   3.434 -0.9664 -1.0416 -0.4787
   32MOL   H54021682   7.524   4.046   3.566 -1.4454  0.1492  0.6040
   32MOL   H54121683   7.736   4.140   3.648 -0.6889 -0.0807  0.8872
   32MOL   H54221684   7.612   4.531   3.503 -1.0358  0.5163 -1.6553
   32MOL   H54321685   7.390   4.424   3.438  0.1721 -0.1927  0.1846
   32MOL   H54421686   7.445   4.216   3.218  1.8938 -1.5932 -1.7938
   32MOL   H54521687   7.357   4.098   3.002  0.9653  0.1770 -0.1875
   32MOL   C54621688   7.961   4.592   3.343 -0.3726 -0.2720  0.5243
   32MOL   C54721689   7.899   4.479   3.411  0.0410  0.1106 -0.7039
   32MOL   C54821690   7.869   4.500   3.553  0.0799  0.4582  0.4080
   32MOL   O54921691   7.812   4.399   3.629 -0.5763  0.2546  0.7258
   32MOL   C55021692   7.902   4.623   3.617  0.4701 -0.3966  0.0262
   32MOL   C55121693   7.978   4.719   3.548  0.0628  0.0523 -0.0658
   32MOL   C55221694   7.994   4.712   3.411 -0.1210 -0.0823 -0.0825
   32MOL   C55321695   8.065   4.815   3.335 -0.5416 -0.3373 -0.3865
   32MOL   O55421696   8.147   4.883   3.390  0.3548  0.3898 -0.4771
   32MOL   C55521697   8.016   4.845   3.193 -0.6620  0.2164 -0.5177
   32MOL   C55621698   7.893   4.802   3.141  0.0653 -1.2235 -0.7651
   32MOL   C55721699   7.852   4.828   3.014 -0.4540  0.2816 -0.1508
   32MOL   C55821700   7.941   4.896   2.925 -0.0478  0.3320  0.3191
   32MOL   O55921701   7.908   4.925   2.794  0.1452  0.3856  0.1321
   32MOL   C56021702   7.812   4.851   2.726 -0.2350 -0.0291  0.3105
   32MOL   C56121703   7.852   4.761   2.627  0.6501 -0.5612 -0.1567
   32MOL   C56221704   7.752   4.689   2.558  0.1670 -0.2347  0.8687
   32MOL   C56321705   7.617   4.701   2.591  0.2652  0.2964  0.2071
   32MOL   C56421706   7.579   4.784   2.699 -0.2797 -0.5036  0.3479
   32MOL   C56521707   7.674   4.864   2.761 -0.2041 -0.6321  0.3004
   32MOL   C56621708   8.060   4.949   2.976  0.5637 -0.0784 -0.0468
   32MOL   C56721709   8.098   4.925   3.107 -0.6637  0.1380 -0.0299
   32MOL   H56821710   7.984   4.575   3.239 -2.1746 -0.8250  0.2069
   32MOL   H56921711   7.863   4.391   3.361 -0.8369 -0.3002  0.6210
   32MOL   H57021712   7.864   4.637   3.717 -1.1720 -2.0101 -0.3512
   32MOL   H57121713   8.009   4.803   3.609 -0.3247  0.4736 -0.4410
   32MOL   H57221714   7.819   4.751   3.200  0.5767 -0.5445  0.4795
   32MOL   H57321715   7.762   4.780   2.979  0.9206 -2.2800 -0.3069
   32MOL   H57421716   7.953   4.752   2.588  0.3335 -0.8023 -0.9288
   32MOL   H57521717   7.782   4.643   2.465 -0.0468  2.8102 -0.7382
   32MOL   H57621718   7.478   4.794   2.736  0.0928  0.7718  1.0515
   32MOL   H57721719   7.650   4.923   2.848 -2.3853  0.1685 -0.8159
   32MOL   H57821720   8.112   5.005   2.900 -1.7535  0.7934 -1.0392
   32MOL   H57921721   8.196   4.954   3.140 -0.0968  1.6876 -2.9981
   32MOL   C58021722   7.453   4.751   2.172 -0.1251 -0.0206 -0.3830
   32MOL   C58121723   7.502   4.674   2.283  0.1687  0.8055  0.2047
   32MOL   C58221724   7.471   4.721   2.414 -0.5309 -0.3950 -0.1611
   32MOL   O58321725   7.514   4.645   2.521 -0.4123 -0.0865 -0.2285
   32MOL   C58421726   7.383   4.832   2.432 -0.7642  0.0157 -0.4851
   32MOL   C58521727   7.340   4.906   2.316 -0.7863  0.0170  0.4801
   32MOL   C58621728   7.381   4.866   2.188 -0.0841 -0.0596 -0.0192
   32MOL   C58721729   7.340   4.944   2.067 -1.2659  0.0958 -0.1656
   32MOL   O58821730   7.270   4.896   1.977 -0.5656 -0.4394 -0.1574
   32MOL   C58921731   7.403   5.081   2.048  0.3869 -0.9822 -0.1667
   32MOL   C59021732   7.477   5.138   2.153 -0.1154 -0.5593 -0.0416
   32MOL   C59121733   7.530   5.268   2.128  0.3419  0.0444 -0.2676
   32MOL   C59221734   7.508   5.335   2.005  0.3674 -0.2491  0.8566
   32MOL   O59321735   7.567   5.456   1.982 -0.2320 -0.0659 -0.1995
   32MOL   C59421736   7.709   5.467   1.967  0.0111  0.0999 -0.1839
   32MOL   C59521737   7.791   5.361   1.924  0.3201  0.1674  0.5881
   32MOL   C59621738   7.932   5.383   1.903  0.1539 -0.6800  0.6056
   32MOL   C59721739   7.990   5.499   1.950 -0.8448  0.1793 -0.0305
   32MOL   C59821740   7.907   5.605   1.997  1.0286 -0.3649  0.4520
   32MOL   C59921741   7.767   5.585   1.999 -0.0869  0.2760 -0.9737
   32MOL   C60021742   7.430   5.279   1.907  0.0329 -0.0754 -0.4430
   32MOL   C60121743   7.378   5.155   1.929 -0.4298  0.3738 -0.5182
   32MOL   H60221744   7.489   4.715   2.077  0.2589  0.3492 -0.3780
   32MOL   H60321745   7.564   4.587   2.267  0.2729  0.6581  1.3460
   32MOL   H60421746   7.347   4.869   2.526 -0.7397 -1.5418  0.1507
   32MOL   H60521747   7.271   4.990   2.322 -2.2023 -1.0799 -0.1961
   32MOL   H60621748   7.480   5.087   2.248 -1.6480 -1.0743 -0.2407
   32MOL   H60721749   7.590   5.313   2.206 -0.6851 -0.5515  0.9070
   32MOL   H60821750   7.755   5.273   1.874 -2.4843  1.4264  0.3179
   32MOL   H60921751   7.985   5.303   1.853  0.4380 -0.0431 -0.1139
   32MOL   H61021752   7.953   5.694   2.038  1.6691 -0.2748 -0.4427
   32MOL   H61121753   7.700   5.657   2.044 -0.0390  0.2647 -0.8859
   32MOL   H61221754   7.417   5.323   1.809 -2.7160 -1.6093 -0.8023
   32MOL   H61321755   7.315   5.110   1.854 -3.6952  2.5971  0.7385
   32MOL   C61421756   8.284   5.313   1.681  0.6573  0.4361  0.2962
   32MOL   C61521757   8.232   5.348   1.811 -0.6579 -0.3575  0.9114
   32MOL   C61621758   8.195   5.482   1.838  0.4333  0.2069  0.1699
   32MOL   O61721759   8.128   5.516   1.953 -0.5251 -0.2884 -0.3076
   32MOL   C61821760   8.208   5.581   1.737 -0.3563 -0.4973  0.3888
   32MOL   C61921761   8.251   5.548   1.611 -0.2418 -0.0257 -0.1296
   32MOL   C62021762   8.288   5.416   1.582 -0.4613 -0.0882 -0.5145
   32MOL   C62121763   0.025   5.374   1.450 -0.3602 -0.4873 -0.1564
   32MOL   O62221764   0.123   5.430   1.394 -0.3629 -0.3818 -0.5996
   32MOL   C62321765   8.264   5.272   1.369 -0.1229 -0.3096  0.2150
   32MOL   C62421766   8.134   5.224   1.411 -0.4500  0.8224 -1.2389
   32MOL   C62521767   8.066   5.120   1.342  0.0549 -0.3664 -0.0202
   32MOL   C62621768   8.123   5.070   1.226 -0.0617  0.1615  0.5073
   32MOL   O62721769   8.073   4.961   1.160 -0.2905 -0.3988 -0.1084
   32MOL   C62821770   7.955   4.981   1.093  0.0969  0.4333 -0.3859
   32MOL   C62921771   7.936   5.090   1.006  0.3888 -0.2242 -0.1665
   32MOL   C63021772   7.818   5.112   0.939 -0.4265  0.3663  0.1401
   32MOL   C63121773   7.713   5.013   0.946  0.0307 -0.2251 -0.8443
   32MOL   C63221774   7.730   4.905   1.033  0.5633 -0.1961 -0.1843
   32MOL   C63321775   7.847   4.886   1.110 -0.0838  0.3295  0.1059
   32MOL   C63421776   8.240   5.122   1.175  0.0517  0.1666 -0.1805
   32MOL   C63521777   0.003   5.218   1.248 -0.9584 -0.6512  0.0015
   32MOL   H63621778   0.003   5.212   1.660 -2.5272 -0.5030 -0.3805
   32MOL   H63721779   8.234   5.272   1.887 -1.3988 -0.4232  0.8705
   32MOL   H63821780   8.190   5.682   1.768  1.3043  0.4157 -1.5076
   32MOL   H63921781   8.248   5.630   1.540 -2.1563 -0.5985 -0.7377
   32MOL   H64021782   8.086   5.254   1.503 -2.1829 -0.9208 -1.5520
   32MOL   H64121783   7.979   5.075   1.388  1.2419 -4.1527 -1.2701
   32MOL   H64221784   8.015   5.163   1.015  0.9127 -0.9793  1.6224
   32MOL   H64321785   7.807   5.202   0.881  2.8219  0.7875  0.0897
   32MOL   H64421786   7.649   4.834   1.034 -0.3830  0.8211 -2.0387
   32MOL   H64521787   7.849   4.799   1.174 -1.3261  1.3511  1.5794
   32MOL   H64621788   8.283   5.083   1.084  2.7141  3.1521 -0.3177
   32MOL   H64721789   0.097   5.262   1.219 -0.6093 -0.0919  1.8843
   32MOL   C64821790   7.597   5.085   0.521 -0.6411 -0.6152  0.1335
   32MOL   C64921791   7.610   5.022   0.644 -0.7196 -0.2443  0.1139
   32MOL   C65021792   7.592   5.099   0.761 -0.1686 -0.3983  0.3683
   32MOL   O65121793   7.593   5.044   0.885 -0.1997  0.5697  0.0199
   32MOL   C65221794   7.545   5.231   0.751  0.1999  0.8826 -0.1843
   32MOL   C65321795   7.528   5.293   0.626  0.3848  0.3197 -0.3563
   32MOL   C65421796   7.550   5.219   0.508  0.0217  0.3126 -0.4799
   32MOL   C65521797   7.529   5.266   0.372  0.3539  0.4467 -0.7936
   32MOL   O65621798   7.547   5.186   0.276  0.2686 -0.4852  0.3494
   32MOL   C65721799   7.468   5.399   0.355  0.3349  0.1643 -0.4340
   32MOL   C65821800   7.355   5.418   0.278 -0.0922  0.3497 -0.1923
   32MOL   C65921801   7.294   5.541   0.270 -0.1749  0.2176  0.4369
   32MOL   C66021802   7.356   5.657   0.329 -0.0187  0.8006 -0.1946
   32MOL   O66121803   7.298   5.779   0.333  0.5928 -0.1983  0.2055
   32MOL   C66221804   7.365   5.880   0.262  0.1085 -0.1050 -0.4832
   32MOL   C66321805   7.441   5.978   0.323 -0.6164 -0.1674 -0.0898
   32MOL   C66421806   7.493   6.087   0.245  0.4562 -0.5080 -0.0896
   32MOL   C66521807   7.464   6.104   0.111 -0.1221 -0.6687 -0.5592
   32MOL   C66621808   7.391   6.008   0.045 -0.7919  0.0113 -0.2406
   32MOL   C66721809   7.335   5.899   0.116 -0.1508 -0.0910 -0.0367
   32MOL   C66821810   7.487   5.640   0.398  0.1074 -1.1177  0.5103
   32MOL   C66921811   7.536   5.515   0.406 -0.4196 -0.0761 -0.0723
   32MOL   H67021812   7.624   5.024   0.435 -1.1179  0.4803 -0.8046
   32MOL   H67121813   7.651   4.923   0.659 -2.8815 -1.0562  0.8719
   32MOL   H67221814   7.515   5.288   0.837  0.2642  0.2454  0.2614
   32MOL   H67321815   7.484   5.392   0.625 -2.4881 -0.8761 -2.2223
   32MOL   H67421816   7.302   5.327   0.252 -0.9617  1.1705 -1.3195
   32MOL   H67521817   7.202   5.554   0.215 -0.1434 -2.1620 -0.2528
   32MOL   H67621818   7.454   5.970   0.430 -0.8306 -0.8161 -0.1109
   32MOL   H67721819   7.543   6.168   0.296 -2.5833  1.1729  0.3107
   32MOL   H67821820   7.368   6.019   8.252 -2.8201  0.6688  0.2291
   32MOL   H67921821   7.282   5.820   0.065 -1.0507  0.6448 -0.2442
   32MOL   H68021822   7.534   5.723   0.448 -1.1818  1.0407 -1.7442
   32MOL   H68121823   7.639   5.503   0.438  0.1695  1.1094 -1.4566
   32MOL   H68221824   7.502   6.193   0.063 -2.0734  0.3578 -0.2394
   33MOL     C121825   1.561   5.678   4.660  0.2249 -0.0011  0.6885
   33MOL     C221826   1.581   5.778   4.759 -0.0530 -0.3068 -0.3283
   33MOL     C321827   1.641   5.897   4.725  0.3621 -0.1261  0.6229
   33MOL     O421828   1.640   6.002   4.813  0.0641 -0.1847 -0.2091
   33MOL     C521829   1.677   5.922   4.589 -0.3793 -0.3056  0.4233
   33MOL     C621830   1.663   5.822   4.494 -0.0029  0.7704 -0.2739
   33MOL     C721831   1.599   5.707   4.529  0.0547 -0.0751  0.0956
   33MOL     C821832   1.584   5.594   4.428 -0.7024 -0.2130 -0.4037
   33MOL     O921833   1.657   5.496   4.436  0.1105  0.6434  0.1467
   33MOL    C1021834   1.489   5.623   4.313 -0.4879  0.2465 -0.8940
   33MOL    C1121835   1.501   5.549   4.192  0.1206 -0.4100  0.7563
   33MOL    C1221836   1.405   5.566   4.085 -0.3572 -0.6647 -0.1179
   33MOL    C1321837   1.311   5.672   4.094 -0.4685 -0.2382  0.9219
   33MOL    O1421838   1.222   5.697   3.991  0.2938  0.2148  0.1275
   33MOL    C1521839   1.269   5.708   3.859  0.0868 -0.6979  0.7954
   33MOL    C1621840   1.383   5.783   3.824  0.3611  0.6327 -0.6411
   33MOL    C1721841   1.420   5.804   3.689 -0.8819  0.1273 -0.2573
   33MOL    C1821842   1.335   5.750   3.585  0.0625 -1.3855  0.1198
   33MOL    C1921843   1.226   5.670   3.619  0.0055  0.3963 -0.6032
   33MOL    C2021844   1.192   5.649   3.755 -0.3177  0.1553 -0.0509
   33MOL    C2121845   1.306   5.752   4.207 -0.3702  0.4820 -0.2756
   33MOL    C2221846   1.395   5.730   4.316 -0.2069 -0.0377 -0.0171
   33MOL    H2321847   1.522   5.582   4.691  0.7003 -0.7890 -1.0952
   33MOL    H2421848   1.545   5.761   4.860 -1.9831  1.1653 -0.7284
   33MOL    H2521849   1.709   6.023   4.569  0.0661 -0.4614  0.3250
   33MOL    H2621850   1.707   5.837   4.396  0.9892  0.5211  0.1361
   33MOL    H2721851   1.579   5.476   4.183  0.1883 -0.1290 -1.0768
   33MOL    H2821852   1.427   5.513   3.994 -2.6049 -1.6671 -0.1156
   33MOL    H2921853   1.446   5.813   3.906 -3.0510  0.9671  2.0179
   33MOL    H3021854   1.513   5.845   3.655  0.7734 -3.7231 -0.6112
   33MOL    H3121855   1.165   5.636   3.537  0.2040 -0.4070 -0.4222
   33MOL    H3221856   1.093   5.608   3.771 -0.6521  0.4174 -1.3499
   33MOL    H3321857   1.233   5.831   4.218  1.9361  2.5095  0.7071
   33MOL    H3421858   1.382   5.792   4.403  0.1729 -1.2120  0.8735
   33MOL    H3521859   1.685   6.080   4.786  2.7631 -1.7823 -0.5641
   33MOL    C3621860   1.253   6.135   3.418  0.3721  0.4616 -0.1925
   33MOL    C3721861   1.249   6.001   3.460 -0.3558 -0.0338  0.2111
   33MOL    C3821862   1.356   5.916   3.427  1.2532 -0.4498  0.1064
   33MOL    O3921863   1.352   5.784   3.453 -0.4546  0.1483 -0.5424
   33MOL    C4021864   1.468   5.967   3.351  0.3733  0.4245 -0.4249
   33MOL    C4121865   1.475   6.105   3.328  0.2868 -0.1964  1.0384
   33MOL    C4221866   1.365   6.192   3.354  0.5032 -0.1900 -0.4165
   33MOL    C4321867   1.374   6.342   3.338  0.0182 -0.3790  0.6419
   33MOL    O4421868   1.336   6.425   3.423 -0.2414  0.6394 -0.4467
   33MOL    C4521869   1.462   6.397   3.232 -0.8905 -0.7549 -0.0855
   33MOL    C4621870   1.475   6.335   3.107 -0.0445 -0.2401 -0.4037
   33MOL    C4721871   1.560   6.392   3.010  0.2301 -0.2856 -0.4638
   33MOL    C4821872   1.639   6.506   3.034  0.1913 -0.4050 -0.5399
   33MOL    O4921873   1.731   6.550   2.942  0.2986 -0.3001 -0.0616
   33MOL    C5021874   1.700   6.671   2.878 -0.8109 -0.8349 -0.2101
   33MOL    C5121875   1.788   6.782   2.887  0.0381 -0.4866  0.0220
   33MOL    C5221876   1.763   6.904   2.816 -0.3048 -0.4885  0.6776
   33MOL    C5321877   1.640   6.917   2.751  0.9503 -0.1788  0.0546
   33MOL    C5421878   1.558   6.809   2.730  0.1457 -0.6078 -0.0282
   33MOL    C5521879   1.588   6.685   2.789  0.1373  0.8007 -0.5735
   33MOL    C5621880   1.626   6.570   3.163  0.0653  0.6289  0.1781
   33MOL    C5721881   1.540   6.512   3.258 -0.2950  0.0450 -0.3008
   33MOL    H5821882   1.165   6.196   3.435 -1.0350 -2.2465  3.1047
   33MOL    H5921883   1.163   5.956   3.507  0.9030 -0.8210  1.7895
   33MOL    H6021884   1.554   5.907   3.325  0.2881  0.6667 -1.2851
   33MOL    H6121885   1.565   6.150   3.288 -0.1637  0.8476  1.1871
   33MOL    H6221886   1.426   6.240   3.089  0.9103 -0.6002 -1.1375
   33MOL    H6321887   1.579   6.345   2.915 -0.1955 -0.5374 -0.4202
   33MOL    H6421888   1.877   6.777   2.949  0.2626  0.3897 -0.2270
   33MOL    H6521889   1.837   6.982   2.829  2.4126 -2.7964 -0.4377
   33MOL    H6621890   1.474   6.818   2.663  0.1938  1.2067  0.1178
   33MOL    H6721891   1.519   6.608   2.758  1.2832 -0.7051  0.5547
   33MOL    H6821892   1.668   6.666   3.191 -1.4904  1.3236  0.2063
   33MOL    H6921893   1.522   6.557   3.355 -1.0722  0.5525 -0.6697
   33MOL    C7021894   1.588   7.379   2.770 -0.3614  0.3595  0.2759
   33MOL    C7121895   1.634   7.259   2.714  0.0374 -0.3776  0.8611
   33MOL    C7221896   1.558   7.140   2.731  0.0398 -0.0533 -0.4184
   33MOL    O7321897   1.611   7.025   2.675 -0.1926 -0.1872  0.1534
   33MOL    C7421898   1.431   7.146   2.789 -0.7016 -0.3342  0.2102
   33MOL    C7521899   1.383   7.272   2.844 -0.0643 -0.1760  0.3024
   33MOL    C7621900   1.460   7.391   2.829  0.1657 -0.5381  0.3314
   33MOL    C7721901   1.410   7.517   2.878  0.2879  0.2213 -0.6971
   33MOL    O7821902   1.362   7.525   2.995 -0.4586  0.2224 -0.0828
   33MOL    C7921903   1.412   7.633   2.790  0.1549  0.0493  0.4118
   33MOL    C8021904   1.397   7.760   2.847 -0.1984  0.6541 -0.4382
   33MOL    C8121905   1.371   7.864   2.760 -0.0314 -0.0786  0.6177
   33MOL    C8221906   1.357   7.853   2.618  0.1573  0.5702  0.0093
   33MOL    O8321907   1.306   7.951   2.536  0.9130  0.5768 -0.5581
   33MOL    C8421908   1.170   7.973   2.542 -0.1101 -0.3869 -0.9721
   33MOL    C8521909   1.077   7.868   2.574  0.3103  0.6560 -1.1354
   33MOL    C8621910   0.941   7.896   2.590 -0.8028 -0.7231  0.0854
   33MOL    C8721911   0.892   8.026   2.591  0.0387 -0.2280  0.0183
   33MOL    C8821912   0.977   8.132   2.554 -0.3385 -0.1084  0.8798
   33MOL    C8921913   1.117   8.102   2.532  0.4170 -0.2884 -0.6287
   33MOL    C9021914   1.392   7.720   2.566 -0.2157 -0.3539  0.4535
   33MOL    C9121915   1.412   7.611   2.655 -0.6618 -0.3732  0.1673
   33MOL    H9221916   1.646   7.470   2.762  2.1963 -1.2396  0.2521
   33MOL    H9321917   1.730   7.250   2.665 -0.4286 -0.8762  0.0295
   33MOL    H9421918   1.363   7.063   2.794 -1.6074  0.4982  2.7213
   33MOL    H9521919   1.282   7.273   2.882  0.4510 -0.3885  1.7261
   33MOL    H9621920   1.403   7.784   2.953 -2.4121  1.5759 -0.4973
   33MOL    H9721921   1.351   7.959   2.807 -1.0885 -0.0264  0.0666
   33MOL    H9821922   1.108   7.765   2.577 -1.5929  0.1370  2.8539
   33MOL    H9921923   0.879   7.807   2.590 -1.5708 -0.2063 -1.3951
   33MOL   H10021924   0.942   8.234   2.544  0.4242  0.1510  0.7921
   33MOL   H10121925   1.175   8.192   2.522 -1.7189  1.0058 -1.7278
   33MOL   H10221926   1.395   7.710   2.459  0.6362  1.9746  0.2268
   33MOL   H10321927   1.422   7.511   2.616  0.1490 -0.8581  1.5840
   33MOL   C10421928   0.511   8.088   2.377 -0.6955 -0.1920  0.3037
   33MOL   C10521929   0.621   8.044   2.447 -0.0631 -0.4310  0.1616
   33MOL   C10621930   0.665   8.102   2.563  1.4631 -0.4607  0.1969
   33MOL   O10721931   0.762   8.045   2.638  0.5417  0.4682  0.0968
   33MOL   C10821932   0.593   8.208   2.616  0.4879 -0.4089  0.0042
   33MOL   C10921933   0.487   8.264   2.542  0.0684  0.2265  0.7720
   33MOL   C11021934   0.447   8.202   2.423 -0.0726 -0.2385  0.8100
   33MOL   C11121935   0.332   8.263   2.344 -0.3181 -0.5759  0.0257
   33MOL   O11221936   0.343   8.279   2.224  0.6278  0.2669  0.3839
   33MOL   C11321937   0.214   8.312   2.426  1.2025 -0.9292  0.4145
   33MOL   C11421938   0.182   8.253   2.550 -0.4100 -0.0744  1.1454
   33MOL   C11521939   0.070   8.300   2.620  0.1069 -0.1758 -0.2883
   33MOL   C11621940   8.309   0.094   2.568 -0.3012  0.0303 -0.3212
   33MOL   O11721941   8.200   0.139   2.644 -0.6666 -0.1639  0.7089
   33MOL   C11821942   8.197   0.273   2.663 -0.9292 -0.5430  0.1601
   33MOL   C11921943   8.284   0.340   2.754 -0.1214  0.0764 -0.5289
   33MOL   C12021944   8.277   0.478   2.780  0.7616  0.2861  0.2480
   33MOL   C12121945   8.179   0.553   2.713 -0.0891  0.3139  0.4320
   33MOL   C12221946   8.083   0.482   2.636 -0.3562 -0.5258  0.4911
   33MOL   C12321947   8.097   0.350   2.606 -0.2004 -0.4912  0.4859
   33MOL   C12421948   0.027   0.148   2.445  0.0021 -0.2783  0.7562
   33MOL   C12521949   0.129   0.095   2.365  0.7379 -0.3511  0.6775
   33MOL   H12621950   0.477   8.035   2.290  0.3756  1.4689 -1.1660
   33MOL   H12721951   0.673   7.962   2.400 -0.9149 -1.0895  0.3309
   33MOL   H12821952   0.622   8.247   2.712 -2.4065  0.3640  0.6209
   33MOL   H12921953   0.430   0.034   2.582 -0.5066  0.2771 -0.1522
   33MOL   H13021954   0.235   8.167   2.588 -1.0662 -0.0072  2.2240
   33MOL   H13121955   0.051   8.265   2.720  1.8088  0.6065  0.3361
   33MOL   H13221956   0.050   0.278   2.795 -1.3985  0.7835  3.1333
   33MOL   H13321957   0.032   0.530   2.847  1.4757 -0.3273  0.0089
   33MOL   H13421958   7.998   0.534   2.594  0.5597 -0.6546 -1.6183
   33MOL   H13521959   8.023   0.305   2.542 -0.3798  0.5773 -0.0646
   33MOL   H13621960   8.287   0.237   2.414  1.6170 -0.0256 -1.4630
   33MOL   H13721961   0.146   0.140   2.269 -3.0101  3.4257  1.6606
   33MOL   C13821962   7.910   0.749   2.983 -0.2499  0.2750 -0.8908
   33MOL   C13921963   7.964   0.698   2.865  0.3619 -0.4646  0.2058
   33MOL   C14021964   8.102   0.735   2.840  0.1062  0.4242 -0.0536
   33MOL   O14121965   8.166   0.690   2.730  0.3046  0.2624 -0.1784
   33MOL   C14221966   8.172   0.818   2.931  0.0927 -0.5003 -0.4494
   33MOL   C14321967   8.111   0.871   3.047  0.2127  0.0996  0.9439
   33MOL   C14421968   7.977   0.838   3.073  0.2092  0.2732  0.5192
   33MOL   C14521969   7.919   0.879   3.206  0.1410  0.1536 -0.1473
   33MOL   O14621970   7.953   0.980   3.262 -0.4103  0.0882  0.0604
   33MOL   C14721971   7.834   0.779   3.264  0.0199 -0.3667 -0.4394
   33MOL   C14821972   7.882   0.650   3.292 -0.7277  0.1189  0.0795
   33MOL   C14921973   7.800   0.554   3.352 -0.0168  0.0652 -0.0176
   33MOL   C15021974   7.671   0.587   3.401  0.6869 -0.3699  0.1519
   33MOL   O15121975   7.584   0.497   3.467 -0.2732  0.1280  0.8675
   33MOL   C15221976   7.584   0.372   3.411  0.5441  0.0331  0.2357
   33MOL   C15321977   7.666   0.268   3.465 -0.1139 -0.2586 -0.0665
   33MOL   C15421978   7.645   0.135   3.418 -1.1938 -0.1800 -0.3213
   33MOL   C15521979   7.549   0.108   3.319  0.7940 -0.1561 -0.2502
   33MOL   C15621980   7.476   0.211   3.258  0.0020 -0.9103 -0.4384
   33MOL   C15721981   7.490   0.339   3.306  0.2989 -0.8481  0.7943
   33MOL   C15821982   7.621   0.715   3.376  0.1438 -0.7039  0.5970
   33MOL   C15921983   7.700   0.807   3.307  0.6722 -0.5647  0.3662
   33MOL   H16021984   7.809   0.716   3.001 -0.1142  0.5758  0.4490
   33MOL   H16121985   7.903   0.640   2.797  0.0434  1.3703 -1.1062
   33MOL   H16221986   8.277   0.840   2.918 -0.2818  0.0850 -2.6923
   33MOL   H16321987   8.177   0.933   3.106  0.8403 -0.4571  0.8292
   33MOL   H16421988   7.981   0.616   3.267 -0.2980 -0.5401  2.5127
   33MOL   H16521989   7.830   0.451   3.359 -1.6572 -0.6029 -2.2956
   33MOL   H16621990   7.740   0.288   3.540 -0.0727  1.6956 -0.6114
   33MOL   H16721991   7.691   0.055   3.473 -2.1045 -1.2063 -1.0156
   33MOL   H16821992   7.401   0.185   3.184 -0.2039  1.8819 -1.2645
   33MOL   H16921993   7.446   0.428   3.264 -1.9272 -1.0390  2.6524
   33MOL   H17021994   7.520   0.733   3.407 -0.6559 -0.6899 -1.9050
   33MOL   H17121995   7.652   0.897   3.273 -1.7893 -2.0726 -0.2680
   33MOL   C17221996   7.803   8.110   3.160  0.2793 -0.0247  0.7062
   33MOL   C17321997   7.705   8.210   3.166  0.5062 -0.2104 -0.3886
   33MOL   C17421998   7.612   8.204   3.273 -0.2412 -0.4936  0.1503
   33MOL   O17521999   7.512   8.293   3.287  0.1600  0.4602 -0.1412
   33MOL   C17622000   7.611   8.102   3.367  0.2181 -0.2650  0.8471
   33MOL   C17722001   7.700   7.992   3.345  0.2252 -0.2744  0.1678
   33MOL   C17822002   7.798   7.997   3.244 -0.0448 -0.5616 -0.3994
   33MOL   C17922003   7.886   7.884   3.223 -0.5080  0.2251 -0.2605
   33MOL   O18022004   7.848   7.773   3.184 -0.6825 -0.3757 -0.5914
   33MOL   C18122005   8.031   7.920   3.229  0.5972  0.5814 -0.7257
   33MOL   C18222006   8.124   7.846   3.148 -0.0069 -0.7641  0.5239
   33MOL   C18322007   8.254   7.891   3.133  0.2042 -0.1427 -0.1355
   33MOL   C18422008   8.301   8.001   3.208  0.3395 -0.1552 -0.0788
   33MOL   O18522009   0.113   8.041   3.190  0.1592  0.6238 -0.7718
   33MOL   C18622010   0.139   8.155   3.118 -0.4466 -0.1893  0.0551
   33MOL   C18722011   0.212   8.137   3.002 -1.0606 -0.5842 -0.8684
   33MOL   C18822012   0.243   8.244   2.921  0.1387  0.1348  0.0499
   33MOL   C18922013   0.191   0.058   2.948 -0.0212  0.5114 -0.6386
   33MOL   C19022014   0.126   0.074   3.072  0.0497  0.0308  0.1339
   33MOL   C19122015   0.100   8.282   3.158 -0.2952 -0.6946 -0.4242
   33MOL   C19222016   8.208   8.061   3.298 -0.6433 -0.5438  0.0370
   33MOL   C19322017   8.075   8.024   3.309 -0.2199 -0.7665 -0.1646
   33MOL   H19422018   7.869   8.100   3.075  0.2610  1.5918  0.4850
   33MOL   H19522019   7.696   8.290   3.094 -1.3610 -0.5048 -0.4995
   33MOL   H19622020   7.537   8.089   3.445  0.4508 -0.9259  0.9610
   33MOL   H19722021   7.698   7.909   3.414  0.5552 -0.9802 -0.6716
   33MOL   H19822022   8.079   7.759   3.103 -0.2464 -2.1385  3.3193
   33MOL   H19922023   0.014   7.841   3.071  1.4683 -2.4101  3.0381
   33MOL   H20022024   0.248   8.038   2.980 -0.1916 -0.9434  1.9682
   33MOL   H20122025   0.315   8.230   2.842  0.0393  0.5391 -0.1135
   33MOL   H20222026   0.094   0.172   3.103 -2.7846 -1.2440  1.4086
   33MOL   H20322027   0.052   8.301   3.253 -0.6488  0.0182 -0.7435
   33MOL   H20422028   8.246   8.142   3.360 -1.0290 -0.9931  0.8697
   33MOL   H20522029   8.006   8.074   3.375  1.0467 -1.0372  1.4001
   33MOL   C20622030   0.544   0.306   2.966 -0.2563 -0.0446  0.1155
   33MOL   C20722031   0.446   0.224   2.908 -0.1400  0.2816  0.3414
   33MOL   C20822032   0.310   0.249   2.926  0.1148  0.4003  0.3610
   33MOL   O20922033   0.219   0.164   2.869  1.1605 -0.4717 -0.2286
   33MOL   C21022034   0.264   0.359   2.999 -0.3745  0.1292  0.2555
   33MOL   C21122035   0.360   0.443   3.057  0.4744  0.3492 -0.8251
   33MOL   C21222036   0.496   0.419   3.040 -0.3970 -0.1593  0.2743
   33MOL   C21322037   0.593   0.516   3.098  0.1444  0.0610  0.4725
   33MOL   O21422038   0.566   0.632   3.110  0.2159  0.0456 -0.6764
   33MOL   C21522039   0.723   0.458   3.148 -0.7823 -1.1532 -0.0018
   33MOL   C21622040   0.841   0.519   3.093  0.0274  1.4921  0.4822
   33MOL   C21722041   0.965   0.463   3.141  0.1733 -0.0393 -1.1259
   33MOL   C21822042   0.967   0.374   3.250  0.0752 -0.0157  0.4395
   33MOL   O21922043   1.091   0.350   3.299 -0.0468 -0.2381 -0.0105
   33MOL   C22022044   1.118   0.218   3.321  1.0472  0.2588 -0.1401
   33MOL   C22122045   1.109   0.163   3.446 -0.1732 -0.1679 -0.4703
   33MOL   C22222046   1.136   0.024   3.460  0.6733  0.1618  0.0064
   33MOL   C22322047   1.183   8.256   3.351  0.2029 -0.0598 -0.7213
   33MOL   C22422048   1.198   0.003   3.223 -0.0445 -0.6797 -0.2716
   33MOL   C22522049   1.157   0.138   3.204 -0.5348 -0.6523  0.4216
   33MOL   C22622050   0.851   0.335   3.317  0.6090  0.2901  0.1107
   33MOL   C22722051   0.727   0.369   3.257 -0.2159 -0.0887 -0.9121
   33MOL   H22822052   0.648   0.290   2.943 -0.8865 -2.3332 -1.3028
   33MOL   H22922053   0.476   0.137   2.852  0.2327 -0.1752  1.2274
   33MOL   H23022054   0.161   0.381   3.021  0.3646  3.1013  0.9808
   33MOL   H23122055   0.328   0.525   3.119  0.9644 -0.0836  0.0053
   33MOL   H23222056   0.841   0.606   3.030  2.3425  2.9293  2.3627
   33MOL   H23322057   1.061   0.491   3.099  1.4652 -2.4225  0.1072
   33MOL   H23422058   1.072   0.237   3.514  0.2487 -0.3559 -0.0370
   33MOL   H23522059   1.112   8.300   3.558  0.2973  0.5870  0.0769
   33MOL   H23622060   1.251   8.263   3.145  0.0177  0.8986 -1.3189
   33MOL   H23722061   1.163   0.187   3.108 -0.4764  1.6190  1.5699
   33MOL   H23822062   0.852   0.271   3.404  0.0221  0.7626  0.4695
   33MOL   H23922063   0.632   0.334   3.295 -0.1096 -1.2464 -1.6915
   33MOL   C24022064   1.025   7.881   3.169  0.6690 -0.6931  0.1199
   33MOL   C24122065   1.127   7.979   3.203 -0.0087  0.2526  0.7372
   33MOL   C24222066   1.117   8.035   3.326  0.2022 -0.7289  0.0616
   33MOL   O24322067   1.213   8.130   3.370 -0.5680  0.3151  0.4482
   33MOL   C24422068   1.019   7.995   3.422  0.6658 -0.0189  0.0051
   33MOL   C24522069   0.930   7.898   3.393 -0.2844  0.0884  0.3862
   33MOL   C24622070   0.931   7.836   3.265  0.1895 -0.4721 -0.8530
   33MOL   C24722071   0.839   7.730   3.222  0.3179 -0.3392  0.3782
   33MOL   O24822072   0.816   7.708   3.104  0.7160 -0.2015 -0.4235
   33MOL   C24922073   0.775   7.645   3.326  0.2160  0.4496  0.1401
   33MOL   C25022074   0.640   7.605   3.307  0.0328 -0.8620 -0.4422
   33MOL   C25122075   0.574   7.518   3.401  0.5518  0.5602 -0.3382
   33MOL   C25222076   0.647   7.483   3.519 -0.0173  0.3990  0.3198
   33MOL   O25322077   0.591   7.393   3.612  0.4565 -0.1816  0.2736
   33MOL   C25422078   0.641   7.267   3.629 -0.3105 -0.2219  0.7156
   33MOL   C25522079   0.601   7.166   3.541 -0.8618  1.0503  0.7583
   33MOL   C25622080   0.669   7.040   3.549 -0.1633  0.2846  0.2571
   33MOL   C25722081   0.780   7.020   3.641  0.6091  0.3636  0.1320
   33MOL   C25822082   0.808   7.123   3.734  0.2698 -0.4218  0.4687
   33MOL   C25922083   0.734   7.243   3.728 -1.3648 -0.4418  0.0144
   33MOL   C26022084   0.780   7.534   3.543 -0.3860 -0.0278 -0.6688
   33MOL   C26122085   0.845   7.607   3.440 -0.4929  0.1941 -0.1309
   33MOL   H26222086   1.032   7.841   3.069  0.7443 -1.5138  0.4571
   33MOL   H26322087   1.196   8.012   3.127 -1.4616 -3.0086 -2.1455
   33MOL   H26422088   1.032   8.031   3.523 -0.1461  1.0732 -0.2658
   33MOL   H26522089   0.870   7.878   3.480  0.7061  2.0007  1.5237
   33MOL   H26622090   0.590   7.637   3.217 -0.9159  0.1112  0.4370
   33MOL   H26722091   0.473   7.479   3.394  1.0832 -0.5668 -2.0540
   33MOL   H26822092   0.538   7.181   3.455  0.1554 -2.0269 -0.6190
   33MOL   H26922093   0.640   6.957   3.485  0.9334  1.6138 -2.0209
   33MOL   H27022094   0.886   7.104   3.806 -0.2914 -0.6629  1.0229
   33MOL   H27122095   0.765   7.319   3.798 -2.4550 -0.4563  0.5217
   33MOL   H27222096   0.831   7.494   3.629 -0.6128  2.2961  0.5924
   33MOL   H27322097   0.945   7.640   3.462 -1.5439  1.5307  2.9192
   33MOL   C27422098   0.655   6.652   3.815  0.1903  0.3087  0.2993
   33MOL   C27522099   0.688   6.746   3.719 -0.1816  0.7099  0.3204
   33MOL   C27622100   0.811   6.811   3.725  0.1197 -0.0209 -0.1710
   33MOL   O27722101   0.852   6.906   3.637 -0.0905 -0.1187  0.1593
   33MOL   C27822102   0.900   6.773   3.827 -0.3235  0.5806 -0.0711
   33MOL   C27922103   0.863   6.684   3.927  0.0264  0.3902  0.5802
   33MOL   C28022104   0.737   6.623   3.920  0.8224  0.5770 -0.4726
   33MOL   C28122105   0.698   6.520   4.017 -0.0541 -0.2939  0.4607
   33MOL   O28222106   0.717   6.396   4.003  0.0955 -0.2346 -0.3037
   33MOL   C28322107   0.627   6.556   4.139 -0.3179 -0.8712 -0.0066
   33MOL   C28422108   0.564   6.682   4.150  0.3955 -0.3879  0.2470
   33MOL   C28522109   0.493   6.720   4.265 -0.5048  0.1616  0.1077
   33MOL   C28622110   0.487   6.631   4.376 -0.4747 -0.1773 -0.3232
   33MOL   O28722111   0.420   6.662   4.493  0.5069  0.2068  0.2836
   33MOL   C28822112   0.476   6.768   4.563 -0.4189  0.0409  0.4190
   33MOL   C28922113   0.611   6.785   4.583 -0.2102  0.2164  0.5730
   33MOL   C29022114   0.658   6.903   4.636 -0.3003  0.7795  0.6188
   33MOL   C29122115   0.567   6.992   4.691  0.0579 -0.6290 -0.8421
   33MOL   C29222116   0.430   6.977   4.679  0.3692  0.1035  0.0040
   33MOL   C29322117   0.385   6.862   4.621 -0.6739 -0.2718  0.2708
   33MOL   C29422118   0.546   6.502   4.368  0.8664 -0.3458  0.5337
   33MOL   C29522119   0.610   6.464   4.248  0.2042  0.1180 -0.3880
   33MOL   H29622120   0.560   6.603   3.802  0.8888 -1.3768  1.4491
   33MOL   H29722121   0.623   6.759   3.633 -0.2142  0.8577  0.3671
   33MOL   H29822122   0.989   6.833   3.838 -0.7544  1.3535 -0.8055
   33MOL   H29922123   0.940   6.655   3.996 -0.2946  0.8499  1.1311
   33MOL   H30022124   0.558   6.750   4.066 -2.5441  1.5018  1.8885
   33MOL   H30122125   0.430   6.807   4.263  0.5565  0.9262 -2.2890
   33MOL   H30222126   0.686   6.715   4.550  0.8474  1.9618 -0.8360
   33MOL   H30322127   0.765   6.905   4.649 -0.1839  0.5634 -0.3145
   33MOL   H30422128   0.361   7.053   4.713 -1.1099 -0.8184 -0.9101
   33MOL   H30522129   0.277   6.866   4.617 -0.6873 -0.3029  0.6071
   33MOL   H30622130   0.543   6.438   4.454  1.2935 -0.5926  0.3640
   33MOL   H30722131   0.653   6.366   4.242  2.0281  0.9686 -1.7099
   33MOL   C30822132   0.955   7.170   4.697  0.6166  0.4052 -0.4780
   33MOL   C30922133   0.819   7.161   4.686  0.4257  0.9335  0.6518
   33MOL   C31022134   0.738   7.130   4.793 -0.0085 -0.4732 -0.1631
   33MOL   O31122135   0.607   7.096   4.774  0.4218 -0.6775 -0.1600
   33MOL   C31222136   0.792   7.121   4.922 -0.1403 -0.6869  0.7293
   33MOL   C31322137   0.929   7.131   4.944  0.7743  0.4753  0.4342
   33MOL   C31422138   1.011   7.154   4.831  0.3952  0.5533  0.7704
   33MOL   C31522139   1.160   7.142   4.852  0.8968  0.7126 -0.3440
   33MOL   O31622140   1.211   7.144   4.963 -0.3553  0.8427  0.1344
   33MOL   C31722141   1.238   7.141   4.726 -0.6366  0.3525 -0.1291
   33MOL   C31822142   1.260   7.022   4.660 -0.1504 -0.2006 -0.4500
   33MOL   C31922143   1.338   7.017   4.542  0.2513  0.1661 -0.0662
   33MOL   C32022144   1.397   7.137   4.494  0.1105 -0.3280  0.0421
   33MOL   O32122145   1.485   7.123   4.390  0.6329  0.5043  0.0477
   33MOL   C32222146   1.438   7.151   4.265 -0.1084  0.8632  0.1150
   33MOL   C32322147   1.421   7.046   4.170 -0.0150  0.3521 -0.6743
   33MOL   C32422148   1.372   7.075   4.042  0.4726  0.5528  0.1797
   33MOL   C32522149   1.339   7.208   4.007 -0.2945 -0.1924 -0.1033
   33MOL   C32622150   1.362   7.311   4.091  0.2677 -0.0036  0.0386
   33MOL   C32722151   1.415   7.284   4.218 -0.6037 -0.4382  0.3615
   33MOL   C32822152   1.362   7.259   4.556 -0.5288  0.1730  0.4331
   33MOL   C32922153   1.280   7.265   4.669  0.0278 -0.1474 -0.4374
   33MOL   H33022154   1.013   7.178   4.607 -0.3890  5.2207 -0.8107
   33MOL   H33122155   0.770   7.175   4.591 -0.0368  2.1391  1.0558
   33MOL   H33222156   0.727   7.086   5.001  0.1420  0.4894  1.4904
   33MOL   H33322157   0.972   7.098   5.038  1.1468  1.5076  0.6276
   33MOL   H33422158   1.229   6.932   4.711 -2.0316  0.6668 -0.0298
   33MOL   H33522159   1.360   6.923   4.495 -0.9796 -0.8456  1.3512
   33MOL   H33622160   1.435   6.940   4.187  0.5016  0.3990 -0.8032
   33MOL   H33722161   1.353   6.996   3.972  3.1152  1.4140 -1.6058
   33MOL   H33822162   1.354   7.417   4.072 -2.6401 -0.2818 -0.5110
   33MOL   H33922163   1.442   7.369   4.279 -3.1089  1.1281 -0.6585
   33MOL   H34022164   1.406   7.349   4.516  0.0809  0.7870  2.4179
   33MOL   H34122165   1.259   7.362   4.710 -1.6539 -0.5170 -0.4110
   33MOL   C34222166   1.571   7.370   3.663  0.2844 -0.1988 -0.2808
   33MOL   C34322167   1.462   7.362   3.753  0.4029  1.1398 -0.4048
   33MOL   C34422168   1.401   7.234   3.781  0.4819  0.3162 -0.2422
   33MOL   O34522169   1.300   7.234   3.881 -0.5978 -0.3074  0.7910
   33MOL   C34622170   1.433   7.120   3.702 -0.0073 -0.1011  0.0111
   33MOL   C34722171   1.536   7.136   3.605  0.5561 -0.5088  0.3213
   33MOL   C34822172   1.604   7.256   3.582  0.3031 -0.1763  0.2618
   33MOL   C34922173   1.713   7.281   3.481 -0.0577  0.5361 -0.0664
   33MOL   O35022174   1.813   7.212   3.484  0.0298 -0.2279  0.3658
   33MOL   C35122175   1.687   7.389   3.377 -0.6912  0.0801 -0.3521
   33MOL   C35222176   1.801   7.454   3.315 -0.3051  0.7555 -0.0065
   33MOL   C35322177   1.783   7.561   3.226  0.1466 -0.0178 -0.3013
   33MOL   C35422178   1.652   7.609   3.206 -0.0976  0.1793 -0.1962
   33MOL   O35522179   1.643   7.726   3.127 -0.6054 -0.0418 -0.2866
   33MOL   C35622180   1.610   7.848   3.187 -0.4539 -0.4771  0.3979
   33MOL   C35722181   1.657   7.964   3.121  0.3204  1.4410  0.1224
   33MOL   C35822182   1.621   8.089   3.168 -0.1853  0.8525 -0.1042
   33MOL   C35922183   1.540   8.103   3.286 -0.0924 -0.0851 -0.6642
   33MOL   C36022184   1.498   7.983   3.354 -0.2656  0.1839  0.3358
   33MOL   C36122185   1.538   7.856   3.303 -0.0900 -0.0636 -0.0751
   33MOL   C36222186   1.538   7.548   3.268  0.4652 -0.3830 -0.0326
   33MOL   C36322187   1.560   7.431   3.348 -0.1765 -0.4312  0.7395
   33MOL   H36422188   1.616   7.466   3.645  0.4986 -0.3712 -0.6612
   33MOL   H36522189   1.440   7.453   3.807  0.0107  1.1800 -0.6328
   33MOL   H36622190   1.390   7.021   3.711  4.5190 -2.4363 -2.7742
   33MOL   H36722191   1.556   7.046   3.550  3.7883 -0.3661  1.1699
   33MOL   H36822192   1.900   7.424   3.347 -1.2508 -0.5840  1.7359
   33MOL   H36922193   1.865   7.610   3.175  0.2465  2.3655  2.0581
   33MOL   H37022194   1.707   7.955   3.026  1.4108 -0.2538  0.8314
   33MOL   H37122195   1.654   8.173   3.108  2.0049 -0.3754 -0.6791
   33MOL   H37222196   1.435   7.999   3.440 -0.0960 -0.9614  0.6846
   33MOL   H37322197   1.510   7.762   3.347  1.8226  0.0346  1.4388
   33MOL   H37422198   1.438   7.572   3.234  0.5647  0.4469  0.2556
   33MOL   H37522199   1.473   7.380   3.389  1.0126 -2.0098  1.3388
   33MOL   C37622200   1.553   0.118   3.625  0.7835  0.4327 -0.0652
   33MOL   C37722201   1.494   0.046   3.519  0.0650 -0.0810  0.3744
   33MOL   C37822202   1.564   8.268   3.445 -0.0434  0.1735  0.4917
   33MOL   O37922203   1.508   8.226   3.328  0.4398 -0.6941 -0.6149
   33MOL   C38022204   1.696   8.236   3.488  0.3190  0.7319 -0.6039
   33MOL   C38122205   1.750   8.301   3.595  0.6291  0.2344  0.1594
   33MOL   C38222206   1.683   0.085   3.666  0.3892  0.1739 -0.3487
   33MOL   C38322207   1.745   0.154   3.782 -0.4518  0.0433 -0.1181
   33MOL   O38422208   1.699   0.160   3.898 -0.2065 -0.1820 -0.0764
   33MOL   C38522209   1.866   0.235   3.753 -0.3599  0.1975 -0.4165
   33MOL   C38622210   1.945   0.275   3.860 -0.2947  0.0446 -0.3152
   33MOL   C38722211   2.063   0.356   3.834 -1.0683  0.2282 -0.2447
   33MOL   C38822212   2.103   0.390   3.703  0.1394  0.1244 -0.2450
   33MOL   O38922213   2.213   0.465   3.671 -0.5177 -0.5654 -0.5200
   33MOL   C39022214   2.315   0.393   3.608 -1.2059 -0.2144 -0.8657
   33MOL   C39122215   2.354   0.423   3.477  0.3215 -0.6965  0.2306
   33MOL   C39222216   2.461   0.350   3.419  0.6968  0.5120  1.1059
   33MOL   C39322217   2.536   0.250   3.493 -0.2437 -0.2672  0.1252
   33MOL   C39422218   2.497   0.236   3.627  0.2991 -0.0961 -0.4898
   33MOL   C39522219   2.386   0.302   3.679 -0.3092  0.6707 -0.5770
   33MOL   C39622220   2.020   0.357   3.593  0.1900  0.2339 -0.0497
   33MOL   C39722221   1.906   0.272   3.621 -0.1387  0.1545 -0.4410
   33MOL   H39822222   1.492   0.197   3.668 -1.0563 -0.0755 -1.6731
   33MOL   H39922223   1.393   0.076   3.497 -0.7322 -1.3222  2.1838
   33MOL   H40022224   1.749   8.152   3.445  0.7044  0.4105  0.4714
   33MOL   H40122225   1.846   8.264   3.628  0.6443  0.8458  0.8177
   33MOL   H40222226   1.928   0.234   3.958  2.1651 -0.5246 -0.1017
   33MOL   H40322227   2.114   0.389   3.923  1.0031  1.6796 -1.9103
   33MOL   H40422228   2.303   0.493   3.412  0.3926 -1.6661 -0.8851
   33MOL   H40522229   2.492   0.369   3.317  0.9346 -2.3266  0.6254
   33MOL   H40622230   2.547   0.167   3.693 -1.6285  0.3423  1.4757
   33MOL   H40722231   2.372   0.286   3.785  0.6104 -0.9230 -0.6660
   33MOL   H40822232   2.044   0.393   3.493  2.0094 -0.0192  0.2892
   33MOL   H40922233   1.841   0.253   3.537 -3.4005  1.8895  1.5819
   33MOL   C41022234   3.011   0.172   3.444 -0.7106 -0.0618  0.0009
   33MOL   C41122235   2.876   0.127   3.427  0.1969  0.1798  0.6549
   33MOL   C41222236   2.766   0.220   3.447 -0.2069 -0.9694 -0.3391
   33MOL   O41322237   2.635   0.184   3.429  0.1579 -0.1914  0.0851
   33MOL   C41422238   2.795   0.353   3.482 -0.4072 -0.3014 -0.3032
   33MOL   C41522239   2.934   0.405   3.490  0.4159  0.1385 -0.3301
   33MOL   C41622240   3.039   0.307   3.483 -0.2368  0.4802  0.5737
   33MOL   C41722241   3.179   0.346   3.512  0.2433 -0.4576  0.3208
   33MOL   O41822242   3.214   0.460   3.484  0.1571 -0.3031  0.9359
   33MOL   C41922243   3.274   0.258   3.586 -0.1279  0.0005 -0.0401
   33MOL   C42022244   3.234   0.179   3.696 -0.0389 -0.7397 -0.1434
   33MOL   C42122245   3.328   0.098   3.761 -0.5064 -0.5979  0.0207
   33MOL   C42222246   3.463   0.098   3.715 -0.1560  0.0598  0.0620
   33MOL   O42322247   3.559   0.021   3.782  0.0046 -0.0218 -0.1865
   33MOL   C42422248   3.553   8.206   3.749 -0.4328  0.6709  0.1500
   33MOL   C42522249   3.605   8.163   3.630 -0.3348 -0.6657  0.3169
   33MOL   C42622250   3.594   8.036   3.596  0.1524  0.2536  0.2952
   33MOL   C42722251   3.541   7.940   3.680  0.1678  0.5670  0.2444
   33MOL   C42822252   3.497   7.975   3.807 -0.0116  0.1514 -0.4568
   33MOL   C42922253   3.507   8.110   3.843 -0.0991 -0.0343  0.2308
   33MOL   C43022254   3.501   0.172   3.603 -0.5804 -0.3595  0.6658
   33MOL   C43122255   3.408   0.256   3.543  0.2034 -0.7576 -0.8266
   33MOL   H43222256   3.094   0.103   3.434 -0.4555  0.2944 -0.3784
   33MOL   H43322257   2.857   0.029   3.385 -1.0024  0.2219  1.0886
   33MOL   H43422258   2.722   0.430   3.498  0.2884  0.3942 -0.4193
   33MOL   H43522259   2.954   0.507   3.518  0.0335 -0.3749  1.8567
   33MOL   H43622260   3.137   0.182   3.743  0.8700 -1.4104  1.8464
   33MOL   H43722261   3.291   0.037   3.843 -2.7721  0.0612 -0.5012
   33MOL   H43822262   3.631   8.242   3.561 -0.7298 -0.9315 -0.1366
   33MOL   H43922263   3.632   8.009   3.499  0.0120 -1.7896  0.8009
   33MOL   H44022264   3.459   7.901   3.876 -1.9196 -0.4597 -2.1149
   33MOL   H44122265   3.466   8.154   3.932  1.7453  3.4112 -0.5280
   33MOL   H44222266   3.602   0.172   3.565 -0.4879 -1.5742  0.8813
   33MOL   H44322267   3.438   0.307   3.453 -0.6598 -0.7379 -1.1131
   33MOL   C44422268   3.768   7.642   3.417  0.4216  0.2919  0.3025
   33MOL   C44522269   3.668   7.728   3.460  0.2514  0.2322  0.1318
   33MOL   C44622270   3.647   7.747   3.601  0.3620  0.0968  0.2042
   33MOL   O44722271   3.535   7.811   3.642  0.0901  0.2095 -0.3200
   33MOL   C44822272   3.741   7.694   3.696 -0.4776 -0.0815  0.1392
   33MOL   C44922273   3.843   7.604   3.643  0.5517  0.0996  0.4315
   33MOL   C45022274   3.849   7.572   3.504 -0.5008 -0.1169 -0.1862
   33MOL   C45122275   3.949   7.474   3.449 -0.6005  0.1499  0.0333
   33MOL   O45222276   3.943   7.428   3.333  0.6637 -0.4552 -0.1160
   33MOL   C45322277   4.064   7.444   3.533  0.0875  0.3062  0.2110
   33MOL   C45422278   4.182   7.526   3.528  0.2761 -0.0267  0.2717
   33MOL   C45522279   4.285   7.498   3.625 -0.1592 -0.3788  0.5009
   33MOL   C45622280   4.278   7.392   3.712  0.1147 -0.2660  0.2993
   33MOL   O45722281   4.383   7.372   3.790  0.2413  0.1739  0.0861
   33MOL   C45822282   4.370   7.419   3.917  0.0582 -0.2010 -0.1082
   33MOL   C45922283   4.324   7.333   4.019 -0.5009  0.1329  0.0532
   33MOL   C46022284   4.308   7.375   4.148  0.1715  0.8064  0.1511
   33MOL   C46122285   4.338   7.509   4.181  0.5226  0.1328 -0.5476
   33MOL   C46222286   4.376   7.601   4.079  0.2118  0.7476 -0.2256
   33MOL   C46322287   4.390   7.556   3.948 -0.4578 -0.2936 -0.0843
   33MOL   C46422288   4.175   7.299   3.694  0.1615  0.3640 -0.3709
   33MOL   C46522289   4.062   7.326   3.614 -0.7028 -0.2300  0.4588
   33MOL   H46622290   3.791   7.627   3.312  4.5125  1.1841  0.9946
   33MOL   H46722291   3.598   7.771   3.389 -0.4700 -1.3671 -0.1541
   33MOL   H46822292   3.738   7.707   3.803  0.6170  0.8093  0.0726
   33MOL   H46922293   3.918   7.559   3.707  0.5625  1.2472  1.2425
   33MOL   H47022294   4.188   7.616   3.468  0.8439  0.2037  0.6595
   33MOL   H47122295   4.365   7.568   3.642  0.7077 -1.8009  2.4484
   33MOL   H47222296   4.311   7.227   4.013  0.1937 -0.0558  1.5256
   33MOL   H47322297   4.284   7.301   4.222 -0.3530  1.9888  1.1721
   33MOL   H47422298   4.394   7.705   4.102 -1.1119  0.5576  1.7849
   33MOL   H47522299   4.422   7.619   3.866  0.0776 -0.7220 -0.2127
   33MOL   H47622300   4.176   7.205   3.747  0.1490  0.5613 -0.0231
   33MOL   H47722301   3.974   7.264   3.614 -0.0728 -1.1639 -1.5565
   33MOL   C47822302   4.537   7.592   4.612 -0.0508 -0.1903 -0.2275
   33MOL   C47922303   4.432   7.592   4.516 -0.5184 -0.8134 -0.2360
   33MOL   C48022304   4.445   7.522   4.394  0.1186  0.0568 -0.2793
   33MOL   O48122305   4.329   7.538   4.315 -0.2615 -0.7142 -0.0666
   33MOL   C48222306   4.558   7.442   4.367 -0.1330  0.2147 -0.2814
   33MOL   C48322307   4.658   7.434   4.464 -0.5486 -0.0818  0.2085
   33MOL   C48422308   4.652   7.508   4.590 -0.3197  0.5820  0.3428
   33MOL   C48522309   4.762   7.508   4.684 -0.0910  0.1371  0.5704
   33MOL   O48622310   4.878   7.483   4.649 -0.1430  0.4549  0.1310
   33MOL   C48722311   4.735   7.551   4.823 -0.1980  0.4919  0.2652
   33MOL   C48822312   4.620   7.509   4.894  0.4852 -0.4474  0.1975
   33MOL   C48922313   4.594   7.552   5.024  0.2178 -0.1370  0.3687
   33MOL   C49022314   4.681   7.636   5.091  0.4860  0.4297  0.2052
   33MOL   O49122315   4.651   7.681   5.221 -0.1699  0.7016  0.6046
   33MOL   C49222316   4.583   7.801   5.242 -0.1643  0.8815  0.4460
   33MOL   C49322317   4.580   7.852   5.374 -1.0310 -0.7498 -0.0761
   33MOL   C49422318   4.529   7.980   5.401  0.7773 -0.3994  0.3346
   33MOL   C49522319   4.466   8.054   5.300  0.8174  0.7190 -0.6393
   33MOL   C49622320   4.467   8.005   5.169 -0.3640 -0.6062 -0.4585
   33MOL   C49722321   4.522   7.882   5.142 -0.2458  0.5101  0.9549
   33MOL   C49822322   4.795   7.682   5.020  0.6804  0.4471 -0.1672
   33MOL   C49922323   4.825   7.635   4.892 -0.1936 -0.0682  1.2661
   33MOL   H50022324   4.528   7.657   4.698  2.7916  0.1931 -0.1892
   33MOL   H50122325   4.345   7.648   4.543  0.0442  0.2852 -0.6817
   33MOL   H50222326   4.554   7.384   4.275  0.3297  2.6616 -1.8811
   33MOL   H50322327   4.744   7.383   4.423  0.0634  1.1500 -0.0508
   33MOL   H50422328   4.542   7.452   4.847 -0.1572  1.1098 -0.6462
   33MOL   H50522329   4.514   7.499   5.075 -1.4663 -0.7140 -2.7297
   33MOL   H50622330   4.632   7.796   5.450  0.2221 -1.3198 -1.3226
   33MOL   H50722331   4.532   8.012   5.504  1.7607 -0.4709  0.3277
   33MOL   H50822332   4.421   8.072   5.098 -2.2853  0.8649  2.0831
   33MOL   H50922333   4.530   7.851   5.039  0.4351  0.5729  0.9829
   33MOL   H51022334   4.859   7.750   5.073  2.9503 -2.1324  0.5057
   33MOL   H51122335   4.922   7.662   4.853 -0.8923  0.0244 -0.4523
   33MOL   C51222336   4.096   0.057   5.314 -0.0030  0.0228  0.4020
   33MOL   C51322337   4.234   0.027   5.314 -0.7405  0.9777 -0.5667
   33MOL   C51422338   4.281   8.207   5.336 -0.2015 -0.0995  0.0519
   33MOL   O51522339   4.416   8.178   5.340  0.6109  0.1550 -0.1093
   33MOL   C51622340   4.183   8.110   5.370  0.2257  0.3808 -0.2708
   33MOL   C51722341   4.044   8.142   5.374 -0.1062  0.3680 -0.5601
   33MOL   C51822342   4.002   8.273   5.345  0.1949 -0.0430 -0.0745
   33MOL   C51922343   3.862   8.299   5.344  0.2261 -0.1811 -0.1085
   33MOL   O52022344   3.782   8.221   5.401 -0.2019  0.0027 -0.4086
   33MOL   C52122345   3.813   0.095   5.256  0.4930 -0.2947  0.3876
   33MOL   C52222346   3.701   0.173   5.303  0.6314  0.5632 -0.8619
   33MOL   C52322347   3.644   0.278   5.226 -0.0335 -0.0460  0.0825
   33MOL   C52422348   3.696   0.288   5.095  0.3469 -0.2611 -0.3662
   33MOL   O52522349   3.638   0.376   5.009 -0.2385  0.3002 -0.4467
   33MOL   C52622350   3.502   0.375   4.981 -0.4013  0.4737 -0.0760
   33MOL   C52722351   3.445   0.253   4.928 -0.2534 -0.2671 -0.2387
   33MOL   C52822352   3.311   0.239   4.899  0.1963  0.2781  0.3805
   33MOL   C52922353   3.225   0.347   4.926 -0.4040  0.2654  0.0118
   33MOL   C53022354   3.280   0.468   4.979 -0.6400 -0.5095  0.1909
   33MOL   C53122355   3.419   0.481   5.001 -0.6795 -0.5581  0.2200
   33MOL   C53222356   3.799   0.216   5.047 -0.1966  0.1402  0.7441
   33MOL   C53322357   3.869   0.126   5.129 -0.4556 -0.5517  0.3498
   33MOL   H53422358   4.070   0.160   5.298  0.3877  0.0345 -0.1889
   33MOL   H53522359   4.314   0.098   5.296  0.2400 -0.3011 -1.3034
   33MOL   H53622360   4.217   8.012   5.401 -2.2963 -0.8643 -1.2405
   33MOL   H53722361   3.978   8.065   5.409  0.9863 -0.3073  0.0454
   33MOL   H53822362   3.651   0.150   5.396 -1.3943 -0.3018 -2.1357
   33MOL   H53922363   3.548   0.321   5.249 -0.0426 -0.1780  0.3035
   33MOL   H54022364   3.515   0.179   4.892 -1.8923 -1.4411 -1.0883
   33MOL   H54122365   3.266   0.147   4.863 -0.2587  0.8150 -0.4273
   33MOL   H54222366   3.209   0.546   4.999  0.6808  1.4575 -2.4717
   33MOL   H54322367   3.448   0.576   5.044 -0.0376  0.2456 -1.9187
   33MOL   H54422368   3.825   0.243   4.946 -2.3559 -1.5806 -0.3001
   33MOL   H54522369   3.951   0.076   5.079  0.2378  0.1081  0.8185
   33MOL   C54622370   2.926   0.146   5.179  0.3964  0.3370  0.6287
   33MOL   C54722371   3.031   0.192   5.097 -0.4275 -0.5358 -0.3640
   33MOL   C54822372   3.011   0.299   5.011  0.6131  0.0403 -0.0512
   33MOL   O54922373   3.095   0.333   4.912  0.0863  0.2083 -0.2600
   33MOL   C55022374   2.885   0.369   5.012  0.1001  0.4217  0.5213
   33MOL   C55122375   2.784   0.316   5.088  0.4627  0.7270 -0.3843
   33MOL   C55222376   2.795   0.192   5.163  0.2221  0.0443 -0.3821
   33MOL   C55322377   2.676   0.125   5.223 -0.6048 -0.1715 -0.3240
   33MOL   O55422378   2.565   0.154   5.186 -0.2039  0.1579  0.1850
   33MOL   C55522379   2.701   0.036   5.337 -1.0924 -0.4317 -0.4957
   33MOL   C55622380   2.703   8.210   5.323  0.6895 -0.3544 -0.2510
   33MOL   C55722381   2.738   8.135   5.439  0.6215  0.1491  0.1717
   33MOL   C55822382   2.773   8.196   5.562 -0.4088  0.8372 -0.0916
   33MOL   O55922383   2.799   8.131   5.683  0.2995  0.1777  0.5044
   33MOL   C56022384   2.681   8.100   5.753  0.3128  0.1429  0.0952
   33MOL   C56122385   2.626   8.190   5.840  0.8997 -0.3655 -0.5435
   33MOL   C56222386   2.496   8.168   5.892  0.2660  0.5711  0.2387
   33MOL   C56322387   2.424   8.048   5.861 -0.4640 -0.8318 -0.7235
   33MOL   C56422388   2.486   7.955   5.777  0.2876  0.2743 -0.2351
   33MOL   C56522389   2.615   7.984   5.716  0.2634  0.3652 -0.7187
   33MOL   C56622390   2.774   0.024   5.573 -0.2901  0.3404 -0.0349
   33MOL   C56722391   2.738   0.097   5.458 -0.0997  0.5606  0.2341
   33MOL   H56822392   2.939   0.051   5.229 -0.6970  0.2029  0.6819
   33MOL   H56922393   3.127   0.143   5.088  0.3434  0.3295  2.5187
   33MOL   H57022394   2.865   0.454   4.948  0.9859 -0.5468 -1.0681
   33MOL   H57122395   2.688   0.363   5.104  1.3152  2.3857 -0.0398
   33MOL   H57222396   2.687   8.167   5.225 -1.9502 -0.3712  0.1633
   33MOL   H57322397   2.742   8.027   5.438  0.9103  0.1646 -1.2709
   33MOL   H57422398   2.680   8.275   5.880  0.3202  0.1812 -0.9045
   33MOL   H57522399   2.456   8.242   5.960 -1.9258 -1.3448  1.1299
   33MOL   H57622400   2.435   7.861   5.762  1.0294 -0.2785  0.6154
   33MOL   H57722401   2.660   7.919   5.642  1.0532  1.5686 -1.3154
   33MOL   H57822402   2.794   0.071   5.669  0.3008 -2.2907  1.1699
   33MOL   H57922403   2.741   0.205   5.463  1.0369  0.4715  2.0959
   33MOL   C58022404   2.077   8.172   5.671  0.1413 -0.3867  0.2608
   33MOL   C58122405   2.191   8.151   5.748  0.3678  0.1128 -0.2073
   33MOL   C58222406   2.187   8.044   5.841 -0.3566  0.9759 -0.7435
   33MOL   O58322407   2.297   8.022   5.918  0.0544  0.0806 -0.1227
   33MOL   C58422408   2.069   7.958   5.847 -0.2768  0.4637  0.0760
   33MOL   C58522409   1.955   7.981   5.768 -0.4679 -0.2131 -0.1090
   33MOL   C58622410   1.966   8.086   5.671 -0.2547 -0.3812  0.0538
   33MOL   C58722411   1.856   8.118   5.582  0.4819  0.7232  0.6221
   33MOL   O58822412   1.805   8.231   5.585  0.0632 -0.0308 -0.5100
   33MOL   C58922413   1.814   8.013   5.483 -0.3301 -0.0288 -0.1127
   33MOL   C59022414   1.870   7.884   5.472 -0.0777  0.0622  0.9218
   33MOL   C59122415   1.806   7.779   5.396  0.8485 -0.4435 -0.0935
   33MOL   C59222416   1.694   7.810   5.315 -0.3252 -0.0719 -0.1013
   33MOL   O59322417   1.632   7.710   5.242 -0.1793 -0.6337  0.4067
   33MOL   C59422418   1.584   7.600   5.312  0.1568  0.0152 -0.4414
   33MOL   C59522419   1.632   7.467   5.291  0.1857 -0.6693  0.0134
   33MOL   C59622420   1.576   7.358   5.366  0.3233 -0.6078 -0.0256
   33MOL   C59722421   1.484   7.378   5.465  0.5997  0.0864  0.7626
   33MOL   C59822422   1.441   7.510   5.490  0.2777 -0.0327  0.5415
   33MOL   C59922423   1.492   7.621   5.419  0.1603 -0.2396  0.1121
   33MOL   C60022424   1.655   7.949   5.300 -0.0814 -0.1555 -0.5644
   33MOL   C60122425   1.709   8.041   5.396  0.3271 -0.0006 -0.1664
   33MOL   H60222426   2.069   8.257   5.605  1.0457  0.3217  1.0541
   33MOL   H60322427   2.268   8.225   5.734 -0.5807  1.2525  0.5421
   33MOL   H60422428   2.071   7.875   5.915  1.3343  1.4766  1.2743
   33MOL   H60522429   1.874   7.912   5.781  1.5892 -2.7030  0.0038
   33MOL   H60622430   1.962   7.867   5.526  0.2762 -0.7613  0.0812
   33MOL   H60722431   1.848   7.680   5.409 -0.3627 -1.1906 -1.6906
   33MOL   H60822432   1.694   7.449   5.205 -1.5277 -1.5766 -1.0650
   33MOL   H60922433   1.604   7.257   5.342 -1.0125 -0.7126 -1.2104
   33MOL   H61022434   1.381   7.533   5.577 -0.6852  2.1741 -0.6664
   33MOL   H61122435   1.474   7.723   5.449 -0.2056  0.1258 -1.2660
   33MOL   H61222436   1.567   7.968   5.240  0.8288 -0.3325 -1.9598
   33MOL   H61322437   1.661   8.138   5.393 -3.3725 -1.7879 -1.5012
   33MOL   C61422438   1.638   7.174   5.844  0.9079  0.6322  0.4544
   33MOL   C61522439   1.574   7.261   5.749 -0.4203 -0.9680 -0.0009
   33MOL   C61622440   1.523   7.206   5.627 -0.0446  0.5195 -0.1945
   33MOL   O61722441   1.444   7.272   5.536 -0.3531 -0.0425  0.3010
   33MOL   C61822442   1.542   7.068   5.601 -0.1564  0.1739 -0.2389
   33MOL   C61922443   1.609   6.987   5.693  0.0361  0.4681  0.9943
   33MOL   C62022444   1.649   7.034   5.818  0.1348  0.0382 -0.5477
   33MOL   C62122445   1.716   6.952   5.917 -0.0546 -0.6201  0.2638
   33MOL   O62222446   1.648   6.864   5.966  0.0916  0.3327  0.5099
   33MOL   C62322447   1.857   6.989   5.974 -0.5716  0.1901  0.6692
   33MOL   C62422448   1.952   7.071   5.906 -0.1406  0.1065 -0.1576
   33MOL   C62522449   2.077   7.108   5.960 -0.2051  0.4524  0.3590
   33MOL   C62622450   2.119   7.049   6.077 -0.5027 -0.3052  0.3629
   33MOL   O62722451   2.243   7.066   6.125  0.1868 -0.5198  0.0694
   33MOL   C62822452   2.247   7.123   6.250  0.4514 -0.3497  1.0719
   33MOL   C62922453   2.234   7.270   6.260 -0.1529  0.1890 -0.2500
   33MOL   C63022454   2.249   7.328   6.385 -0.2551  0.0240 -0.1293
   33MOL   C63122455   2.279   7.259   6.501 -0.6049 -0.2183  0.0944
   33MOL   C63222456   2.295   7.117   6.490  0.2155 -0.5461 -0.3730
   33MOL   C63322457   2.268   7.048   6.366  0.4994 -0.0184  0.0748
   33MOL   C63422458   2.029   6.965   6.146  0.8668 -0.6275  0.1270
   33MOL   C63522459   1.898   6.946   6.106 -0.5857  0.1679  0.3397
   33MOL   H63622460   1.692   7.214   5.929 -0.0181  0.6419  1.0453
   33MOL   H63722461   1.562   7.366   5.771  1.2355 -0.6388 -0.6178
   33MOL   H63822462   1.488   7.036   5.514 -0.5294  2.9919 -1.0850
   33MOL   H63922463   1.614   6.881   5.671 -1.5049  1.0345 -2.5330
   33MOL   H64022464   1.930   7.118   5.811 -0.0018 -0.0495 -0.2654
   33MOL   H64122465   2.150   7.161   5.900  0.2573 -0.1738  0.3655
   33MOL   H64222466   2.212   7.334   6.176  0.3048  0.6982  0.0192
   33MOL   H64322467   2.247   7.436   6.388 -1.4357 -0.0325  1.4560
   33MOL   H64422468   2.317   7.069   6.584 -1.2768  0.3031  0.4196
   33MOL   H64522469   2.278   6.941   6.360  0.7798 -0.0386  0.8200
   33MOL   H64622470   2.062   6.935   6.244 -2.6286  0.5026  1.7434
   33MOL   H64722471   1.832   6.876   6.156  0.4056 -1.3524 -0.4543
   33MOL   C64822472   2.579   7.435   6.819 -0.2186 -0.3703  0.3306
   33MOL   C64922473   2.457   7.383   6.776 -0.0332 -0.0768  0.0905
   33MOL   C65022474   2.426   7.364   6.641 -0.1672  0.2558 -0.6326
   33MOL   O65122475   2.297   7.328   6.614 -0.8019  0.0782  0.1356
   33MOL   C65222476   2.530   7.389   6.548  0.1847 -0.2435 -0.3620
   33MOL   C65322477   2.658   7.438   6.588 -0.3499  0.2011 -0.0259
   33MOL   C65422478   2.681   7.463   6.726 -0.5903 -0.1025  0.1745
   33MOL   C65522479   2.809   7.514   6.779  0.9531 -0.0826  0.0544
   33MOL   O65622480   2.872   7.435   6.852 -0.2685 -0.3991 -0.1521
   33MOL   C65722481   2.862   7.647   6.746 -0.9560  0.8094  0.0997
   33MOL   C65822482   2.991   7.690   6.793 -0.2995  0.0797  0.2763
   33MOL   C65922483   3.045   7.808   6.750  0.0692  0.0826 -0.5107
   33MOL   C66022484   2.971   7.891   6.662 -0.0648 -0.1656 -0.4434
   33MOL   O66122485   3.017   8.018   6.624  0.0508  0.4763 -0.1117
   33MOL   C66222486   3.042   8.045   6.489  0.2721 -0.6645  0.0597
   33MOL   C66322487   3.087   7.943   6.401 -0.8446 -0.0430 -1.0243
   33MOL   C66422488   3.108   7.965   6.263  0.0901  0.0240  0.9134
   33MOL   C66522489   3.098   8.098   6.216  0.1935  0.2209  0.5505
   33MOL   C66622490   3.060   8.204   6.302 -0.6982 -0.0930 -0.2587
   33MOL   C66722491   3.031   8.175   6.434  0.2218 -0.0934  0.1127
   33MOL   C66822492   2.850   7.851   6.611  0.2906 -0.5836 -0.1374
   33MOL   C66922493   2.791   7.728   6.653  0.1224  0.2879  0.1303
   33MOL   H67022494   2.594   7.445   6.926  0.5657 -1.1603  0.2915
   33MOL   H67122495   2.387   7.352   6.853 -0.2034 -0.5484 -0.2515
   33MOL   H67222496   2.511   7.354   6.448  0.3854 -0.1812 -0.4221
   33MOL   H67322497   2.745   7.451   6.525 -1.4873  1.8221 -1.3389
   33MOL   H67422498   3.054   7.620   6.847 -0.6055 -0.7978 -0.4863
   33MOL   H67522499   3.149   7.833   6.766  0.6424 -1.3525 -1.9114
   33MOL   H67622500   3.085   7.842   6.440 -1.2434 -0.2371 -1.5470
   33MOL   H67722501   3.109   7.884   6.191 -0.7600 -0.1460  1.0970
   33MOL   H67822502   3.046   8.302   6.258 -1.2842 -0.3413 -0.6247
   33MOL   H67922503   3.000   8.259   6.495 -0.1366 -0.1168 -0.0329
   33MOL   H68022504   2.803   7.920   6.543 -2.2407 -1.5317  0.6022
   33MOL   H68122505   2.686   7.709   6.634  0.2541  0.7756 -1.1041
   33MOL   H68222506   3.121   8.112   6.112 -2.3830  0.5733  0.0038
   34MOL     C122507   6.165   5.036   4.591  0.8476  0.3291 -0.5538
   34MOL     C222508   6.232   5.082   4.710 -0.6850  0.6554 -0.0461
   34MOL     C322509   6.363   5.048   4.736  0.2191 -0.4710  0.7800
   34MOL     O422510   6.420   5.081   4.851  0.1711 -0.1585  0.0183
   34MOL     C522511   6.425   4.977   4.628  0.6643  0.3004 -0.1546
   34MOL     C622512   6.369   4.935   4.509 -0.0849  0.2211  1.1655
   34MOL     C722513   6.230   4.963   4.487 -0.5539  0.5177  0.3253
   34MOL     C822514   6.161   4.915   4.363  0.0093  0.7973  0.6117
   34MOL     O922515   6.205   4.819   4.298 -0.1437  0.1247 -0.4895
   34MOL    C1022516   6.031   4.978   4.325  0.7190  0.2756  0.5759
   34MOL    C1122517   5.932   4.891   4.271 -0.3537  0.0640 -0.1426
   34MOL    C1222518   5.812   4.932   4.219 -0.2314 -0.2807  0.0428
   34MOL    C1322519   5.778   5.071   4.223 -0.2396 -0.3609  0.9752
   34MOL    O1422520   5.664   5.123   4.166 -0.2215  0.6668  0.2954
   34MOL    C1522521   5.642   5.083   4.038  0.5232  0.0988  0.2787
   34MOL    C1622522   5.539   5.005   4.005 -0.3006  0.6349  0.0487
   34MOL    C1722523   5.513   4.977   3.869  0.1262  0.0733  0.0420
   34MOL    C1822524   5.597   5.018   3.764  0.5390  0.1076  0.0634
   34MOL    C1922525   5.697   5.110   3.799  0.0273  0.5072  0.0732
   34MOL    C2022526   5.713   5.142   3.934  0.4471 -0.4973  0.2369
   34MOL    C2122527   5.876   5.156   4.278  0.0055  0.3253  0.2302
   34MOL    C2222528   6.007   5.114   4.312 -0.2166 -0.0719 -0.8798
   34MOL    H2322529   6.058   5.041   4.592  0.7626 -0.9986 -1.6986
   34MOL    H2422530   6.189   5.147   4.785 -0.8001  1.1775 -0.5652
   34MOL    H2522531   6.531   4.956   4.637  0.2792 -1.4203  0.5911
   34MOL    H2622532   6.426   4.891   4.429  0.9088  1.6597  1.0575
   34MOL    H2722533   5.965   4.788   4.262 -1.4858 -0.5184  2.0349
   34MOL    H2822534   5.744   4.861   4.176  0.0002  0.1827 -1.1166
   34MOL    H2922535   5.485   4.960   4.087  0.5289 -0.9046 -0.2297
   34MOL    H3022536   5.429   4.912   3.846  1.5676 -0.9898 -2.4147
   34MOL    H3122537   5.756   5.136   3.712  0.5026  0.1594  0.2861
   34MOL    H3222538   5.790   5.211   3.965 -1.5450  1.5089  0.8345
   34MOL    H3322539   5.863   5.263   4.266 -1.2497  0.2238  0.6582
   34MOL    H3422540   6.085   5.186   4.334 -0.2430  0.0444 -1.1628
   34MOL    H3522541   6.510   5.056   4.861 -0.0065 -1.0209 -0.5021
   34MOL    C3622542   5.869   4.805   3.491 -0.0008  0.1954 -0.2152
   34MOL    C3722543   5.785   4.908   3.543  0.0312 -0.4824  0.2271
   34MOL    C3822544   5.654   4.876   3.591  0.3432 -0.0179  0.1914
   34MOL    O3922545   5.576   4.982   3.636 -0.2748 -0.4403  0.1664
   34MOL    C4022546   5.616   4.742   3.589  0.6112  0.4995  0.2540
   34MOL    C4122547   5.699   4.636   3.544 -0.0685  0.2590  0.5965
   34MOL    C4222548   5.826   4.670   3.490 -0.5427 -0.9265  0.1841
   34MOL    C4322549   5.898   4.568   3.409  0.3049  0.4704 -0.2388
   34MOL    O4422550   5.847   4.487   3.335  0.4155 -0.3929 -0.0319
   34MOL    C4522551   6.048   4.560   3.431 -0.1871 -0.1317  0.1378
   34MOL    C4622552   6.147   4.567   3.326 -0.7790 -0.4597 -0.2076
   34MOL    C4722553   6.282   4.576   3.360 -0.3232 -0.4580 -0.0301
   34MOL    C4822554   6.316   4.558   3.497  0.4481 -0.0583 -0.0213
   34MOL    O4922555   6.444   4.588   3.535 -0.1143 -0.2386 -0.0731
   34MOL    C5022556   6.547   4.496   3.517 -0.2816  0.0136  0.0674
   34MOL    C5122557   6.536   4.357   3.552 -0.5199  0.0081  0.2699
   34MOL    C5222558   6.645   4.273   3.546 -0.3435  0.1244 -0.0818
   34MOL    C5322559   6.768   4.314   3.492 -0.3304  0.8459  0.4858
   34MOL    C5422560   6.783   4.453   3.459  0.4122  0.0542 -0.6050
   34MOL    C5522561   6.670   4.540   3.466  0.0295 -0.1917  0.4419
   34MOL    C5622562   6.222   4.525   3.591  0.4385 -0.1116  0.1083
   34MOL    C5722563   6.089   4.525   3.562 -0.2689  0.6262  0.0195
   34MOL    H5822564   5.957   4.839   3.440 -0.6770  0.3750 -1.2801
   34MOL    H5922565   5.829   5.005   3.561  0.3338 -0.6599  0.4570
   34MOL    H6022566   5.520   4.717   3.632  1.7267  1.1194  3.2399
   34MOL    H6122567   5.659   4.536   3.543  0.0525  0.2041  1.0216
   34MOL    H6222568   6.112   4.597   3.228  1.6492 -0.4125 -1.0876
   34MOL    H6322569   6.354   4.593   3.281 -1.8012 -0.3067 -1.3688
   34MOL    H6422570   6.438   4.330   3.589 -1.3966  1.3849 -0.9535
   34MOL    H6522571   6.621   4.172   3.576 -1.3440  0.2382 -0.4644
   34MOL    H6622572   6.884   4.485   3.441  0.4422 -0.0376 -0.5980
   34MOL    H6722573   6.684   4.645   3.441  2.3987 -0.5647  0.1302
   34MOL    H6822574   6.246   4.487   3.689 -0.8223  0.8493  0.8037
   34MOL    H6922575   6.014   4.519   3.639 -0.1449  0.2482  0.1121
   34MOL    C7022576   7.148   4.360   3.712 -0.2114  0.1522 -0.3756
   34MOL    C7122577   7.040   4.360   3.626  0.4809  0.8597  0.5388
   34MOL    C7222578   6.962   4.242   3.610  0.8453  0.1568 -0.0743
   34MOL    O7322579   6.876   4.229   3.503  0.4548  0.3851  0.4742
   34MOL    C7422580   6.989   4.126   3.682  0.3001 -0.0505  0.1237
   34MOL    C7522581   7.096   4.131   3.771  0.0453  0.4000 -0.0154
   34MOL    C7622582   7.175   4.247   3.792 -0.6729 -0.3962 -0.4302
   34MOL    C7722583   7.288   4.254   3.889  0.4259  0.3039 -1.0714
   34MOL    O7822584   7.321   4.360   3.942  0.1063 -0.0425  0.1206
   34MOL    C7922585   7.374   4.131   3.923 -0.1072  0.0138  0.0386
   34MOL    C8022586   7.399   4.039   3.821 -0.2431  0.5404 -0.0638
   34MOL    C8122587   7.472   3.923   3.853  0.0613  0.3225  0.1616
   34MOL    C8222588   7.542   3.912   3.976  0.4639  0.9476 -0.3994
   34MOL    O8322589   7.642   3.813   3.988  0.4664  0.1490 -0.0564
   34MOL    C8422590   7.743   3.826   3.900  0.3853  1.2867 -0.2727
   34MOL    C8522591   7.822   3.944   3.888  0.1307  0.5650 -0.3894
   34MOL    C8622592   7.925   3.962   3.789 -0.5902 -0.1632  0.3339
   34MOL    C8722593   7.949   3.852   3.702 -0.2638 -0.0709  0.7442
   34MOL    C8822594   7.875   3.736   3.714 -0.1536  0.6642 -0.9074
   34MOL    C8922595   7.764   3.722   3.811 -0.6579 -0.1055  0.5418
   34MOL    C9022596   7.518   4.007   4.075  0.6892 -0.0714  0.0847
   34MOL    C9122597   7.421   4.110   4.050 -0.1161  0.1387  0.3527
   34MOL    H9222598   7.201   4.454   3.709  0.4478 -0.2247 -0.7321
   34MOL    H9322599   7.031   4.439   3.554 -1.8902  1.3740  1.3518
   34MOL    H9422600   6.949   4.030   3.654 -0.3777 -0.0440  1.0713
   34MOL    H9522601   7.130   4.042   3.821  1.2429  0.9562  0.1816
   34MOL    H9622602   7.346   4.043   3.726  3.4257 -1.4025 -2.3239
   34MOL    H9722603   7.497   3.849   3.779 -2.8584 -1.3216  0.7501
   34MOL    H9822604   7.804   4.021   3.961  1.6167  0.1053  0.4866
   34MOL    H9922605   7.990   4.048   3.791 -0.9921  0.2115 -1.4874
   34MOL   H10022606   7.890   3.658   3.641  0.1412  0.5210 -0.6959
   34MOL   H10122607   7.697   3.638   3.817 -1.3283  0.4215  0.4273
   34MOL   H10222608   7.566   3.999   4.171  1.2430 -0.8795 -0.2551
   34MOL   H10322609   7.393   4.184   4.124 -0.8844 -0.5797  0.7873
   34MOL   C10422610   0.063   4.030   3.639 -0.0873  0.6648 -0.5972
   34MOL   C10522611   8.238   4.010   3.607 -0.9532  0.3665  0.1248
   34MOL   C10622612   8.171   3.894   3.647 -0.5217  0.2532 -0.6253
   34MOL   O10722613   8.043   3.866   3.604  0.6370  0.0607  0.0905
   34MOL   C10822614   8.239   3.802   3.726 -0.4205  0.7322  0.1766
   34MOL   C10922615   0.057   3.817   3.762 -0.4040  0.0227 -0.2282
   34MOL   C11022616   0.132   3.937   3.724  0.9046  0.3598 -0.8214
   34MOL   C11122617   0.273   3.945   3.760  0.5051 -0.1408 -0.0123
   34MOL   O11222618   0.307   3.932   3.875 -0.3353  0.0657 -0.7034
   34MOL   C11322619   0.372   3.978   3.657 -0.6713 -0.7601 -0.7813
   34MOL   C11422620   0.349   3.983   3.516 -0.7802 -0.1377  0.2329
   34MOL   C11522621   0.456   3.998   3.427 -0.7471  0.1318  0.2743
   34MOL   C11622622   0.587   4.007   3.464 -0.4026  0.4987 -1.3504
   34MOL   O11722623   0.691   4.029   3.372  0.0280  0.6227  1.0107
   34MOL   C11822624   0.698   3.929   3.281  0.7538 -0.1004 -0.0444
   34MOL   C11922625   0.641   3.946   3.150 -0.8471 -0.1985 -0.7059
   34MOL   C12022626   0.653   3.852   3.045  0.5972 -0.2524 -0.7030
   34MOL   C12122627   0.710   3.725   3.076 -0.6504  0.0378  0.3027
   34MOL   C12222628   0.764   3.709   3.207  0.2413  0.1731 -0.5919
   34MOL   C12322629   0.753   3.806   3.307  0.2312 -0.6093  0.2651
   34MOL   C12422630   0.612   4.012   3.601 -0.2148  0.2627  0.0466
   34MOL   C12522631   0.502   4.002   3.694 -0.3589  0.5045 -0.2454
   34MOL   H12622632   0.112   4.120   3.607 -0.7862  1.1319 -0.3650
   34MOL   H12722633   8.200   4.088   3.544 -1.1078 -0.3624 -0.6867
   34MOL   H12822634   8.210   3.704   3.762  2.6320 -0.6026 -0.8027
   34MOL   H12922635   0.106   3.735   3.813 -0.1921  1.5655  2.1599
   34MOL   H13022636   0.249   3.980   3.475 -0.8533  0.2411  0.3815
   34MOL   H13122637   0.428   4.024   3.326 -0.7451 -0.7546  0.0355
   34MOL   H13222638   0.582   4.033   3.125 -0.2024  0.8590  1.2740
   34MOL   H13322639   0.604   3.876   2.952 -0.0809 -3.2372 -1.1811
   34MOL   H13422640   0.806   3.612   3.232 -0.5692  0.2026  0.9236
   34MOL   H13522641   0.783   3.795   3.410 -1.7531  0.2130  0.9580
   34MOL   H13622642   0.715   4.024   3.631 -0.4732  0.0924  1.0119
   34MOL   H13722643   0.536   3.989   3.796 -0.3243 -1.3848 -0.4758
   34MOL   C13822644   0.442   3.464   2.804  0.2163  0.0093 -0.0298
   34MOL   C13922645   0.522   3.506   2.911 -0.2078  0.3622  0.4815
   34MOL   C14022646   0.624   3.599   2.885 -0.2899 -0.0873 -0.5398
   34MOL   O14122647   0.719   3.623   2.983 -0.0595 -0.7110 -0.2342
   34MOL   C14222648   0.631   3.657   2.757 -0.2912  0.3553  0.4833
   34MOL   C14322649   0.538   3.624   2.655  0.2259 -0.0278 -0.1956
   34MOL   C14422650   0.443   3.523   2.679  0.4128 -0.3110 -0.1609
   34MOL   C14522651   0.354   3.480   2.569 -0.1593 -0.4644  0.6330
   34MOL   O14622652   0.236   3.512   2.568 -0.4379 -1.0023  0.0939
   34MOL   C14722653   0.420   3.409   2.451 -0.5846  0.7123 -0.2063
   34MOL   C14822654   0.561   3.372   2.438 -0.1892  0.8645  0.1472
   34MOL   C14922655   0.615   3.318   2.319 -0.0073  0.2051 -0.5694
   34MOL   C15022656   0.529   3.284   2.211  0.6625  0.8961  0.1594
   34MOL   O15122657   0.580   3.224   2.097 -0.0851  0.0894 -0.0670
   34MOL   C15222658   0.689   3.140   2.113  0.0446 -0.1685 -0.5018
   34MOL   C15322659   0.816   3.192   2.092 -0.7144 -0.1304  0.7580
   34MOL   C15422660   0.928   3.115   2.118  0.3791  0.3711 -0.1127
   34MOL   C15522661   0.924   2.985   2.173 -0.4478 -0.0434 -0.1294
   34MOL   C15622662   0.794   2.932   2.202  0.6008 -0.9204  0.9934
   34MOL   C15722663   0.680   3.009   2.169  0.0024 -0.7138  0.2487
   34MOL   C15822664   0.395   3.326   2.222  0.2660  0.8417 -0.2241
   34MOL   C15922665   0.336   3.387   2.339 -0.2670  0.3842 -0.5734
   34MOL   H16022666   0.373   3.383   2.825 -1.2025  1.1715 -0.1265
   34MOL   H16122667   0.532   3.446   3.000  0.1046  1.6822  1.3435
   34MOL   H16222668   0.713   3.718   2.722  0.9069 -1.1209  0.6681
   34MOL   H16322669   0.548   3.667   2.556 -1.4601  0.2436 -0.2672
   34MOL   H16422670   0.627   3.378   2.523  0.7411 -0.2557 -0.4791
   34MOL   H16522671   0.719   3.287   2.317 -0.2825 -0.7254 -1.0739
   34MOL   H16622672   0.837   3.289   2.048  1.2462 -0.5051  0.8046
   34MOL   H16722673   1.023   3.159   2.090  0.4604  0.8268  0.8774
   34MOL   H16822674   0.789   2.833   2.246  0.0286 -1.2825  0.1361
   34MOL   H16922675   0.586   2.971   2.207  0.2954 -0.1263  1.5773
   34MOL   H17022676   0.338   3.324   2.130  1.6548 -3.6844 -1.0845
   34MOL   H17122677   0.231   3.410   2.336 -1.0834 -3.0895 -0.0598
   34MOL   C17222678   1.244   3.033   2.472  0.1914 -0.2363  0.0530
   34MOL   C17322679   1.186   3.022   2.339 -0.5747  0.1284 -0.1755
   34MOL   C17422680   1.090   2.922   2.314  0.2635  0.4968 -0.9905
   34MOL   O17522681   1.038   2.914   2.186 -0.1235  0.0242 -0.8706
   34MOL   C17622682   1.052   2.836   2.422 -0.2805 -0.4231  0.2034
   34MOL   C17722683   1.112   2.841   2.545  0.5457  0.8808  0.1590
   34MOL   C17822684   1.195   2.950   2.573  0.5612 -0.0975  0.0149
   34MOL   C17922685   1.236   2.988   2.713  0.1694  0.1920  0.5210
   34MOL   O18022686   1.167   3.064   2.780 -0.1563 -0.1320 -0.0160
   34MOL   C18122687   1.376   2.950   2.747 -0.0341  0.4135 -0.6036
   34MOL   C18222688   1.431   3.008   2.863 -0.1151 -0.0404 -1.0599
   34MOL   C18322689   1.570   2.996   2.892  0.2943  0.0725  0.1221
   34MOL   C18422690   1.657   2.937   2.799 -0.2053 -0.8443  0.0360
   34MOL   O18522691   1.794   2.945   2.814  0.6328  0.9159  0.0367
   34MOL   C18622692   1.847   3.009   2.927 -0.1753  0.5874  0.0894
   34MOL   C18722693   1.830   2.950   3.058 -0.2557 -0.3323  0.5948
   34MOL   C18822694   1.879   3.017   3.170  0.6805  0.3696 -0.9163
   34MOL   C18922695   1.959   3.130   3.156 -0.3262  0.2880  0.2287
   34MOL   C19022696   1.980   3.189   3.028 -1.4054 -0.0238  0.1348
   34MOL   C19122697   1.916   3.136   2.919 -0.6690  0.1386 -0.5443
   34MOL   C19222698   1.604   2.881   2.681  0.2245  0.2037  0.2765
   34MOL   C19322699   1.465   2.880   2.658 -0.4376  0.3465  0.5197
   34MOL   H19422700   1.320   3.106   2.495  1.6954 -1.5473 -0.6738
   34MOL   H19522701   1.218   3.092   2.263  0.1687 -0.5965 -0.5331
   34MOL   H19622702   0.970   2.766   2.412 -0.3108 -0.3445 -0.0838
   34MOL   H19722703   1.077   2.778   2.625 -0.2460 -0.7410 -1.4186
   34MOL   H19822704   1.374   3.070   2.930 -0.5883 -1.7663  0.1709
   34MOL   H19922705   1.598   3.050   2.981 -2.6782  2.0438 -0.0719
   34MOL   H20022706   1.774   2.857   3.064 -1.5492  0.2933 -1.2198
   34MOL   H20122707   1.870   2.977   3.270 -0.4578  1.2074 -0.6799
   34MOL   H20222708   2.038   3.280   3.021 -2.2597  0.6105  1.0591
   34MOL   H20322709   1.924   3.182   2.822  0.4238 -0.3456 -0.6939
   34MOL   H20422710   1.668   2.848   2.601 -0.6469  2.6040 -1.4729
   34MOL   H20522711   1.428   2.851   2.561 -1.1535  3.0885 -0.0699
   34MOL   C20622712   2.241   2.965   3.441 -0.0399  0.0010 -1.0640
   34MOL   C20722713   2.186   3.038   3.337 -1.4135  0.0716 -0.3687
   34MOL   C20822714   2.066   3.108   3.360 -0.9268  0.2747  0.1163
   34MOL   O20922715   2.014   3.194   3.266 -0.5128  0.3857 -0.0456
   34MOL   C21022716   2.003   3.096   3.484  0.1253  0.5111 -0.1925
   34MOL   C21122717   2.051   3.019   3.593 -0.5962 -0.0778  0.4666
   34MOL   C21222718   2.173   2.953   3.566 -0.2671  0.3353 -0.4750
   34MOL   C21322719   2.246   2.867   3.665  0.3908 -0.3436  0.1802
   34MOL   O21422720   2.317   2.769   3.633 -0.0823  0.1832  0.8354
   34MOL   C21522721   2.252   2.923   3.811 -0.1273 -0.2334  1.2636
   34MOL   C21622722   2.224   2.831   3.915 -0.1496 -0.3954  0.3058
   34MOL   C21722723   2.218   2.873   4.045  0.7764  0.2015  0.3625
   34MOL   C21822724   2.244   3.010   4.078 -0.3388  0.5245 -0.1389
   34MOL   O21922725   2.223   3.055   4.208  0.5341 -0.2614 -0.0124
   34MOL   C22022726   2.329   3.115   4.269 -0.7751  0.0520 -1.0835
   34MOL   C22122727   2.438   3.038   4.317 -0.1813 -0.5615 -0.5695
   34MOL   C22222728   2.538   3.089   4.402 -0.7963 -0.0629 -0.1675
   34MOL   C22322729   2.537   3.225   4.433 -0.8492  0.1642 -0.2310
   34MOL   C22422730   2.429   3.306   4.381  0.7377 -0.3721  0.7454
   34MOL   C22522731   2.328   3.248   4.297 -0.3524 -0.1942  0.1034
   34MOL   C22622732   2.271   3.099   3.976  0.4731 -0.5645  0.4527
   34MOL   C22722733   2.276   3.061   3.839 -0.2850  0.6879 -0.1880
   34MOL   H22822734   2.339   2.921   3.426 -0.5504 -1.9681  1.1028
   34MOL   H22922735   2.240   3.055   3.245 -0.0353  2.4980  0.8324
   34MOL   H23022736   1.914   3.156   3.495 -0.0728 -0.0235  1.2540
   34MOL   H23122737   2.010   3.023   3.693  2.0225  1.4906  1.5499
   34MOL   H23222738   2.209   2.728   3.886  0.2144 -0.5474  0.6610
   34MOL   H23322739   2.196   2.804   4.125  0.4835 -0.6251 -0.4296
   34MOL   H23422740   2.435   2.930   4.304 -1.3043 -0.9263  2.3337
   34MOL   H23522741   2.619   3.023   4.430 -1.0971 -0.4364 -0.1736
   34MOL   H23622742   2.427   3.412   4.403 -1.1609 -0.4778  1.2035
   34MOL   H23722743   2.239   3.307   4.278 -2.0127 -1.3137  3.9527
   34MOL   H23822744   2.284   3.203   4.003  0.4023  0.3517 -2.8972
   34MOL   H23922745   2.286   3.131   3.757 -1.7920  0.6484 -0.4349
   34MOL   C24022746   2.512   3.285   4.846  0.2234  0.1629  0.5234
   34MOL   C24122747   2.544   3.238   4.718 -0.5717  0.4226 -0.1490
   34MOL   C24222748   2.622   3.325   4.630  0.6174 -0.2079  0.4182
   34MOL   O24322749   2.645   3.285   4.498  0.2459  0.0576  0.1084
   34MOL   C24422750   2.663   3.453   4.675 -0.7787  0.0592 -0.7879
   34MOL   C24522751   2.624   3.495   4.807  0.1295 -0.4080 -0.4786
   34MOL   C24622752   2.548   3.412   4.887  0.7331 -0.1880  0.7049
   34MOL   C24722753   2.521   3.450   5.031  0.6321  0.2571  0.0054
   34MOL   O24822754   2.607   3.502   5.102  0.2523 -0.1893 -0.4102
   34MOL   C24922755   2.388   3.428   5.101  0.2221 -0.0751 -0.9199
   34MOL   C25022756   2.386   3.443   5.242 -0.2408  0.1665 -0.4830
   34MOL   C25122757   2.255   3.419   5.309 -0.9277  0.0733  0.0979
   34MOL   C25222758   2.137   3.393   5.239  0.0083  0.6220  0.3417
   34MOL   O25322759   2.022   3.381   5.306  0.7563 -0.4365 -0.4121
   34MOL   C25422760   1.911   3.457   5.266  0.6279  0.3841 -0.6665
   34MOL   C25522761   1.790   3.388   5.232  0.8240  0.2204  0.4058
   34MOL   C25622762   1.680   3.464   5.176 -0.0782 -0.5709 -0.4612
   34MOL   C25722763   1.685   3.607   5.169  0.1680  0.6412  0.5586
   34MOL   C25822764   1.804   3.675   5.216 -0.0017  0.0583 -0.3433
   34MOL   C25922765   1.915   3.596   5.258  0.1381 -0.5753  0.0833
   34MOL   C26022766   2.146   3.380   5.098 -0.2579  0.8249  0.7040
   34MOL   C26122767   2.272   3.397   5.027 -0.1908 -0.1633 -0.2859
   34MOL   H26222768   2.455   3.219   4.909  1.0180 -0.3106  0.7516
   34MOL   H26322769   2.509   3.140   4.690 -0.1310  1.0393 -3.0380
   34MOL   H26422770   2.732   3.512   4.617  0.9400 -0.9344  0.1976
   34MOL   H26522771   2.653   3.593   4.840  2.0011 -1.2120  0.3024
   34MOL   H26622772   2.472   3.464   5.304 -0.2278 -0.8462 -0.1490
   34MOL   H26722773   2.244   3.417   5.416  0.3816  2.2464  0.2912
   34MOL   H26822774   1.800   3.280   5.236 -3.0295 -0.1874  1.1732
   34MOL   H26922775   1.595   3.403   5.151 -0.4444 -0.8498  1.3991
   34MOL   H27022776   1.809   3.783   5.213 -0.5311  0.1305  0.8600
   34MOL   H27122777   2.008   3.637   5.295 -0.0698  0.0458 -0.0639
   34MOL   H27222778   2.060   3.354   5.039 -0.5455  1.6202  0.7663
   34MOL   H27322779   2.274   3.406   4.919 -1.0667  2.9172 -0.0930
   34MOL   C27422780   1.264   3.537   5.284  0.2819  0.2521 -0.3220
   34MOL   C27522781   1.383   3.611   5.269 -0.1937  0.1728  0.2307
   34MOL   C27622782   1.449   3.615   5.144  0.3439  0.2670 -1.0619
   34MOL   O27722783   1.572   3.678   5.129 -0.4521  0.3870  0.4823
   34MOL   C27822784   1.391   3.543   5.038  0.1323  0.3581 -0.1321
   34MOL   C27922785   1.273   3.469   5.054  0.7941 -0.6834 -0.0399
   34MOL   C28022786   1.205   3.459   5.183 -0.4167 -0.1593 -0.3038
   34MOL   C28122787   1.088   3.371   5.220  0.2072 -0.3130  0.7257
   34MOL   O28222788   1.052   3.342   5.335 -0.0831  0.3988  0.1621
   34MOL   C28322789   1.006   3.331   5.096  0.3063 -0.3179 -0.2546
   34MOL   C28422790   0.976   3.419   4.993  1.0560 -0.2884  0.1381
   34MOL   C28522791   0.891   3.384   4.888 -0.4306  0.2720  0.1654
   34MOL   C28622792   0.842   3.251   4.868 -0.2951 -0.1202  0.3706
   34MOL   O28722793   0.775   3.207   4.751  0.8852 -0.3717 -0.6886
   34MOL   C28822794   0.857   3.161   4.647  0.0502 -0.2919 -0.0293
   34MOL   C28922795   0.792   3.137   4.525 -0.8098  0.2208  0.2215
   34MOL   C29022796   0.863   3.087   4.416 -0.2388 -0.6188  0.2948
   34MOL   C29122797   0.997   3.047   4.429  0.1607  0.0678 -0.2671
   34MOL   C29222798   1.062   3.066   4.554  0.1352  0.0639  0.2188
   34MOL   C29322799   0.992   3.123   4.663 -0.4971 -0.0417 -0.3039
   34MOL   C29422800   0.882   3.159   4.970 -0.0697  0.0225  0.1647
   34MOL   C29522801   0.954   3.202   5.082  0.5159 -0.3008  0.5444
   34MOL   H29622802   1.222   3.543   5.383 -1.8464  0.6447 -1.2335
   34MOL   H29722803   1.418   3.671   5.351 -1.1537  0.5555  0.3574
   34MOL   H29822804   1.440   3.536   4.942  2.9763 -2.5868  1.3969
   34MOL   H29922805   1.231   3.408   4.976 -0.8895  1.1830 -0.6335
   34MOL   H30022806   1.020   3.518   4.993  0.7167 -0.1141 -2.0811
   34MOL   H30122807   0.858   3.458   4.817  0.9806 -0.7220 -1.5410
   34MOL   H30222808   0.691   3.167   4.504 -0.8937 -0.4801 -0.4013
   34MOL   H30322809   0.823   3.085   4.316  0.7769 -0.2930 -0.1237
   34MOL   H30422810   1.165   3.036   4.560 -0.2866 -1.6504 -0.7044
   34MOL   H30522811   1.048   3.149   4.751 -1.0150  1.0252 -0.2963
   34MOL   H30622812   0.854   3.057   4.946 -0.8306  0.2014  0.2924
   34MOL   H30722813   0.973   3.127   5.159 -2.9705 -0.6614  1.1494
   34MOL   C30822814   1.104   3.219   4.046  0.0651  0.8978 -0.3010
   34MOL   C30922815   1.116   3.164   4.174 -0.0670  0.8205 -0.1883
   34MOL   C31022816   1.057   3.038   4.201  0.5106 -0.4222 -0.1729
   34MOL   O31122817   1.067   2.985   4.326 -0.0078  0.6892 -0.0455
   34MOL   C31222818   0.973   2.973   4.107  0.3540  0.1884 -0.0873
   34MOL   C31322819   0.955   3.043   3.984 -0.2057 -0.1112 -0.0528
   34MOL   C31422820   1.022   3.160   3.949 -0.0279 -0.2992  0.6585
   34MOL   C31522821   0.995   3.230   3.820 -0.1678  0.3931 -0.3097
   34MOL   O31622822   0.975   3.352   3.811  0.4153 -0.0452 -0.4166
   34MOL   C31722823   1.003   3.139   3.701 -0.1847 -0.2008  0.8371
   34MOL   C31822824   1.065   3.007   3.693 -0.2451 -0.1630 -0.1763
   34MOL   C31922825   1.033   2.931   3.579  0.0522  0.1167  0.4521
   34MOL   C32022826   0.952   2.973   3.473 -0.0600  0.3713  0.5635
   34MOL   O32122827   0.931   2.889   3.366  0.1615  0.1692 -0.1170
   34MOL   C32222828   0.816   2.813   3.374 -0.0446  0.0040  0.3719
   34MOL   C32322829   0.836   2.678   3.403 -0.3042 -0.8523 -0.0052
   34MOL   C32422830   0.730   2.590   3.408  0.3604 -0.6309 -0.0041
   34MOL   C32522831   0.599   2.641   3.390 -0.8815 -0.0462 -0.2222
   34MOL   C32622832   0.577   2.781   3.362 -0.3287  0.6159  0.5997
   34MOL   C32722833   0.686   2.868   3.342 -0.0328  0.1612 -0.2564
   34MOL   C32822834   0.893   3.102   3.480 -0.9790  0.6163  0.4596
   34MOL   C32922835   0.923   3.184   3.592 -0.8266 -0.2441  0.5806
   34MOL   H33022836   1.153   3.311   4.019 -0.8585  0.9409 -1.8768
   34MOL   H33122837   1.183   3.207   4.247  2.5267 -5.6431  1.5380
   34MOL   H33222838   0.908   2.892   4.136  1.7269 -0.7003  0.5825
   34MOL   H33322839   0.904   2.983   3.910 -0.0626  0.7629 -0.8756
   34MOL   H33422840   1.124   2.970   3.776 -2.3909 -1.5237  0.7873
   34MOL   H33522841   1.069   2.829   3.575  0.0304 -0.0729  3.6966
   34MOL   H33622842   0.937   2.645   3.426  0.4732  0.0480 -1.9938
   34MOL   H33722843   0.765   2.488   3.418  0.4268 -0.7024 -0.9245
   34MOL   H33822844   0.485   2.827   3.331 -0.9516 -0.6299  0.5632
   34MOL   H33922845   0.677   2.974   3.323 -1.1391  0.5357  2.1842
   34MOL   H34022846   0.833   3.127   3.394 -1.3630 -1.2148  0.1830
   34MOL   H34122847   0.874   3.281   3.590 -1.4688 -0.5704 -0.2993
   34MOL   C34222848   0.406   2.283   3.642 -0.3438 -0.4280 -0.1162
   34MOL   C34322849   0.402   2.367   3.528  0.0163  0.1327 -0.5389
   34MOL   C34422850   0.489   2.483   3.526 -0.2230 -0.2160 -0.2905
   34MOL   O34522851   0.493   2.564   3.414  0.6954 -0.5163 -0.1767
   34MOL   C34622852   0.562   2.513   3.646 -0.1379 -0.2093 -1.0391
   34MOL   C34722853   0.557   2.432   3.761 -0.6216 -0.2881  0.4177
   34MOL   C34822854   0.483   2.314   3.755 -0.2406  0.4221  0.6126
   34MOL   C34922855   0.480   2.227   3.877 -0.3200  0.1012  0.4458
   34MOL   O35022856   0.377   2.169   3.919  0.9062  0.3049  0.4312
   34MOL   C35122857   0.610   2.206   3.941  0.4303  0.5897  0.3514
   34MOL   C35222858   0.718   2.141   3.872  0.3709 -0.1011 -0.3252
   34MOL   C35322859   0.833   2.117   3.948  0.7622  0.4450 -0.3265
   34MOL   C35422860   0.858   2.166   4.080  0.2728  0.1457 -0.3265
   34MOL   O35522861   0.977   2.148   4.139 -0.7268 -0.4706  0.0799
   34MOL   C35622862   0.971   2.100   4.265  0.4071 -0.1537  0.1363
   34MOL   C35722863   0.945   1.964   4.282 -0.4841  1.1829 -0.1676
   34MOL   C35822864   0.940   1.899   4.405 -0.0737 -0.2019 -0.3783
   34MOL   C35922865   0.957   1.976   4.523 -0.2998  0.6067  0.2646
   34MOL   C36022866   0.985   2.117   4.506 -0.5997 -0.5906  0.2463
   34MOL   C36122867   0.996   2.179   4.380 -0.0477 -0.2812  0.2413
   34MOL   C36222868   0.755   2.231   4.142  0.7086 -0.1660 -0.4668
   34MOL   C36322869   0.630   2.248   4.072  0.2851 -0.0081  0.1328
   34MOL   H36422870   0.348   2.192   3.639  1.9232 -1.9495  0.1110
   34MOL   H36522871   0.366   2.334   3.432  0.4033  0.3870 -0.7715
   34MOL   H36622872   0.606   2.611   3.654 -1.8778  0.5229 -0.0047
   34MOL   H36722873   0.609   2.463   3.851 -1.1145  0.4469  0.4583
   34MOL   H36822874   0.708   2.103   3.772 -1.9900  0.0674 -0.1934
   34MOL   H36922875   0.913   2.062   3.901 -0.6222  0.2677 -2.5932
   34MOL   H37022876   0.944   1.902   4.193 -1.8374  0.5267  0.2940
   34MOL   H37122877   0.919   1.794   4.418 -3.3175  0.2850 -1.1826
   34MOL   H37222878   1.007   2.179   4.591 -1.1869 -2.2271  1.6236
   34MOL   H37322879   1.019   2.285   4.374  1.6204 -0.7990 -4.2399
   34MOL   H37422880   0.757   2.266   4.244  0.8759  0.6720 -0.7607
   34MOL   H37522881   0.552   2.291   4.134 -0.4288 -1.5454  0.3231
   34MOL   C37622882   1.019   1.574   4.766  0.1981  0.1776  0.6836
   34MOL   C37722883   0.949   1.698   4.744  0.3257 -0.5979  0.0805
   34MOL   C37822884   1.017   1.797   4.670 -0.3945  0.3050 -0.1374
   34MOL   O37922885   0.962   1.920   4.650  0.2787 -0.4373  0.0221
   34MOL   C38022886   1.155   1.785   4.635  0.3491 -0.7279 -0.1658
   34MOL   C38122887   1.217   1.663   4.655  0.2500 -0.0833  0.1410
   34MOL   C38222888   1.154   1.563   4.730 -0.4528  0.3913 -0.1993
   34MOL   C38322889   1.226   1.439   4.757  1.0338 -0.1738 -0.0913
   34MOL   O38422890   1.214   1.374   4.861  0.2760  0.0259 -0.2297
   34MOL   C38522891   1.301   1.382   4.641  0.1412  0.2947 -0.0447
   34MOL   C38622892   1.442   1.355   4.652 -0.9203  0.0607  0.2396
   34MOL   C38722893   1.521   1.322   4.539  0.3469  0.3715  0.4119
   34MOL   C38822894   1.457   1.300   4.419 -0.2195 -0.1690 -0.7074
   34MOL   O38922895   1.509   1.227   4.318 -0.3081 -0.3252  1.1654
   34MOL   C39022896   1.625   1.262   4.239 -0.3760  0.5950  0.9916
   34MOL   C39122897   1.660   1.179   4.126 -0.4535 -0.0212  0.4023
   34MOL   C39222898   1.782   1.197   4.060 -0.4805  0.1169  0.0357
   34MOL   C39322899   1.872   1.296   4.102 -0.2031  0.6833 -0.2625
   34MOL   C39422900   1.834   1.383   4.206  0.0231  0.2116  0.0938
   34MOL   C39522901   1.718   1.358   4.281  0.0855 -0.2506  0.1005
   34MOL   C39622902   1.319   1.328   4.405 -0.1816  0.3664  0.1100
   34MOL   C39722903   1.240   1.366   4.512  0.1841  0.2465  0.5249
   34MOL   H39822904   0.968   1.494   4.818 -0.2621 -1.0641 -1.5690
   34MOL   H39922905   0.842   1.709   4.757  0.2184 -2.2181  0.6699
   34MOL   H40022906   1.196   1.868   4.581  0.6381  0.6764  2.1592
   34MOL   H40122907   1.317   1.651   4.616 -0.5496 -0.6369 -1.7993
   34MOL   H40222908   1.483   1.367   4.752 -2.4038  2.0758  0.6492
   34MOL   H40322909   1.622   1.289   4.555  1.7688  3.6087 -1.3018
   34MOL   H40422910   1.585   1.104   4.107 -0.9838  1.0774 -2.0309
   34MOL   H40522911   1.803   1.131   3.978 -0.9159 -0.3388  0.2898
   34MOL   H40622912   1.906   1.453   4.245  1.0795 -0.0636 -1.3546
   34MOL   H40722913   1.694   1.424   4.362 -0.9423 -0.1267 -0.2988
   34MOL   H40822914   1.265   1.302   4.315  2.1917 -0.6882 -1.0420
   34MOL   H40922915   1.134   1.387   4.502  0.6738  2.6725  0.1683
   34MOL   C41022916   2.266   1.174   4.231 -0.1815 -0.4135  0.1706
   34MOL   C41122917   2.133   1.193   4.187  0.6417 -0.9186  0.1686
   34MOL   C41222918   2.106   1.286   4.087 -0.1464 -0.0306 -0.1462
   34MOL   O41322919   1.982   1.318   4.030 -0.3562  0.3477  0.3425
   34MOL   C41422920   2.215   1.357   4.036 -0.3385  0.3287  0.1215
   34MOL   C41522921   2.350   1.349   4.081 -0.5266  1.3502  0.8452
   34MOL   C41622922   2.377   1.248   4.179 -0.1525  0.0132  0.6385
   34MOL   C41722923   2.513   1.225   4.231 -0.4042  0.2507 -1.0338
   34MOL   O41822924   2.520   1.224   4.356 -0.3834 -0.6173  0.2386
   34MOL   C41922925   2.632   1.231   4.145 -0.0774  0.7818 -0.3123
   34MOL   C42022926   2.638   1.168   4.020  0.2044  0.1311  0.0502
   34MOL   C42122927   2.752   1.177   3.937 -0.1313 -0.1568 -0.8718
   34MOL   C42222928   2.868   1.234   3.983 -0.1525 -0.4501  0.1603
   34MOL   O42322929   2.991   1.221   3.916 -0.4168 -0.0198 -0.3920
   34MOL   C42422930   3.030   1.345   3.866  0.0159 -0.3749  0.0235
   34MOL   C42522931   2.978   1.382   3.739 -0.9008  0.3034 -0.1328
   34MOL   C42622932   3.030   1.494   3.673  0.6734 -0.0256 -0.1891
   34MOL   C42722933   3.114   1.584   3.738 -0.5040  0.4035 -0.0044
   34MOL   C42822934   3.156   1.553   3.865  0.1808 -0.5048  0.1056
   34MOL   C42922935   3.115   1.435   3.929 -0.0440 -0.3323 -0.4796
   34MOL   C43022936   2.868   1.300   4.111  1.2109  0.2264 -0.8112
   34MOL   C43122937   2.749   1.301   4.186 -0.2555 -0.0219  0.1970
   34MOL   H43222938   2.273   1.093   4.302 -0.1339 -0.5295  0.0341
   34MOL   H43322939   2.050   1.140   4.232 -1.8443  1.9012 -0.9206
   34MOL   H43422940   2.186   1.436   3.968  0.9570  0.7002 -0.0080
   34MOL   H43522941   2.428   1.410   4.038  0.9099 -0.1148  1.3567
   34MOL   H43622942   2.557   1.105   3.985 -0.3040  0.3478  0.8322
   34MOL   H43722943   2.758   1.134   3.838  2.3258 -0.5999 -0.5467
   34MOL   H43822944   2.906   1.315   3.696  0.4175  0.7887 -3.2166
   34MOL   H43922945   3.017   1.501   3.566  2.0485 -0.2187 -0.3781
   34MOL   H44022946   3.210   1.633   3.914  0.2406  0.1410 -0.9783
   34MOL   H44122947   3.146   1.413   4.030 -3.3920  0.9407  0.8936
   34MOL   H44222948   2.955   1.351   4.150  1.0646  1.3038 -1.8596
   34MOL   H44322949   2.752   1.358   4.278 -1.7830  1.0690 -0.4160
   34MOL   C44422950   3.109   2.030   3.873  0.1694  0.1637 -0.0311
   34MOL   C44522951   3.167   1.925   3.798 -0.3802 -0.4331 -0.5869
   34MOL   C44622952   3.091   1.815   3.746  0.1557  0.1961  1.0080
   34MOL   O44722953   3.154   1.705   3.684 -0.3914 -0.2072 -0.1134
   34MOL   C44822954   2.950   1.817   3.762  0.0315  0.0936  0.2294
   34MOL   C44922955   2.896   1.920   3.842  0.4108  0.3847 -0.3078
   34MOL   C45022956   2.973   2.024   3.901 -0.1302  0.9292  0.3711
   34MOL   C45122957   2.911   2.127   3.991  0.5749 -0.5212  0.3703
   34MOL   O45222958   2.964   2.155   4.099  0.0075 -0.3945  0.0595
   34MOL   C45322959   2.792   2.197   3.938  0.0557  0.5532  0.5190
   34MOL   C45422960   2.680   2.225   4.025  0.4730 -0.2756  0.2791
   34MOL   C45522961   2.560   2.275   3.985  0.3517 -0.1908  0.2847
   34MOL   C45622962   2.544   2.305   3.844 -0.1359 -0.2430 -0.8611
   34MOL   O45722963   2.430   2.368   3.805 -0.4117  0.0095  0.7090
   34MOL   C45822964   2.346   2.299   3.724 -0.1481  0.5076  0.4457
   34MOL   C45922965   2.325   2.331   3.590  0.1071 -0.3667 -0.3359
   34MOL   C46022966   2.224   2.266   3.518 -0.6277 -0.2627  0.4775
   34MOL   C46122967   2.157   2.157   3.570 -0.0821  0.4614 -0.0697
   34MOL   C46222968   2.169   2.123   3.705 -0.0759 -1.1348  0.2989
   34MOL   C46322969   2.277   2.185   3.774  0.8499  0.2023  1.0634
   34MOL   C46422970   2.648   2.271   3.751 -0.6279  0.2905  0.4249
   34MOL   C46522971   2.776   2.224   3.801  0.2422 -0.0691  0.7853
   34MOL   H46622972   3.170   2.112   3.908  0.6249 -0.2664  0.1880
   34MOL   H46722973   3.274   1.921   3.787 -0.3287 -1.6957  0.2123
   34MOL   H46822974   2.885   1.745   3.714  0.6478 -0.5771  0.3919
   34MOL   H46922975   2.789   1.917   3.856  0.4141  0.4871 -0.2677
   34MOL   H47022976   2.694   2.196   4.128  0.5942  3.0046  1.2411
   34MOL   H47122977   2.474   2.300   4.045  0.4647  1.0388 -0.0453
   34MOL   H47222978   2.380   2.413   3.547  0.6527 -0.4302  0.2374
   34MOL   H47322979   2.206   2.286   3.413  2.6242 -0.8728 -0.2488
   34MOL   H47422980   2.111   2.046   3.752  0.8771 -0.1048  3.2581
   34MOL   H47522981   2.298   2.155   3.876 -2.3094 -3.7474  0.6621
   34MOL   H47622982   2.636   2.294   3.646 -2.6069 -2.2088  0.0463
   34MOL   H47722983   2.853   2.198   3.730 -0.7577 -1.0394  0.0220
   34MOL   C47822984   1.788   2.278   3.357  0.1110  0.2533  0.4696
   34MOL   C47922985   1.891   2.233   3.452 -0.9719 -0.4027 -0.0633
   34MOL   C48022986   1.973   2.117   3.418 -0.3932 -0.3044  0.4520
   34MOL   O48122987   2.083   2.075   3.492  0.2200 -0.0682  0.6459
   34MOL   C48222988   1.945   2.041   3.305  0.0952  0.2293  0.3220
   34MOL   C48322989   1.841   2.081   3.212 -0.1927 -0.0350  0.4988
   34MOL   C48422990   1.768   2.200   3.236  0.0723 -0.1901  0.0311
   34MOL   C48522991   1.651   2.229   3.155  0.5913  0.3555  0.4684
   34MOL   O48622992   1.652   2.213   3.033  0.1165 -0.1389  0.8452
   34MOL   C48722993   1.530   2.285   3.224  0.1813 -0.7010 -0.1296
   34MOL   C48822994   1.442   2.378   3.149 -0.3625  0.2241 -1.0370
   34MOL   C48922995   1.337   2.442   3.211  0.0239  0.3508  0.0508
   34MOL   C49022996   1.294   2.401   3.341  0.1860  0.1683 -0.3332
   34MOL   O49122997   1.179   2.456   3.394  0.6828  0.3061 -0.1244
   34MOL   C49222998   1.077   2.364   3.413 -0.1474 -0.6791 -0.9192
   34MOL   C49322999   1.003   2.371   3.533  0.6621 -0.0215 -0.0867
   34MOL   C49423000   0.897   2.284   3.558 -0.4130 -0.0901 -0.8363
   34MOL   C49523001   0.837   2.208   3.458 -1.0697 -0.0906 -0.7122
   34MOL   C49623002   0.904   2.203   3.331 -0.3857 -0.3065 -0.0935
   34MOL   C49723003   1.025   2.279   3.311  0.8608  0.5371 -0.4943
   34MOL   C49823004   1.366   2.305   3.412 -0.7266 -0.4500 -0.9621
   34MOL   C49923005   1.487   2.256   3.354  0.1408  0.1240 -0.7470
   34MOL   H50023006   1.728   2.364   3.381  0.3083  0.4663  0.2051
   34MOL   H50123007   1.915   2.293   3.538  1.0237  1.9345 -2.1508
   34MOL   H50223008   1.990   1.943   3.309 -1.5064 -0.5069  0.9571
   34MOL   H50323009   1.833   2.025   3.121 -0.1961 -0.8156  0.9777
   34MOL   H50423010   1.484   2.414   3.057  0.1993 -0.2232 -0.9587
   34MOL   H50523011   1.286   2.511   3.146  2.4213  0.5144 -1.7347
   34MOL   H50623012   1.030   2.439   3.612 -1.0458  2.0586 -1.2416
   34MOL   H50723013   0.850   2.298   3.655  1.3805 -1.4416  0.2632
   34MOL   H50823014   0.873   2.137   3.251 -2.4780  1.5581 -0.8669
   34MOL   H50923015   1.057   2.279   3.208 -1.3272 -0.1468 -1.2049
   34MOL   H51023016   1.334   2.281   3.512 -0.1567  0.1156 -0.6361
   34MOL   H51123017   1.551   2.186   3.405 -0.0090  0.1982 -0.4567
   34MOL   C51223018   0.527   2.186   3.157 -0.6479  0.4394 -0.9917
   34MOL   C51323019   0.619   2.214   3.259  0.0060 -0.4397 -0.1142
   34MOL   C51423020   0.627   2.127   3.368 -1.1851 -0.4644 -0.3189
   34MOL   O51523021   0.714   2.147   3.476  0.1797  0.4371 -0.0585
   34MOL   C51623022   0.544   2.019   3.374 -0.2685 -0.1125 -0.1430
   34MOL   C51723023   0.452   1.988   3.273 -0.9659 -0.1573  1.0008
   34MOL   C51823024   0.442   2.075   3.160 -0.3355  0.4809 -0.8272
   34MOL   C51923025   0.349   2.050   3.048 -0.9117  0.3179  0.3019
   34MOL   O52023026   0.354   2.115   2.941 -0.3783 -0.2363 -0.0594
   34MOL   C52123027   0.277   1.927   3.039 -0.0436  0.5925 -0.2472
   34MOL   C52223028   0.320   1.808   2.964  0.9898 -0.5377 -0.2160
   34MOL   C52323029   0.250   1.688   2.974  0.0604 -0.5591  0.2992
   34MOL   C52423030   0.136   1.672   3.063  0.6080  0.0454  0.5770
   34MOL   O52523031   0.078   1.546   3.089  0.0478  0.1669 -0.4125
   34MOL   C52623032   0.016   1.487   2.989  0.1466 -0.0127  0.2795
   34MOL   C52723033   8.246   1.552   2.897 -0.0699 -0.2001  0.1393
   34MOL   C52823034   8.169   1.478   2.807  0.4773 -0.1948  0.3495
   34MOL   C52923035   8.170   1.338   2.798  0.4333  0.0380 -0.2240
   34MOL   C53023036   8.256   1.272   2.890 -0.2777 -0.2224 -0.3512
   34MOL   C53123037   0.022   1.346   2.982 -0.5669  0.2496  0.3538
   34MOL   C53223038   0.100   1.785   3.138  0.4001  0.5279 -0.2762
   34MOL   C53323039   0.168   1.911   3.125  0.0155  0.1141  0.0270
   34MOL   H53423040   0.529   2.251   3.071 -3.2871 -1.8276 -2.8729
   34MOL   H53523041   0.680   2.302   3.250 -0.7183 -0.1294 -2.1128
   34MOL   H53623042   0.552   1.952   3.458 -1.3657 -1.6280 -1.2141
   34MOL   H53723043   0.375   1.915   3.292 -0.1701 -1.4752 -0.7312
   34MOL   H53823044   0.407   1.826   2.903  0.4976  0.6071 -0.5977
   34MOL   H53923045   0.282   1.598   2.922 -0.8029 -1.0211  0.5660
   34MOL   H54023046   8.241   1.659   2.905  0.1583 -0.3823  3.2416
   34MOL   H54123047   8.100   1.526   2.739 -0.3376 -0.0527  1.2689
   34MOL   H54223048   8.262   1.165   2.904  1.4478 -0.2377 -1.0141
   34MOL   H54323049   0.090   1.300   3.052 -0.4957 -0.0175  0.1081
   34MOL   H54423050   0.027   1.781   3.217  0.0604 -0.2408 -0.6209
   34MOL   H54523051   0.129   1.988   3.189 -1.0839  1.3400 -2.0694
   34MOL   C54623052   7.737   1.302   2.684  0.7409 -0.0204 -1.2744
   34MOL   C54723053   7.873   1.321   2.649  0.2462 -0.4577 -0.3134
   34MOL   C54823054   7.972   1.248   2.722 -0.0751 -0.2503 -0.4629
   34MOL   O54923055   8.101   1.281   2.695  0.0669 -0.1159  0.1289
   34MOL   C55023056   7.941   1.155   2.811  0.2588 -0.1795 -0.0269
   34MOL   C55123057   7.807   1.139   2.853 -0.0635 -0.2367 -0.6911
   34MOL   C55223058   7.702   1.214   2.789  0.5573 -0.0356 -1.2004
   34MOL   C55323059   7.558   1.194   2.821 -0.4088  0.3760 -0.1224
   34MOL   O55423060   7.477   1.252   2.753 -0.5353  0.3222  0.2926
   34MOL   C55523061   7.520   1.126   2.945 -0.7589  0.1774  0.2296
   34MOL   C55623062   7.537   0.986   2.968 -0.5238  0.9073 -0.4118
   34MOL   C55723063   7.499   0.929   3.089  0.2329 -0.2557  0.6178
   34MOL   C55823064   7.443   1.008   3.192  0.1256 -0.8959 -0.4555
   34MOL   O55923065   7.385   0.944   3.298  0.1716  0.0357 -0.2196
   34MOL   C56023066   7.336   1.014   3.403  0.2105 -0.4262  0.5380
   34MOL   C56123067   7.418   1.098   3.486  0.0214 -0.4750 -0.0805
   34MOL   C56223068   7.354   1.181   3.580  0.1725 -0.1267 -0.7651
   34MOL   C56323069   7.223   1.169   3.615  0.3196 -0.3269 -0.3353
   34MOL   C56423070   7.136   1.078   3.543 -0.2410 -0.5919 -0.2837
   34MOL   C56523071   7.196   1.009   3.432  0.6735 -0.4174  0.5186
   34MOL   C56623072   7.420   1.148   3.161 -0.4987 -0.2104 -0.5071
   34MOL   C56723073   7.463   1.206   3.039  0.1448 -0.4725 -0.7743
   34MOL   H56823074   7.666   1.356   2.624  0.3427  1.4703  0.4994
   34MOL   H56923075   7.906   1.393   2.575  1.4414 -0.7345 -0.0593
   34MOL   H57023076   8.022   1.095   2.850  0.1368  1.2954  2.5607
   34MOL   H57123077   7.795   1.068   2.933  0.9424 -1.1097 -1.3074
   34MOL   H57223078   7.584   0.927   2.891  1.0622  0.6555  0.7369
   34MOL   H57323079   7.506   0.822   3.102  2.7949 -0.0323  1.3873
   34MOL   H57423080   7.525   1.103   3.470 -0.2768 -0.0611 -2.0688
   34MOL   H57523081   7.412   1.252   3.637 -0.3610 -0.7038  0.5166
   34MOL   H57623082   7.034   1.056   3.572  0.3988 -1.3336  1.5175
   34MOL   H57723083   7.144   0.937   3.370 -1.6364  2.7282 -1.3337
   34MOL   H57823084   7.358   1.202   3.232  0.0025 -1.0721  0.6020
   34MOL   H57923085   7.451   1.312   3.026  3.0779  0.0335  0.3907
   34MOL   C58023086   6.900   1.432   3.555  0.1704  0.0904 -0.4609
   34MOL   C58123087   7.028   1.374   3.581  0.0085 -0.3474 -0.0796
   34MOL   C58223088   7.058   1.310   3.705 -0.1627 -0.9605  0.6048
   34MOL   O58323089   7.179   1.247   3.722 -0.4232  0.2935 -0.5314
   34MOL   C58423090   6.952   1.303   3.800 -0.0785 -0.6106 -0.1591
   34MOL   C58523091   6.826   1.356   3.774 -0.2230  0.3421 -0.5136
   34MOL   C58623092   6.798   1.425   3.653 -0.0907  0.0480  0.5127
   34MOL   C58723093   6.665   1.492   3.626  0.0774 -0.5083  0.2599
   34MOL   O58823094   6.614   1.562   3.712  0.1028  0.3438 -0.0869
   34MOL   C58923095   6.597   1.459   3.499  1.2396 -0.2911  0.7708
   34MOL   C59023096   6.502   1.545   3.441  0.4704  0.7967 -0.5626
   34MOL   C59123097   6.419   1.502   3.335  0.5040 -0.8342 -0.3861
   34MOL   C59223098   6.446   1.381   3.267 -0.2948  0.2442 -0.1982
   34MOL   O59323099   6.367   1.329   3.162 -0.0955 -0.4006 -0.2013
   34MOL   C59423100   6.402   1.377   3.041  0.2087  0.0577  0.3117
   34MOL   C59523101   6.520   1.329   2.976 -0.1512 -0.6316 -0.1586
   34MOL   C59623102   6.549   1.373   2.846 -0.8622  0.5586  0.2107
   34MOL   C59723103   6.474   1.465   2.775  0.1347 -0.1744 -0.5521
   34MOL   C59823104   6.368   1.521   2.846 -0.5787 -0.1821  0.4393
   34MOL   C59923105   6.329   1.477   2.977  0.5480  0.5761  0.5904
   34MOL   C60023106   6.544   1.296   3.319  0.1674  0.4585 -0.2061
   34MOL   C60123107   6.616   1.330   3.434  0.6816  0.8625  0.1017
   34MOL   H60223108   6.874   1.471   3.457  0.2056 -2.3976 -1.4911
   34MOL   H60323109   7.105   1.378   3.506 -0.0143 -0.8565 -0.1314
   34MOL   H60423110   6.965   1.256   3.897  0.9937  0.7830  0.3827
   34MOL   H60523111   6.743   1.347   3.843  0.5999  1.7774  0.6964
   34MOL   H60623112   6.487   1.645   3.480 -0.4637  1.1101 -1.6986
   34MOL   H60723113   6.348   1.570   3.290  2.6123  0.8521 -1.2243
   34MOL   H60823114   6.580   1.253   3.025 -0.0742 -1.4128 -1.4283
   34MOL   H60923115   6.643   1.339   2.806 -0.1634  2.0676  0.5183
   34MOL   H61023116   6.306   1.589   2.789  0.4917  0.5828  0.1679
   34MOL   H61123117   6.245   1.521   3.029  2.7206  4.1988  1.2188
   34MOL   H61223118   6.546   1.196   3.279  1.1076  0.5266 -0.3431
   34MOL   H61323119   6.689   1.266   3.483  1.5353  0.9291 -1.0601
   34MOL   C61423120   6.785   1.754   2.646 -0.4504 -0.2730 -0.4322
   34MOL   C61523121   6.709   1.636   2.669  0.4591  0.2939 -0.2666
   34MOL   C61623122   6.573   1.620   2.624 -0.1870 -0.2720 -0.2582
   34MOL   O61723123   6.506   1.503   2.649  0.4726  0.2834  0.9095
   34MOL   C61823124   6.520   1.729   2.555 -0.1909 -0.1142  1.2118
   34MOL   C61923125   6.595   1.850   2.532  0.7718 -0.2806  0.0746
   34MOL   C62023126   6.726   1.864   2.574 -0.0493 -0.4221 -0.6108
   34MOL   C62123127   6.802   1.987   2.551  0.4877 -0.0522  0.4550
   34MOL   O62223128   6.922   1.986   2.521 -0.1380  0.0140  0.1417
   34MOL   C62323129   6.733   2.116   2.577  0.2517 -0.3074  0.4401
   34MOL   C62423130   6.764   2.240   2.515  0.1666 -0.5776  0.2458
   34MOL   C62523131   6.713   2.364   2.560 -0.0834  0.0165 -0.0733
   34MOL   C62623132   6.617   2.366   2.661 -0.0954  0.2399  0.5009
   34MOL   O62723133   6.568   2.485   2.700  0.7525  0.5715 -0.3196
   34MOL   C62823134   6.442   2.528   2.659 -0.5159 -0.0689  0.3373
   34MOL   C62923135   6.364   2.599   2.751 -0.4794  0.4107  0.5062
   34MOL   C63023136   6.239   2.645   2.707  0.1104 -0.6841 -0.0804
   34MOL   C63123137   6.195   2.637   2.579  1.3485  0.0237  0.3895
   34MOL   C63223138   6.269   2.565   2.483  0.4944 -0.4566 -0.2404
   34MOL   C63323139   6.391   2.506   2.528  0.0576 -0.2433 -0.1518
   34MOL   C63423140   6.572   2.245   2.709  0.3016  0.6061  0.6873
   34MOL   C63523141   6.626   2.123   2.674 -0.1423  0.4970 -0.3895
   34MOL   H63623142   6.883   1.768   2.689 -1.2950 -1.1262  1.8770
   34MOL   H63723143   6.755   1.554   2.721 -0.3097 -0.9803 -1.5347
   34MOL   H63823144   6.417   1.728   2.522  0.1973  1.6761 -0.1108
   34MOL   H63923145   6.552   1.938   2.487 -1.9408 -0.3467  2.4287
   34MOL   H64023146   6.840   2.237   2.438 -1.7556  2.6586 -1.9109
   34MOL   H64123147   6.747   2.456   2.514 -2.3949  0.6368 -0.6279
   34MOL   H64223148   6.404   2.620   2.850  0.8275 -1.2241  0.3431
   34MOL   H64323149   6.181   2.695   2.783  2.3491 -0.0213  1.2435
   34MOL   H64423150   6.230   2.548   2.384  2.2286 -0.9435 -0.8609
   34MOL   H64523151   6.445   2.441   2.460 -2.3617 -2.5022  0.0086
   34MOL   H64623152   6.505   2.256   2.793 -0.5982 -0.4452  0.1224
   34MOL   H64723153   6.606   2.036   2.736  2.9440 -1.7146 -2.3762
   34MOL   C64823154   5.819   2.455   2.630  0.1541  0.4287  0.1376
   34MOL   C64923155   5.940   2.507   2.598  0.0331 -0.0033  0.1644
   34MOL   C65023156   5.958   2.641   2.577  0.1864 -0.3659 -0.7547
   34MOL   O65123157   6.074   2.702   2.546 -0.0967 -0.2812 -0.4712
   34MOL   C65223158   5.850   2.728   2.596  0.0004 -0.4054 -0.2685
   34MOL   C65323159   5.723   2.677   2.626  0.2889  0.1534  0.1678
   34MOL   C65423160   5.709   2.539   2.653  0.3403  0.1835  0.0886
   34MOL   C65523161   5.573   2.483   2.699 -0.2069  0.2908 -0.0068
   34MOL   O65623162   5.549   2.367   2.684  0.0569 -0.1951  0.3009
   34MOL   C65723163   5.466   2.580   2.744 -0.6013 -0.1431 -0.6911
   34MOL   C65823164   5.480   2.653   2.862 -0.5833 -0.4050  0.2421
   34MOL   C65923165   5.380   2.740   2.902 -0.1127  0.7281 -0.1860
   34MOL   C66023166   5.252   2.741   2.834 -0.8958 -0.2105 -0.0330
   34MOL   O66123167   5.153   2.824   2.877 -0.2224 -0.2083 -0.7864
   34MOL   C66223168   5.106   2.908   2.780  0.8669  0.0192  0.3855
   34MOL   C66323169   4.974   2.901   2.737 -0.7361  0.1791  0.0492
   34MOL   C66423170   4.926   2.977   2.634  0.3676 -1.3097  0.2422
   34MOL   C66523171   5.010   3.077   2.569 -0.0366 -0.4265  0.5398
   34MOL   C66623172   5.144   3.086   2.615 -0.4179 -0.1342 -0.5270
   34MOL   C66723173   5.189   3.001   2.722 -0.1331 -0.6904 -0.0212
   34MOL   C66823174   5.243   2.663   2.717 -0.1023  0.9891  1.2224
   34MOL   C66923175   5.345   2.583   2.676  0.2478 -0.0971  0.7145
   34MOL   H67023176   5.806   2.350   2.649  4.1858  0.2091  2.3456
   34MOL   H67123177   6.029   2.446   2.595 -1.5919 -2.3410 -1.6469
   34MOL   H67223178   5.842   2.833   2.573 -0.4815 -0.3450  0.1868
   34MOL   H67323179   5.639   2.746   2.621  0.1091 -0.0589  0.2520
   34MOL   H67423180   5.570   2.657   2.921 -0.7889 -0.2320  0.5448
   34MOL   H67523181   5.398   2.802   2.989 -1.6767  0.9032  0.0284
   34MOL   H67623182   4.908   2.833   2.790 -0.8189 -0.2877 -0.6482
   34MOL   H67723183   4.822   2.984   2.607  1.0315 -2.1798 -2.7191
   34MOL   H67823184   5.223   3.148   2.576  0.8805 -0.5740  1.3066
   34MOL   H67923185   5.292   3.000   2.757 -0.2270 -0.1308  0.2766
   34MOL   H68023186   5.152   2.667   2.660  0.7165 -0.0874 -0.1792
   34MOL   H68123187   5.327   2.514   2.595 -0.6191  0.8700  0.0667
   34MOL   H68223188   4.969   3.144   2.494 -0.6798 -1.0822  0.2948
   35MOL     C123189   8.001   7.380   0.131  0.3157  0.2263 -0.6531
   35MOL     C223190   8.100   7.322   0.220 -0.0783  0.8247  0.0924
   35MOL     C323191   8.066   7.302   0.353  0.5821 -0.7910  0.6652
   35MOL     O423192   8.141   7.228   0.435 -0.2603  0.0234 -0.2168
   35MOL     C523193   7.949   7.358   0.407  0.5735  0.7491 -0.0665
   35MOL     C623194   7.857   7.428   0.326 -0.2170 -0.1715 -0.4331
   35MOL     C723195   7.883   7.434   0.185  0.1593 -0.1671  0.3488
   35MOL     C823196   7.779   7.489   0.090  0.1013  0.2230 -0.8038
   35MOL     O923197   7.787   7.456   8.283 -0.3773  0.2894  0.4593
   35MOL    C1023198   7.676   7.573   0.136  0.8659  0.2698 -0.1882
   35MOL    C1123199   7.550   7.519   0.174  0.0174 -0.7828  0.0894
   35MOL    C1223200   7.451   7.607   0.210 -0.2262  0.3857  0.5930
   35MOL    C1323201   7.450   7.742   0.189  0.5095 -0.0285 -0.5693
   35MOL    O1423202   7.336   7.809   0.217 -0.5411  0.2963 -0.4422
   35MOL    C1523203   7.334   7.931   0.280  0.6647  0.3215 -0.5295
   35MOL    C1623204   7.305   8.045   0.204 -0.6046 -0.7585 -0.1722
   35MOL    C1723205   7.299   8.171   0.261  0.0453  0.4162 -0.4007
   35MOL    C1823206   7.326   8.191   0.400 -0.3904 -0.0486  0.2617
   35MOL    C1923207   7.354   8.074   0.475  0.7471  0.5936  0.1999
   35MOL    C2023208   7.364   7.950   0.411  0.1221 -0.3335 -0.1935
   35MOL    C2123209   7.575   7.796   0.156  0.0863  0.0888  0.3322
   35MOL    C2223210   7.680   7.713   0.131 -0.1349  0.1604 -0.0857
   35MOL    H2323211   8.016   7.392   0.025 -0.9994 -2.4974 -1.1995
   35MOL    H2423212   8.192   7.296   0.169 -0.3327 -3.2676  1.5802
   35MOL    H2523213   7.920   7.340   0.509 -2.3817 -1.3878 -1.2182
   35MOL    H2623214   7.754   7.445   0.357 -0.0773 -0.4441  0.1911
   35MOL    H2723215   7.542   7.415   0.205  1.4383 -1.0221 -0.2927
   35MOL    H2823216   7.366   7.557   0.255  0.2973 -0.7841  0.3140
   35MOL    H2923217   7.282   8.032   0.100 -0.0175  2.0225 -0.6846
   35MOL    H3023218   7.278   8.257   0.198 -1.9491 -0.6775 -1.2761
   35MOL    H3123219   7.358   8.072   0.583  2.1069 -2.8663  0.1282
   35MOL    H3223220   7.394   7.861   0.463  0.7610 -0.9582 -1.6120
   35MOL    H3323221   7.587   7.899   0.125  0.2101 -0.0406 -0.0553
   35MOL    H3423222   7.760   7.763   0.076 -0.5350 -0.8969 -1.6625
   35MOL    H3523223   8.221   7.196   0.396 -2.0232 -2.2251 -2.0627
   35MOL    C3623224   7.286   0.025   0.809  0.0347 -0.0013  0.1852
   35MOL    C3723225   7.256   0.009   0.672  0.2298 -0.0127 -0.4970
   35MOL    C3823226   7.359   0.026   0.581  0.1425 -0.7485  0.5645
   35MOL    O3923227   7.324   0.007   0.448  0.6904  0.1511  0.5569
   35MOL    C4023228   7.486   0.067   0.619  0.6466 -0.6148  0.4537
   35MOL    C4123229   7.517   0.076   0.755 -0.1562 -0.4665 -0.0644
   35MOL    C4223230   7.421   0.044   0.853  0.1036 -0.2026 -0.8313
   35MOL    C4323231   7.465   0.030   0.999 -0.9361 -0.0230 -0.0465
   35MOL    O4423232   7.577   0.057   1.045  0.2610  0.3699  0.3882
   35MOL    C4523233   7.367   8.288   1.091  0.4588  0.2495 -0.6567
   35MOL    C4623234   7.341   0.041   1.213 -0.0260  0.5959  0.2387
   35MOL    C4723235   7.245   8.309   1.311 -0.4071 -0.0892  0.2944
   35MOL    C4823236   7.176   8.192   1.284  0.0228 -1.0319 -0.4138
   35MOL    O4923237   7.081   8.143   1.376  0.0855  0.5255 -0.0039
   35MOL    C5023238   6.953   8.106   1.337  0.3608 -0.6850 -0.4287
   35MOL    C5123239   6.862   8.192   1.268  0.0239 -0.3448  0.2648
   35MOL    C5223240   6.739   8.143   1.224  0.2022  0.7177 -0.6086
   35MOL    C5323241   6.702   8.014   1.256 -0.6656  0.0873  0.3898
   35MOL    C5423242   6.791   7.926   1.323 -0.4926 -0.1879 -0.6027
   35MOL    C5523243   6.911   7.976   1.368  0.3650  0.2114  0.3576
   35MOL    C5623244   7.209   8.120   1.169 -0.3329 -0.4829  0.2555
   35MOL    C5723245   7.302   8.167   1.072  0.6213  0.2056  0.3252
   35MOL    H5823246   7.201   0.025   0.876  1.0834 -0.4901  1.5176
   35MOL    H5923247   7.157   8.294   0.638  0.1425 -0.1584 -0.1304
   35MOL    H6023248   7.573   0.085   0.559  1.0015  2.0264  1.6665
   35MOL    H6123249   7.617   0.111   0.774 -0.6812  0.9216  0.2429
   35MOL    H6223250   7.386   0.137   1.235 -1.3451  0.9492  1.4905
   35MOL    H6323251   7.234   0.055   1.401  1.2769 -0.6301  0.8658
   35MOL    H6423252   6.896   8.287   1.228 -3.1085  1.0071  0.6002
   35MOL    H6523253   6.669   8.208   1.174 -0.2894  1.0625  0.5277
   35MOL    H6623254   6.762   7.826   1.349  3.0851 -1.3719 -0.8555
   35MOL    H6723255   6.981   7.906   1.411 -0.3777 -1.7814 -1.5967
   35MOL    H6823256   7.154   8.028   1.156  1.4310 -1.4277 -0.6636
   35MOL    H6923257   7.328   8.109   0.985 -0.7708  0.5567 -0.3369
   35MOL    C7023258   6.641   7.690   0.972 -0.5891 -0.1937 -0.4774
   35MOL    C7123259   6.658   7.819   1.034  0.3299 -0.2993 -0.3660
   35MOL    C7223260   6.570   7.851   1.142  0.5287  0.3169 -0.0984
   35MOL    O7323261   6.584   7.975   1.207  0.2944  0.4936  0.2871
   35MOL    C7423262   6.483   7.760   1.195 -0.4269 -0.4671  0.9009
   35MOL    C7523263   6.459   7.647   1.127  0.1242  0.7387  0.5852
   35MOL    C7623264   6.538   7.605   1.019  0.0112  0.0491  0.0452
   35MOL    C7723265   6.533   7.470   0.955 -0.0638 -0.3884  1.1768
   35MOL    O7823266   6.630   7.396   0.945  0.3969  0.6746 -0.5263
   35MOL    C7923267   6.400   7.426   0.886 -0.5371  0.4580  0.1839
   35MOL    C8023268   6.301   7.523   0.853  0.1814  0.1489 -0.4171
   35MOL    C8123269   6.186   7.490   0.784  0.3496 -0.8501 -0.7084
   35MOL    C8223270   6.181   7.355   0.738 -0.2639  0.4668  0.0791
   35MOL    O8323271   6.080   7.321   0.646 -0.1189 -0.3597 -0.2653
   35MOL    C8423272   5.952   7.339   0.694  0.3962  0.6147 -0.1394
   35MOL    C8523273   5.901   7.251   0.794 -0.2606  0.0703 -0.4816
   35MOL    C8623274   5.771   7.270   0.845 -0.8026 -0.0393  0.8594
   35MOL    C8723275   5.689   7.378   0.793  0.3033 -0.2700  0.1472
   35MOL    C8823276   5.741   7.463   0.691  0.0981  0.6072  0.2698
   35MOL    C8923277   5.869   7.440   0.643 -0.0971 -0.2251 -0.5841
   35MOL    C9023278   6.274   7.255   0.772  0.5186 -0.3575 -0.1114
   35MOL    C9123279   6.388   7.290   0.843 -0.0358 -0.4424 -0.6955
   35MOL    H9223280   6.713   7.662   0.897  0.8788 -1.6284  1.3908
   35MOL    H9323281   6.739   7.886   1.013 -0.5407  0.8370 -0.1549
   35MOL    H9423282   6.419   7.776   1.280  0.7193 -0.1335  1.7187
   35MOL    H9523283   6.381   7.585   1.168 -0.7654  0.1790 -1.8505
   35MOL    H9623284   6.310   7.625   0.886  2.0462  0.4203 -1.7319
   35MOL    H9723285   6.109   7.560   0.755  1.6744 -0.0295 -2.3370
   35MOL    H9823286   5.972   7.181   0.833 -1.2911 -1.3829 -1.1490
   35MOL    H9923287   5.739   7.204   0.925 -1.5253 -0.3950  0.2906
   35MOL   H10023288   5.674   7.535   0.645  0.1893  0.7354  0.3371
   35MOL   H10123289   5.896   7.520   0.576 -1.6245  0.8531  0.0571
   35MOL   H10223290   6.252   7.155   0.737  1.2838 -0.3626 -0.5865
   35MOL   H10323291   6.472   7.224   0.859  0.0657 -0.3955 -1.0246
   35MOL   C10423292   5.349   7.115   0.728 -0.2516 -0.1663 -0.0817
   35MOL   C10523293   5.428   7.233   0.724  0.5213  0.1346 -0.1248
   35MOL   C10623294   5.483   7.288   0.846 -0.3236 -0.6811 -0.0607
   35MOL   O10723295   5.560   7.399   0.842  0.3614 -0.0160  0.5610
   35MOL   C10823296   5.455   7.220   0.966 -0.4134 -0.2016  0.0752
   35MOL   C10923297   5.402   7.093   0.962  0.3562 -0.3179 -0.1638
   35MOL   C11023298   5.342   7.038   0.847 -0.4158 -1.0653 -0.0263
   35MOL   C11123299   5.280   6.904   0.839 -0.7395 -0.1577  0.3751
   35MOL   O11223300   5.190   6.871   0.761  0.4903  0.0571 -0.2512
   35MOL   C11323301   5.350   6.797   0.908 -0.3717 -0.0697 -0.0871
   35MOL   C11423302   5.273   6.701   0.984  0.4389  0.3283 -0.4839
   35MOL   C11523303   5.340   6.590   1.046 -0.1714 -0.3906 -0.5274
   35MOL   C11623304   5.483   6.564   1.026 -0.5279  0.0716 -0.0655
   35MOL   O11723305   5.543   6.454   1.075 -0.1435  0.4057  0.0196
   35MOL   C11823306   5.568   6.456   1.211  0.4920  0.0343 -0.4611
   35MOL   C11923307   5.512   6.357   1.288  0.7965 -0.1203 -0.1063
   35MOL   C12023308   5.532   6.360   1.430 -0.2538  0.1885  0.7945
   35MOL   C12123309   5.614   6.463   1.492  0.0832  1.0717  0.0679
   35MOL   C12223310   5.673   6.556   1.402 -0.5260  0.3038  0.3684
   35MOL   C12323311   5.658   6.546   1.265 -0.4882 -0.1354 -0.6187
   35MOL   C12423312   5.551   6.659   0.941 -0.0659 -0.3591 -0.1344
   35MOL   C12523313   5.486   6.774   0.887  0.1964  0.4805  0.0012
   35MOL   H12623314   5.300   7.095   0.633  0.4858 -1.9035 -0.1127
   35MOL   H12723315   5.436   7.283   0.629  2.1728  0.5547  0.2265
   35MOL   H12823316   5.496   7.258   1.059 -1.0244  0.2196  0.1757
   35MOL   H12923317   5.396   7.043   1.058 -4.1538 -1.0026 -0.7169
   35MOL   H13023318   5.165   6.710   0.982  0.3772 -0.5743 -2.2584
   35MOL   H13123319   5.279   6.520   1.100 -0.9694  2.5724  2.6242
   35MOL   H13223320   5.449   6.282   1.245  0.9021 -0.7733  0.8745
   35MOL   H13323321   5.480   6.288   1.492  0.5988 -0.7860  0.3918
   35MOL   H13423322   5.741   6.630   1.442  0.2140 -0.2141  0.0765
   35MOL   H13523323   5.718   6.616   1.209  0.3164 -0.4919 -0.2110
   35MOL   H13623324   5.657   6.648   0.925 -0.1835 -1.7766 -0.0864
   35MOL   H13723325   5.543   6.843   0.825 -0.0017  0.1180 -0.5910
   35MOL   C13823326   5.365   6.686   1.757 -0.3686 -0.1446  0.2825
   35MOL   C13923327   5.434   6.582   1.686  0.3000 -0.4732 -0.6227
   35MOL   C14023328   5.572   6.560   1.703 -0.2649 -0.4935  0.1970
   35MOL   O14123329   5.639   6.464   1.626  0.1709 -0.0902 -0.1168
   35MOL   C14223330   5.642   6.641   1.794  0.0449  0.4575 -0.3518
   35MOL   C14323331   5.576   6.746   1.870  0.3669  0.0850  0.6564
   35MOL   C14423332   5.439   6.767   1.851 -0.0902 -0.1941 -0.1180
   35MOL   C14523333   5.375   6.866   1.952  0.0174 -0.0753 -0.4590
   35MOL   O14623334   5.425   6.896   2.060 -0.1452  0.6626  0.2225
   35MOL   C14723335   5.247   6.929   1.909 -0.3401  0.1268  0.7753
   35MOL   C14823336   5.163   6.969   2.009 -1.0351 -0.4300  0.1926
   35MOL   C14923337   5.038   7.036   1.984 -0.0981 -0.1330  0.1242
   35MOL   C15023338   5.025   7.086   1.854  0.8070 -0.1952  0.8653
   35MOL   O15123339   4.904   7.151   1.825  0.4789 -0.1252 -0.8260
   35MOL   C15223340   4.889   7.239   1.717  0.5339  0.0350 -0.2129
   35MOL   C15323341   4.938   7.373   1.719  0.7507 -0.2957  1.1254
   35MOL   C15423342   4.906   7.454   1.605 -0.0820  1.0055  0.1778
   35MOL   C15523343   4.827   7.408   1.492 -0.5238 -0.2730 -0.4051
   35MOL   C15623344   4.789   7.271   1.485 -0.0171  0.2853 -0.2971
   35MOL   C15723345   4.833   7.186   1.592 -0.2945 -0.1449  0.0564
   35MOL   C15823346   5.110   7.051   1.750 -0.2240 -0.1875 -0.2701
   35MOL   C15923347   5.227   6.970   1.776  0.0423  0.0330 -0.1104
   35MOL   H16023348   5.261   6.709   1.736  0.4383  3.0141 -0.4934
   35MOL   H16123349   5.379   6.513   1.623  2.3990  1.1632 -4.3881
   35MOL   H16223350   5.749   6.634   1.794  0.0920  1.1384  0.2165
   35MOL   H16323351   5.623   6.801   1.949  0.2641 -0.3366  1.0100
   35MOL   H16423352   5.186   6.947   2.112 -2.5291 -1.3036  0.3491
   35MOL   H16523353   4.965   7.060   2.059  0.2947 -1.5871  0.9905
   35MOL   H16623354   4.976   7.414   1.811  0.1688 -1.0389  1.7015
   35MOL   H16723355   4.935   7.558   1.609  2.6298  0.3776 -1.7579
   35MOL   H16823356   4.727   7.233   1.406  0.2993 -3.2539  1.0274
   35MOL   H16923357   4.816   7.079   1.592 -1.1188 -0.0216 -1.3574
   35MOL   H17023358   5.086   7.084   1.650 -2.5452 -0.1007  0.2891
   35MOL   H17123359   5.303   6.959   1.699 -1.1706 -0.7776 -1.2270
   35MOL   C17223360   4.888   7.453   1.053 -0.2065  0.5310 -0.5482
   35MOL   C17323361   4.819   7.443   1.170 -0.2472  0.1117  0.5389
   35MOL   C17423362   4.857   7.509   1.287  0.1896 -0.0063  0.5870
   35MOL   O17523363   4.779   7.490   1.397  0.7295  0.4704 -0.0439
   35MOL   C17623364   4.969   7.597   1.277  0.2717 -0.6831 -1.0036
   35MOL   C17723365   5.042   7.604   1.155 -0.2999 -0.0081 -0.3820
   35MOL   C17823366   4.999   7.542   1.036 -0.0976  0.0559  0.2901
   35MOL   C17923367   5.071   7.561   0.907  0.2212  0.4402  0.6005
   35MOL   O18023368   5.193   7.561   0.909  0.0449 -0.0755 -0.2426
   35MOL   C18123369   4.995   7.587   0.774  0.2592  0.5765  0.2884
   35MOL   C18223370   5.059   7.559   0.651 -0.0907  0.5113  0.1121
   35MOL   C18323371   4.988   7.559   0.525 -0.3406 -0.2684 -0.3608
   35MOL   C18423372   4.858   7.616   0.524 -0.7282 -0.4435  0.0957
   35MOL   O18523373   4.780   7.621   0.412 -0.3000  1.3358 -0.5711
   35MOL   C18623374   4.825   7.597   0.288 -0.4474  1.1126  0.7077
   35MOL   C18723375   4.872   7.466   0.248  0.6566 -0.3097 -0.2537
   35MOL   C18823376   4.918   7.450   0.111 -0.5082  0.0619 -0.1963
   35MOL   C18923377   4.916   7.555   0.022  0.1269  0.4789  0.1141
   35MOL   C19023378   4.863   7.682   0.058 -0.3886 -0.1973  0.2427
   35MOL   C19123379   4.829   7.706   0.192  0.0428 -0.1357 -0.0234
   35MOL   C19223380   4.793   7.655   0.647  0.4035 -1.0061  0.2054
   35MOL   C19323381   4.858   7.636   0.773  1.1411 -0.3671  0.7302
   35MOL   H19423382   4.844   7.399   0.970  0.4769 -0.0235 -0.5511
   35MOL   H19523383   4.726   7.388   1.174  0.5408 -1.5037 -1.9374
   35MOL   H19623384   5.000   7.660   1.359 -0.9082 -0.0776 -1.0113
   35MOL   H19723385   5.105   7.690   1.139  0.2914 -0.5326 -0.8544
   35MOL   H19823386   5.165   7.537   0.647 -0.1029  0.2791  1.0804
   35MOL   H19923387   5.033   7.521   0.434 -2.9303 -2.4379 -0.7999
   35MOL   H20023388   4.873   7.383   0.318 -0.3696  0.8991  1.2226
   35MOL   H20123389   4.960   7.352   0.094  1.0243  0.3874  1.5970
   35MOL   H20223390   4.859   7.769   8.307 -0.0567  0.5040  1.1579
   35MOL   H20323391   4.797   7.802   0.230 -0.4730 -0.3572  0.0927
   35MOL   H20423392   4.694   7.698   0.650  0.1302 -1.5439 -0.9462
   35MOL   H20523393   4.795   7.653   0.859 -2.1948  1.3868 -1.9496
   35MOL   C20623394   4.948   7.820   7.977 -0.3800 -0.2271 -0.6615
   35MOL   C20723395   4.984   7.725   8.075  0.0388  0.0562 -0.0671
   35MOL   C20823396   4.906   7.610   8.102  0.1017 -0.6163 -0.2261
   35MOL   O20923397   4.940   7.526   8.198 -0.3186  0.1022 -0.0569
   35MOL   C21023398   4.784   7.602   8.036  0.3925  0.5561 -0.6590
   35MOL   C21123399   4.744   7.696   7.940  0.5502  0.2723  0.5097
   35MOL   C21223400   4.819   7.808   7.914  0.4381 -0.0252 -0.1574
   35MOL   C21323401   4.787   7.910   7.813 -0.0864 -0.9675 -0.5029
   35MOL   O21423402   4.856   8.013   7.798 -0.2897 -0.2524 -0.2656
   35MOL   C21523403   4.677   7.887   7.712  0.7548 -0.5554  0.0217
   35MOL   C21623404   4.683   7.785   7.615 -0.1550 -0.3204 -1.0324
   35MOL   C21723405   4.579   7.765   7.523  0.3091  0.8578  0.4996
   35MOL   C21823406   4.471   7.847   7.530  0.0937  0.6175 -0.1050
   35MOL   O21923407   4.365   7.828   7.450  0.2020  0.2664 -0.1383
   35MOL   C22023408   4.258   7.752   7.489 -0.6524  0.1901  0.1699
   35MOL   C22123409   4.167   7.716   7.385 -0.5173 -0.4412  0.1625
   35MOL   C22223410   4.051   7.642   7.420 -0.0284 -0.5150  0.6977
   35MOL   C22323411   4.035   7.593   7.551 -0.1620  0.3557 -0.0859
   35MOL   C22423412   4.132   7.624   7.650  1.1455 -0.6323 -0.2102
   35MOL   C22523413   4.244   7.704   7.621 -0.2898 -0.2977  0.2445
   35MOL   C22623414   4.467   7.958   7.619  0.0019  0.6330  0.1957
   35MOL   C22723415   4.572   7.978   7.704 -0.6738  1.1993 -0.6654
   35MOL   H22823416   5.014   7.900   7.947 -0.5889  0.2098  0.0153
   35MOL   H22923417   5.073   7.734   8.135  0.5746 -1.3094 -0.6225
   35MOL   H23023418   4.731   7.512   8.063  3.3979 -0.5062  1.9816
   35MOL   H23123419   4.645   7.688   7.898  0.4578 -0.0998  0.7968
   35MOL   H23223420   4.766   7.717   7.613  0.9164  0.9734 -0.8263
   35MOL   H23323421   4.593   7.693   7.443  0.9987  1.0386  0.4539
   35MOL   H23423422   4.177   7.752   7.284 -1.5611  0.2342  0.2943
   35MOL   H23523423   3.981   7.614   7.343  0.3520  1.3716 -0.3537
   35MOL   H23623424   4.107   7.592   7.750 -0.4885 -2.3075 -1.1360
   35MOL   H23723425   4.306   7.727   7.706 -0.0738 -2.7361  0.7773
   35MOL   H23823426   4.376   8.016   7.619  1.3850  2.8749  1.4754
   35MOL   H23923427   4.589   8.060   7.773  0.3950 -1.0237  1.7696
   35MOL   C24023428   4.064   7.171   7.588 -0.1258 -0.1243  0.6230
   35MOL   C24123429   4.033   7.302   7.624  0.0233  0.0054  0.0013
   35MOL   C24223430   3.961   7.383   7.543  0.0097  0.0399 -0.1306
   35MOL   O24323431   3.935   7.508   7.585 -0.3446 -0.8369  0.1240
   35MOL   C24423432   3.911   7.333   7.420  0.3144 -0.1551  0.1366
   35MOL   C24523433   3.950   7.206   7.375 -0.4487  0.0828  0.3874
   35MOL   C24623434   4.027   7.123   7.459 -0.0288 -0.0388  0.6376
   35MOL   C24723435   4.073   6.990   7.412 -0.0164 -0.3563  0.5294
   35MOL   O24823436   4.030   6.939   7.305 -0.0785  0.6341  0.6006
   35MOL   C24923437   4.169   6.911   7.495 -0.8184  0.1220  0.2194
   35MOL   C25023438   4.124   6.863   7.620  0.3170 -0.4984  0.4104
   35MOL   C25123439   4.220   6.801   7.704 -0.5270 -0.1333  0.3841
   35MOL   C25223440   4.356   6.785   7.666  0.1367  0.4246  0.1103
   35MOL   O25323441   4.455   6.741   7.757  0.1959  0.3472  0.2223
   35MOL   C25423442   4.465   6.803   7.875 -0.4161  0.2780 -0.6586
   35MOL   C25523443   4.414   6.741   7.991  0.3425 -0.1269 -0.3231
   35MOL   C25623444   4.414   6.798   8.116 -0.4878  0.0381 -0.1751
   35MOL   C25723445   4.476   6.925   8.134  0.2065 -0.0248  0.2167
   35MOL   C25823446   4.519   6.996   8.015 -0.0517 -0.9402 -0.2409
   35MOL   C25923447   4.513   6.937   7.888  0.3932 -0.3559  0.9616
   35MOL   C26023448   4.398   6.840   7.546  0.3656 -0.7383 -0.1139
   35MOL   C26123449   4.303   6.901   7.457  0.1133  0.2834  0.1518
   35MOL   H26223450   4.119   7.110   7.658  1.5525  0.5837 -0.0425
   35MOL   H26323451   4.079   7.338   7.715 -1.7686 -0.3719  1.0683
   35MOL   H26423452   3.844   7.386   7.354 -1.5408  0.3595  2.3649
   35MOL   H26523453   3.915   7.170   7.279  0.3328  2.2102 -0.7335
   35MOL   H26623454   4.022   6.865   7.655  0.2052 -0.1690  0.0680
   35MOL   H26723455   4.179   6.777   7.801 -0.9677  0.2968  0.3109
   35MOL   H26823456   4.383   6.638   7.978  3.1592 -1.0217 -0.0813
   35MOL   H26923457   4.372   6.745   8.201 -1.0871 -0.6486 -0.8954
   35MOL   H27023458   4.546   7.101   8.019 -2.0674 -0.4078  0.3494
   35MOL   H27123459   4.531   6.997   7.800  2.3599  0.5917  1.9712
   35MOL   H27223460   4.498   6.843   7.506  1.0301  0.2374  1.5627
   35MOL   H27323461   4.345   6.946   7.369 -1.0978  0.5660 -0.3017
   35MOL   C27423462   4.162   7.090   0.080  0.0976 -0.4972 -0.1678
   35MOL   C27523463   4.271   7.086   8.303 -0.6284  0.6404  0.2108
   35MOL   C27623464   4.386   7.005   0.023  0.2327  0.2744 -0.0881
   35MOL   O27723465   4.491   6.989   8.251 -0.8245 -0.2673  0.4092
   35MOL   C27823466   4.378   6.932   0.141  0.1493 -0.1205  0.1439
   35MOL   C27923467   4.276   6.943   0.232 -0.0543  0.2372 -0.3302
   35MOL   C28023468   4.170   7.028   0.204 -0.2372 -0.0582 -0.4968
   35MOL   C28123469   4.057   7.039   0.303 -0.4116  0.5774 -0.3341
   35MOL   O28223470   4.037   6.944   0.373  0.0103 -0.5569  0.0483
   35MOL   C28323471   3.978   7.167   0.312 -0.2248 -0.4084 -0.1617
   35MOL   C28423472   4.043   7.293   0.294  0.6855 -0.3523 -0.4866
   35MOL   C28523473   3.973   7.414   0.308  0.0367  0.8472 -0.7631
   35MOL   C28623474   3.835   7.410   0.332  0.2585 -0.0889  0.1912
   35MOL   O28723475   3.763   7.526   0.343  0.3361 -0.2916 -0.3911
   35MOL   C28823476   3.687   7.551   0.449 -0.4744 -0.0793  0.2658
   35MOL   C28923477   3.560   7.618   0.442 -0.0875  0.5084  0.2946
   35MOL   C29023478   3.480   7.631   0.552 -0.0293 -0.0915 -0.6858
   35MOL   C29123479   3.520   7.588   0.679  0.0203  0.7104 -0.9007
   35MOL   C29223480   3.646   7.528   0.695 -0.0182  0.8100 -0.1244
   35MOL   C29323481   3.726   7.513   0.581 -0.1265 -0.7463  0.3460
   35MOL   C29423482   3.771   7.285   0.353 -0.6610 -0.2272 -0.4747
   35MOL   C29523483   3.839   7.166   0.346  0.2753 -0.0365 -0.0301
   35MOL   H29623484   4.076   7.149   0.050  0.5778  1.5761  2.3578
   35MOL   H29723485   4.264   7.135   8.207 -1.4551  0.2156  0.0506
   35MOL   H29823486   4.466   6.876   0.172 -1.0761 -1.3195  1.5481
   35MOL   H29923487   4.290   6.887   0.323  0.0675  2.4878  1.0807
   35MOL   H30023488   4.148   7.310   0.276  0.9115 -2.7401 -1.5812
   35MOL   H30123489   4.034   7.502   0.296  1.7802 -0.0051  1.5325
   35MOL   H30223490   3.525   7.662   0.349  5.7067  3.4304 -0.7548
   35MOL   H30323491   3.384   7.681   0.557 -0.4042 -0.7387 -1.2775
   35MOL   H30423492   3.682   7.502   0.794 -0.3756  3.3368  0.7084
   35MOL   H30523493   3.815   7.452   0.592  0.6487  0.1509 -0.8378
   35MOL   H30623494   3.666   7.276   0.381 -0.4884  0.3220  0.3851
   35MOL   H30723495   3.806   7.067   0.374 -0.4222  0.6709  1.7198
   35MOL   C30823496   3.409   7.420   1.111  0.1568 -0.4601  0.1739
   35MOL   C30923497   3.436   7.518   1.010  0.9141  0.4648 -0.1307
   35MOL   C31023498   3.428   7.488   0.871  0.7831 -0.2808 -0.3925
   35MOL   O31123499   3.435   7.595   0.781 -0.0620 -0.1007  0.8723
   35MOL   C31223500   3.405   7.358   0.833  0.7172 -0.0178  0.5810
   35MOL   C31323501   3.384   7.258   0.928  0.2680 -0.0206  0.4042
   35MOL   C31423502   3.386   7.289   1.066  0.2273  0.5563 -0.3062
   35MOL   C31523503   3.362   7.178   1.165  0.3447  0.0450 -1.1633
   35MOL   O31623504   3.291   7.203   1.264 -0.2857  0.4543  0.0465
   35MOL   C31723505   3.417   7.046   1.135 -0.0824  0.4970 -0.6775
   35MOL   C31823506   3.343   6.927   1.171  0.0279 -1.4210 -0.5019
   35MOL   C31923507   3.393   6.804   1.140 -0.4076  0.3079  0.1753
   35MOL   C32023508   3.516   6.787   1.079  0.1408  0.1651  0.7298
   35MOL   O32123509   3.552   6.657   1.062 -0.4486 -0.6961  0.4044
   35MOL   C32223510   3.569   6.611   0.931  0.3834  0.4325 -0.4010
   35MOL   C32323511   3.476   6.530   0.866 -0.9543 -0.6245 -0.1859
   35MOL   C32423512   3.511   6.476   0.742 -0.6426 -0.4234  0.5991
   35MOL   C32523513   3.640   6.498   0.686  0.1822 -0.3933 -0.4033
   35MOL   C32623514   3.741   6.572   0.763  0.3076  0.2339  1.0005
   35MOL   C32723515   3.706   6.621   0.888 -0.0727 -0.7844  0.6373
   35MOL   C32823516   3.596   6.899   1.047 -0.1687  0.1656  0.1656
   35MOL   C32923517   3.544   7.028   1.076  0.5104  0.0248  0.5630
   35MOL   H33023518   3.410   7.448   1.215  1.9216 -0.5187  0.1985
   35MOL   H33123519   3.467   7.617   1.042  2.7820  0.7960 -2.7766
   35MOL   H33223520   3.409   7.340   0.727  0.6151  1.2104  0.3642
   35MOL   H33323521   3.364   7.157   0.897 -1.8347  0.9214 -1.4529
   35MOL   H33423522   3.249   6.944   1.221 -0.0876  0.6111 -1.3576
   35MOL   H33523523   3.338   6.718   1.174  1.2278  0.1563  2.5402
   35MOL   H33623524   3.373   6.519   0.898 -1.3180  0.2577 -1.0224
   35MOL   H33723525   3.445   6.428   0.671  0.4209  1.1017 -1.4844
   35MOL   H33823526   3.838   6.589   0.718 -0.5857  1.6533 -0.4335
   35MOL   H33923527   3.777   6.658   0.961  1.0569  0.0078 -0.8517
   35MOL   H34023528   3.699   6.882   1.017  0.1716 -0.9391  1.8735
   35MOL   H34123529   3.608   7.112   1.053  0.2786  0.6372  2.1392
   35MOL   C34223530   3.813   6.693   0.328  0.1087  0.5314  0.0313
   35MOL   C34323531   3.807   6.600   0.430  0.0013 -0.3688 -0.3148
   35MOL   C34423532   3.680   6.549   0.464 -0.2622 -0.0287  0.2059
   35MOL   O34523533   3.665   6.449   0.560  0.5969 -0.1472 -0.0583
   35MOL   C34623534   3.565   6.601   0.403  0.1872 -0.1291  0.2819
   35MOL   C34723535   3.578   6.695   0.302  0.4324  0.1576  0.0893
   35MOL   C34823536   3.701   6.745   0.259  0.2172 -1.1932 -0.6990
   35MOL   C34923537   3.708   6.860   0.159  0.9247  0.5001  0.9081
   35MOL   O35023538   3.815   6.915   0.123 -0.1736  0.6285  0.2186
   35MOL   C35123539   3.583   6.888   0.082  0.5588 -0.2958  0.2561
   35MOL   C35223540   3.502   7.004   0.104 -0.6386  0.4360  0.0102
   35MOL   C35323541   3.390   7.024   0.027  0.4651 -0.5538  1.0854
   35MOL   C35423542   3.342   6.928   8.247  0.2011 -0.1121 -0.6335
   35MOL   O35523543   3.224   6.933   8.178 -0.1733  0.3482  0.0264
   35MOL   C35623544   3.215   7.002   8.066  0.1749 -0.0339  0.1493
   35MOL   C35723545   3.235   7.143   8.071 -0.6649  0.1958 -0.1208
   35MOL   C35823546   3.226   7.225   7.956 -0.5239 -0.0555  0.6274
   35MOL   C35923547   3.192   7.159   7.836  0.5410  0.5874 -0.4071
   35MOL   C36023548   3.163   7.020   7.830 -0.2188 -0.0133 -0.8061
   35MOL   C36123549   3.178   6.941   7.946 -0.3477 -0.0511  0.0837
   35MOL   C36223550   3.412   6.809   8.232  0.0776 -0.2762 -0.0334
   35MOL   C36323551   3.533   6.788   8.306  0.1973  0.0074  0.2986
   35MOL   H36423552   3.914   6.725   0.308  0.4106 -1.7623 -2.4277
   35MOL   H36523553   3.898   6.563   0.474  0.4342  3.3217  2.0740
   35MOL   H36623554   3.465   6.567   0.426 -0.3320  1.6321  0.7028
   35MOL   H36723555   3.486   6.724   0.254  0.4367  0.0033 -0.0123
   35MOL   H36823556   3.526   7.079   0.178 -0.8989  3.0879 -2.4635
   35MOL   H36923557   3.330   7.114   0.035 -0.3861 -0.8861 -1.3528
   35MOL   H37023558   3.266   7.198   8.159 -0.0287  0.3379 -0.4291
   35MOL   H37123559   3.239   7.332   7.965 -0.3676 -0.1630  1.7335
   35MOL   H37223560   3.141   6.978   7.733  1.9102  0.0837 -1.3570
   35MOL   H37323561   3.150   6.837   7.938  1.0751 -0.3737 -0.7691
   35MOL   H37423562   3.373   6.736   8.162 -3.2078 -0.7535  2.1653
   35MOL   H37523563   3.577   6.691   8.291  1.0479  0.3848  0.3227
   35MOL   C37623564   2.880   7.461   7.775  0.1373  0.4927  0.2240
   35MOL   C37723565   2.959   7.347   7.784  0.2546 -0.2927 -0.0096
   35MOL   C37823566   3.081   7.337   7.716 -0.0168 -0.3512  0.3348
   35MOL   O37923567   3.163   7.227   7.716 -0.0814 -0.4379  0.1580
   35MOL   C38023568   3.120   7.446   7.633  0.3339 -0.1062 -0.6581
   35MOL   C38123569   3.037   7.561   7.626  0.5543 -0.3695 -0.0252
   35MOL   C38223570   2.915   7.568   7.688  0.0618  0.5241  0.0721
   35MOL   C38323571   2.819   7.677   7.659 -0.2994 -0.2881  0.6611
   35MOL   O38423572   2.807   7.733   7.548  0.0246 -0.5720 -0.3567
   35MOL   C38523573   2.722   7.710   7.764  0.0027  0.0733  0.3782
   35MOL   C38623574   2.760   7.737   7.899  0.0459 -0.0066  0.4925
   35MOL   C38723575   2.663   7.779   7.993  0.7776 -0.0269  0.0437
   35MOL   C38823576   2.532   7.791   7.953  0.0276 -0.1638  0.0704
   35MOL   O38923577   2.445   7.842   8.046 -0.1364 -0.0365  0.0425
   35MOL   C39023578   2.388   7.964   8.028  0.0676  0.0105 -0.6426
   35MOL   C39123579   2.276   7.980   7.945  0.9040 -0.9575 -0.0640
   35MOL   C39223580   2.204   8.104   7.934  0.7382  0.5030 -0.5591
   35MOL   C39323581   2.256   8.221   7.999 -0.2030  0.9079 -0.9483
   35MOL   C39423582   2.374   8.206   8.078  0.5599  0.2405 -0.7723
   35MOL   C39523583   2.437   8.078   8.097 -0.2528 -0.0689  0.6200
   35MOL   C39623584   2.495   7.780   7.818 -0.0202 -0.2177  0.1778
   35MOL   C39723585   2.589   7.731   7.728 -0.1640 -0.3009 -0.1810
   35MOL   H39823586   2.786   7.470   7.827 -0.3312  1.6104 -0.7777
   35MOL   H39923587   2.926   7.272   7.854  0.0621  0.4512  0.7009
   35MOL   H40023588   3.211   7.438   7.575  2.0205 -2.0942  2.1332
   35MOL   H40123589   3.072   7.646   7.568 -0.8464 -1.5955 -2.7695
   35MOL   H40223590   2.864   7.736   7.925  0.7507  0.2993 -2.1603
   35MOL   H40323591   2.672   7.801   8.099  1.2204  0.2105 -0.0456
   35MOL   H40423592   2.225   7.894   7.903  0.8345 -1.9588  1.9892
   35MOL   H40523593   2.120   8.118   7.868 -0.7624  2.2382  1.6608
   35MOL   H40623594   2.415   8.292   8.129  0.6420 -0.5321  0.4916
   35MOL   H40723595   2.525   8.070   8.158  0.2997  0.6804 -0.0668
   35MOL   H40823596   2.394   7.794   7.783 -0.1977 -0.4816  0.5800
   35MOL   H40923597   2.569   7.735   7.622 -2.5531 -0.9646  0.1996
   35MOL   C41023598   1.845   0.034   8.069  0.0993  0.2329  0.3431
   35MOL   C41123599   1.984   0.021   8.084  0.3253  0.1955  0.2264
   35MOL   C41223600   2.063   0.029   7.970  0.0011 -0.2799  0.6312
   35MOL   O41323601   2.195   0.030   7.983  0.5107  0.5264  0.1857
   35MOL   C41423602   2.006   0.060   7.850 -0.0047 -0.5466  0.4437
   35MOL   C41523603   1.870   0.075   7.826  0.5553 -0.3020 -0.6822
   35MOL   C41623604   1.785   0.059   7.940 -0.1816 -0.7372 -0.1874
   35MOL   C41723605   1.633   0.064   7.922  0.4196  0.4186  0.7411
   35MOL   O41823606   1.555   8.308   7.986 -0.1210  0.1628  0.2144
   35MOL   C41923607   1.580   0.141   7.799  0.3923  0.2417  1.0325
   35MOL   C42023608   1.500   0.076   7.700  0.2032  0.1250 -0.0674
   35MOL   C42123609   1.481   0.137   7.576  1.0400  0.7413  0.7212
   35MOL   C42223610   1.537   0.258   7.548 -0.3145 -0.0471  0.1670
   35MOL   O42323611   1.523   0.309   7.423  0.2355 -0.0367  0.1350
   35MOL   C42423612   1.605   0.260   7.320  0.6228  0.1822  0.1609
   35MOL   C42523613   1.561   0.259   7.187 -0.1559  0.7278  0.8058
   35MOL   C42623614   1.639   0.199   7.089  1.0298  0.5269  0.2231
   35MOL   C42723615   1.769   0.143   7.116  0.5056  0.0921  0.2139
   35MOL   C42823616   1.807   0.140   7.249 -0.6410 -0.4039  0.1713
   35MOL   C42923617   1.729   0.198   7.346  0.8938  0.3815 -0.0021
   35MOL   C43023618   1.605   0.323   7.649 -0.1213  0.9542 -0.2686
   35MOL   C43123619   1.630   0.265   7.773 -0.1013 -0.2627  0.0012
   35MOL   H43223620   1.779   0.031   8.154  1.1754 -0.0403  1.1766
   35MOL   H43323621   2.034   0.021   8.180  0.9679 -3.0862 -0.0438
   35MOL   H43423622   2.068   0.059   7.762 -1.9128  0.6284 -0.9651
   35MOL   H43523623   1.829   0.089   7.728  2.4021 -2.0615 -1.7366
   35MOL   H43623624   1.469   8.285   7.712  1.3282 -0.4361 -1.8728
   35MOL   H43723625   1.423   0.090   7.497  0.0646  1.0405  1.2485
   35MOL   H43823626   1.466   0.307   7.168 -0.6408 -0.4394  0.1921
   35MOL   H43923627   1.601   0.206   6.988 -3.4645 -3.2520  1.4981
   35MOL   H44023628   1.901   0.098   7.280  0.2332 -0.5344 -2.5217
   35MOL   H44123629   1.765   0.192   7.447 -0.9392 -2.6782  0.5304
   35MOL   H44223630   1.644   0.421   7.626  0.1492  0.6633 -1.0680
   35MOL   H44323631   1.693   0.321   7.840  1.2423  0.6776 -1.9830
   35MOL   C44423632   1.645   8.088   6.937 -0.3803  0.3375 -0.5555
   35MOL   C44523633   1.695   8.199   7.012  0.6229  0.0917 -0.2522
   35MOL   C44623634   1.782   8.296   6.951 -0.3351  0.1374 -0.0151
   35MOL   O44723635   1.846   0.086   7.017 -0.4468 -0.0667 -0.5555
   35MOL   C44823636   1.822   8.276   6.818 -0.4606 -0.0893  0.3515
   35MOL   C44923637   1.775   8.160   6.747  0.0527  0.1672 -0.4332
   35MOL   C45023638   1.684   8.068   6.805 -0.4961  0.3838  0.1162
   35MOL   C45123639   1.626   7.948   6.728 -0.1201 -0.1305 -0.3081
   35MOL   O45223640   1.573   7.848   6.782 -0.1239 -0.8274  0.4746
   35MOL   C45323641   1.651   7.941   6.588 -0.6240 -0.2550  0.8777
   35MOL   C45423642   1.625   8.059   6.515  0.0118 -0.5292  0.6471
   35MOL   C45523643   1.656   8.057   6.376 -0.6174 -0.2136 -0.5654
   35MOL   C45623644   1.697   7.937   6.319  0.2999  0.1172  1.0313
   35MOL   O45723645   1.719   7.936   6.183  0.2301 -0.3020  0.0594
   35MOL   C45823646   1.652   8.025   6.101 -0.8733  0.9192 -0.1017
   35MOL   C45923647   1.719   8.111   6.011 -0.0670 -0.3183  0.3346
   35MOL   C46023648   1.642   8.185   5.923 -0.0551 -0.6786  0.0835
   35MOL   C46123649   1.501   8.194   5.944 -0.1080 -0.4968  0.5235
   35MOL   C46223650   1.433   8.111   6.034 -0.1765  0.3670  0.5026
   35MOL   C46323651   1.509   8.020   6.112 -0.0205  0.2236  0.5019
   35MOL   C46423652   1.717   7.820   6.388  0.2177  0.8421  0.0054
   35MOL   C46523653   1.696   7.826   6.526  0.4488 -0.5947 -0.2794
   35MOL   H46623654   1.578   8.024   6.994  1.1632  0.3744  1.3578
   35MOL   H46723655   1.654   8.207   7.112 -1.6432 -3.0241 -0.8481
   35MOL   H46823656   1.902   0.026   6.780 -0.1325  0.1635  1.4238
   35MOL   H46923657   1.818   8.132   6.652  0.7654 -0.3884  0.0516
   35MOL   H47023658   1.580   8.150   6.552  0.4409 -0.0849  0.0837
   35MOL   H47123659   1.628   8.142   6.315 -0.1159  1.4161  1.4166
   35MOL   H47223660   1.825   8.100   5.996  0.0721  1.4554 -0.1046
   35MOL   H47323661   1.690   8.244   5.846 -1.6502 -1.4657 -1.5666
   35MOL   H47423662   1.325   8.108   6.036 -0.1491 -0.2194  1.4946
   35MOL   H47523663   1.464   7.948   6.179  1.1323 -0.1442  0.8987
   35MOL   H47623664   1.750   7.730   6.338  0.3633 -0.3824  2.2601
   35MOL   H47723665   1.708   7.734   6.581  2.7451 -0.5013 -0.5631
   35MOL   C47823666   1.195   8.019   5.683  0.9143  0.2060 -0.4334
   35MOL   C47923667   1.233   8.123   5.772 -0.3092  0.1976  0.4614
   35MOL   C48023668   1.368   8.180   5.756  0.8245 -0.3200 -0.2124
   35MOL   O48123669   1.426   8.261   5.847 -0.3115 -0.1269 -0.2913
   35MOL   C48223670   1.441   8.139   5.646 -0.4783  0.4803  0.3631
   35MOL   C48323671   1.397   8.043   5.558  0.1514 -0.3926  0.0667
   35MOL   C48423672   1.271   7.976   5.578  0.1076 -0.2784  0.7393
   35MOL   C48523673   1.226   7.864   5.488 -0.2725  0.4764 -0.2963
   35MOL   O48623674   1.201   7.753   5.535 -0.2008 -0.2940  0.4292
   35MOL   C48723675   1.231   7.887   5.344 -0.4239  1.0611 -0.4299
   35MOL   C48823676   1.243   7.777   5.254  0.1205 -0.1006  0.5423
   35MOL   C48923677   1.242   7.802   5.116  0.1874  0.6500  0.1532
   35MOL   C49023678   1.228   7.931   5.068  0.4373  0.4837 -0.4370
   35MOL   O49123679   1.243   7.950   4.933  0.7163  0.4501 -0.1949
   35MOL   C49223680   1.132   8.009   4.879 -0.1332 -0.2815  0.1388
   35MOL   C49323681   1.129   8.146   4.849 -0.0950  0.3498  0.5589
   35MOL   C49423682   1.007   8.210   4.805  0.3853 -0.3778  0.1208
   35MOL   C49523683   0.895   8.126   4.772 -0.8469  1.0165 -0.1951
   35MOL   C49623684   0.899   7.991   4.806  0.4833 -0.2730 -0.3949
   35MOL   C49723685   1.015   7.931   4.857  0.1294  0.5623 -0.4132
   35MOL   C49823686   1.213   8.040   5.158  0.1555  1.1037 -0.3216
   35MOL   C49923687   1.214   8.019   5.300 -0.1129 -0.2602 -0.1908
   35MOL   H50023688   1.097   7.980   5.707  0.5640  0.1884 -1.8493
   35MOL   H50123689   1.178   8.165   5.855 -0.2696 -0.7958  0.9934
   35MOL   H50223690   1.540   8.177   5.623 -0.0678 -1.3402 -0.9522
   35MOL   H50323691   1.461   8.018   5.475 -0.4848 -1.0266 -0.2372
   35MOL   H50423692   1.256   7.675   5.288  0.8703 -1.6598 -4.0274
   35MOL   H50523693   1.267   7.728   5.042 -0.6771  0.9727 -0.4673
   35MOL   H50623694   1.214   8.211   4.860  2.5620 -2.8433 -0.4395
   35MOL   H50723695   1.016   0.001   4.777 -0.1705 -0.5902 -0.8635
   35MOL   H50823696   0.820   7.922   4.778  0.0970  0.4290 -1.0466
   35MOL   H50923697   1.028   7.824   4.868 -1.5595  0.4621  0.7891
   35MOL   H51023698   1.228   8.140   5.118  4.3311 -0.3581 -2.6964
   35MOL   H51123699   1.214   8.102   5.368 -2.1640  1.6482 -2.4374
   35MOL   C51223700   0.776   0.194   4.544  0.1936  0.8627 -0.0841
   35MOL   C51323701   0.749   0.085   4.629 -0.0242  0.0180  0.4940
   35MOL   C51423702   0.815   8.278   4.611 -0.7303 -0.0905 -0.3501
   35MOL   O51523703   0.788   8.175   4.699  0.2936  0.0305 -0.5109
   35MOL   C51623704   0.917   8.265   4.513  0.4060 -0.6585 -0.8557
   35MOL   C51723705   0.948   0.067   4.439 -0.0393  0.4335 -0.2506
   35MOL   C51823706   0.880   0.188   4.454  0.1905  0.2392 -0.2226
   35MOL   C51923707   0.913   0.296   4.361 -0.5419  0.1438 -0.5090
   35MOL   O52023708   0.994   0.388   4.389 -0.2350  0.2144 -0.3888
   35MOL   C52123709   0.846   0.281   4.231 -0.4727  0.3758  0.0057
   35MOL   C52223710   0.888   0.360   4.122 -0.5238  0.0175 -0.3748
   35MOL   C52323711   0.810   0.366   4.002  1.1514  0.7384  0.5941
   35MOL   C52423712   0.692   0.291   3.984 -0.8858  0.1716 -0.1082
   35MOL   O52523713   0.626   0.295   3.866 -0.0398 -0.1267  0.2559
   35MOL   C52623714   0.633   0.184   3.797 -0.1594  1.1019  0.4904
   35MOL   C52723715   0.540   0.077   3.814 -0.9499 -0.1387  0.3211
   35MOL   C52823716   0.555   8.273   3.741  0.6685  0.1416 -0.3424
   35MOL   C52923717   0.653   8.265   3.641 -0.1044 -0.2053  0.4230
   35MOL   C53023718   0.746   0.057   3.620 -0.0411 -0.7607 -0.3701
   35MOL   C53123719   0.736   0.171   3.700  0.0738 -0.2186  0.4938
   35MOL   C53223720   0.642   0.219   4.096 -0.2470  0.0505 -0.4599
   35MOL   C53323721   0.722   0.216   4.217 -0.5337  0.7129  0.4074
   35MOL   H53423722   0.708   0.278   4.534  1.5101  1.9565 -0.0114
   35MOL   H53523723   0.677   0.096   4.710  1.0010 -1.2982  1.6027
   35MOL   H53623724   0.966   8.171   4.489  0.2691 -0.6986 -0.9799
   35MOL   H53723725   1.012   0.046   4.355  2.9099 -0.2803  2.0584
   35MOL   H53823726   0.976   0.423   4.127  0.8401 -1.8293 -0.5241
   35MOL   H53923727   0.848   0.436   3.928  0.7396  0.7076  0.3526
   35MOL   H54023728   0.467   0.088   3.892 -0.3335  0.2275  0.8511
   35MOL   H54123729   0.495   8.184   3.753  2.0531 -0.9643 -1.4062
   35MOL   H54223730   0.801   0.041   3.529  1.2815  0.2885  0.2309
   35MOL   H54323731   0.821   0.239   3.699 -1.4794  1.7502  0.0401
   35MOL   H54423732   0.548   0.166   4.089 -0.0098 -0.4599  0.1840
   35MOL   H54523733   0.676   0.168   4.303 -0.5021  0.4792  0.2940
   35MOL   C54623734   0.622   7.819   3.722  0.5882  0.3684 -0.5461
   35MOL   C54723735   0.609   7.916   3.618  0.1209  0.8664 -0.3448
   35MOL   C54823736   0.692   8.029   3.626 -0.1641  0.0666 -0.5642
   35MOL   O54923737   0.664   8.151   3.561 -0.6787  0.2144  0.1561
   35MOL   C55023738   0.804   8.031   3.716  0.2180 -0.0355  0.5438
   35MOL   C55123739   0.821   7.933   3.809 -0.4512  0.1711 -0.2208
   35MOL   C55223740   0.723   7.829   3.820  0.5861 -1.3291 -0.2677
   35MOL   C55323741   0.734   7.740   3.940 -0.2715  0.0023 -0.0654
   35MOL   O55423742   0.836   7.748   4.012 -0.1077 -0.0253  0.1654
   35MOL   C55523743   0.621   7.646   3.980 -0.0438 -0.2937  0.0175
   35MOL   C55623744   0.549   7.669   4.098 -1.0611  0.0589 -0.4577
   35MOL   C55723745   0.447   7.584   4.140 -0.0916  0.4373 -0.2620
   35MOL   C55823746   0.407   7.480   4.054  0.5306  0.0902 -0.0243
   35MOL   O55923747   0.305   7.394   4.078 -0.4162 -0.4503  0.3581
   35MOL   C56023748   0.179   7.435   4.059  0.4439  0.2947 -0.0697
   35MOL   C56123749   0.114   7.514   4.154  0.3437 -0.6127  0.0646
   35MOL   C56223750   8.292   7.560   4.141 -0.3452 -0.6902 -0.1095
   35MOL   C56323751   8.219   7.506   4.036  0.0275 -0.0441  0.0424
   35MOL   C56423752   8.283   7.431   3.935  0.4071  0.1939 -0.6945
   35MOL   C56523753   0.109   7.397   3.942  0.0208 -0.1466 -0.2241
   35MOL   C56623754   0.479   7.459   3.936  0.8658 -0.3747  0.4644
   35MOL   C56723755   0.583   7.544   3.896 -0.1848  0.2936  0.0721
   35MOL   H56823756   0.555   7.735   3.717  0.4369  0.1382  3.5646
   35MOL   H56923757   0.532   7.914   3.542 -2.6651 -0.6640  2.3779
   35MOL   H57023758   0.864   8.120   3.727  0.7475  0.2539 -3.7742
   35MOL   H57123759   0.900   7.943   3.882  0.8564 -2.9771 -1.0941
   35MOL   H57223760   0.583   7.750   4.161 -0.4437 -0.4463 -0.1317
   35MOL   H57323761   0.391   7.592   4.232  1.2020 -2.3627  0.8296
   35MOL   H57423762   0.170   7.542   4.241  0.8341 -0.4884 -0.2883
   35MOL   H57523763   8.246   7.625   4.214  0.6977 -1.0601  0.8881
   35MOL   H57623764   8.239   7.394   3.844 -3.1881  0.7992  0.7214
   35MOL   H57723765   0.171   7.347   3.869  2.1733  1.9686  0.0856
   35MOL   H57823766   0.447   7.381   3.868 -1.3577  2.2691 -1.6814
   35MOL   H57923767   0.628   7.520   3.801  0.4181  0.5315  0.2951
   35MOL   C58023768   7.947   7.289   4.254 -0.6267  0.8402  0.9892
   35MOL   C58123769   8.021   7.396   4.207 -0.7356 -0.6106  0.1116
   35MOL   C58223770   8.001   7.443   4.074  0.2041  0.3309 -1.4998
   35MOL   O58323771   8.088   7.538   4.019  0.5213 -0.3967  0.1130
   35MOL   C58423772   7.889   7.386   4.001 -0.4743 -0.4411  0.1722
   35MOL   C58523773   7.820   7.273   4.053  0.3681  0.6777  0.2317
   35MOL   C58623774   7.851   7.219   4.176 -0.3947  0.0392  0.0983
   35MOL   C58723775   7.789   7.097   4.217  0.0763  0.2425  0.2979
   35MOL   O58823776   7.731   7.029   4.140  0.6646 -0.5814  0.1231
   35MOL   C58923777   7.808   7.054   4.362  0.0482 -0.4007  0.1064
   35MOL   C59023778   7.792   7.148   4.466 -1.2771  0.0394  0.5352
   35MOL   C59123779   7.795   7.107   4.599  0.2636  0.2201 -0.0462
   35MOL   C59223780   7.803   6.970   4.633 -0.1590 -0.6403 -0.0925
   35MOL   O59323781   7.803   6.930   4.763  1.2372  0.6204  0.6129
   35MOL   C59423782   7.685   6.892   4.826 -0.2274 -0.1833 -0.0056
   35MOL   C59523783   7.699   6.822   4.947  0.6160 -0.3452 -0.1057
   35MOL   C59623784   7.590   6.758   5.002  0.3785 -0.3970 -0.4978
   35MOL   C59723785   7.461   6.768   4.944 -0.6897 -1.1172 -0.6153
   35MOL   C59823786   7.447   6.849   4.826 -0.5043  0.4737  0.4718
   35MOL   C59923787   7.560   6.909   4.766  0.4788  0.8583  0.3183
   35MOL   C60023788   7.821   6.876   4.531 -0.3504 -0.3104 -0.2755
   35MOL   C60123789   7.820   6.920   4.395  0.0092  0.2668 -0.3652
   35MOL   H60223790   7.984   7.233   4.339 -2.9699 -3.3317 -0.5725
   35MOL   H60323791   8.096   7.436   4.274 -2.1066 -0.7749  1.7935
   35MOL   H60423792   7.881   7.414   3.897  0.0372 -0.2938  0.1680
   35MOL   H60523793   7.744   7.226   3.992  1.1778  1.1905 -1.1932
   35MOL   H60623794   7.796   7.255   4.451  1.8820  0.0071  0.8224
   35MOL   H60723795   7.788   7.182   4.676 -0.4725 -1.0003  1.1051
   35MOL   H60823796   7.799   6.807   4.985  0.3406 -0.0697  0.7470
   35MOL   H60923797   7.608   6.696   5.089 -1.3068  2.5637  2.0628
   35MOL   H61023798   7.348   6.861   4.785 -1.1231 -2.0626  1.1041
   35MOL   H61123799   7.554   6.964   4.673  1.1341  0.0886 -0.1830
   35MOL   H61223800   7.821   6.769   4.545 -0.8876 -0.3075 -0.2226
   35MOL   H61323801   7.829   6.844   4.318 -0.4998 -0.5508  0.3707
   35MOL   C61423802   7.345   6.397   4.761 -0.3578 -0.0747 -0.1347
   35MOL   C61523803   7.327   6.532   4.802 -0.2277 -0.1823  0.2992
   35MOL   C61623804   7.343   6.568   4.942  0.0751  0.3316 -0.1733
   35MOL   O61723805   7.351   6.697   4.984  0.3641  0.3350 -0.2146
   35MOL   C61823806   7.369   6.460   5.029  0.7913  0.4842 -0.1270
   35MOL   C61923807   7.385   6.327   4.985 -0.9728 -0.1797  0.7367
   35MOL   C62023808   7.373   6.293   4.850  0.3230 -0.3686 -0.1701
   35MOL   C62123809   7.375   6.149   4.813  1.1128  0.5442  0.1742
   35MOL   O62223810   7.347   6.064   4.900  0.1587 -0.5810  0.9554
   35MOL   C62323811   7.420   6.102   4.672 -0.0827 -0.6687 -0.1534
   35MOL   C62423812   7.510   6.181   4.584 -0.3998 -0.0961  0.1411
   35MOL   C62523813   7.558   6.131   4.458 -0.2800 -0.4456 -0.5035
   35MOL   C62623814   7.513   6.008   4.414 -0.4042 -0.2261 -0.2864
   35MOL   O62723815   7.571   5.952   4.305  0.2252  0.0455  0.4890
   35MOL   C62823816   7.547   6.013   4.189  0.8504 -0.1798 -0.7911
   35MOL   C62923817   7.652   6.053   4.103 -0.4957 -0.3165 -0.8234
   35MOL   C63023818   7.628   6.132   3.987 -0.0904 -0.1998 -0.5422
   35MOL   C63123819   7.493   6.166   3.954 -0.2505 -0.3797 -0.2092
   35MOL   C63223820   7.390   6.101   4.023 -1.2190 -0.1250  0.0785
   35MOL   C63323821   7.417   6.029   4.142  0.7975 -0.5472  0.3366
   35MOL   C63423822   7.423   5.931   4.494 -0.1674  0.9859  0.4763
   35MOL   C63523823   7.375   5.976   4.619 -0.1189 -0.0577 -0.4250
   35MOL   H63623824   7.334   6.385   4.654  1.4365  0.4517 -0.3983
   35MOL   H63723825   7.302   6.617   4.739  1.9951  1.9540  2.2079
   35MOL   H63823826   7.371   6.467   5.137  0.4376  0.2579 -0.1045
   35MOL   H63923827   7.391   6.245   5.056 -0.4029 -0.4366  0.4004
   35MOL   H64023828   7.533   6.279   4.623 -1.7212 -0.7805  2.7592
   35MOL   H64123829   7.610   6.204   4.398 -1.6276  1.9342  1.1781
   35MOL   H64223830   7.756   6.037   4.128 -0.1778  2.3024 -0.2845
   35MOL   H64323831   7.705   6.186   3.935 -1.4028  0.0465 -2.2802
   35MOL   H64423832   7.287   6.123   3.997 -1.1790 -1.3050 -1.1927
   35MOL   H64523833   7.335   6.005   4.207 -1.0496 -0.2469 -1.8103
   35MOL   H64623834   7.387   5.835   4.459  1.6076  1.0158 -1.5317
   35MOL   H64723835   7.301   5.919   4.673  0.9458  0.0872  1.2355
   35MOL   C64823836   7.670   6.546   3.871  0.0483 -0.3603 -0.5137
   35MOL   C64923837   7.563   6.454   3.892  0.4023  0.1770  0.3224
   35MOL   C65023838   7.555   6.339   3.813  0.4085  0.2119  0.0902
   35MOL   O65123839   7.465   6.244   3.845 -0.3222 -0.3407  0.4116
   35MOL   C65223840   7.644   6.316   3.705  0.3017 -0.2827  0.0503
   35MOL   C65323841   7.746   6.406   3.679  0.1578 -0.6232 -0.0822
   35MOL   C65423842   7.765   6.520   3.764  0.7989 -0.2113 -0.5528
   35MOL   C65523843   7.879   6.612   3.734 -0.5471 -0.5696  0.7584
   35MOL   O65623844   7.859   6.712   3.663  0.6507 -0.3970  0.1983
   35MOL   C65723845   8.015   6.583   3.782  0.1849  0.0501  0.1596
   35MOL   C65823846   8.036   6.505   3.899 -0.6015 -0.3481  0.0889
   35MOL   C65923847   8.162   6.491   3.956 -0.5453  0.5733 -0.4485
   35MOL   C66023848   8.275   6.541   3.888  0.3110 -0.1581  0.0680
   35MOL   O66123849   0.087   6.543   3.949 -0.4330  0.1942 -0.3645
   35MOL   C66223850   0.165   6.433   3.948 -0.5900 -0.2179  0.7334
   35MOL   C66323851   0.277   6.425   4.036  0.3660 -0.4966 -0.1139
   35MOL   C66423852   0.341   6.310   4.060  0.8103 -0.0001 -0.2841
   35MOL   C66523853   0.304   6.194   3.988 -0.3529 -0.5238 -0.6665
   35MOL   C66623854   0.210   6.212   3.884 -0.6330  0.2619  0.4291
   35MOL   C66723855   0.150   6.333   3.856  0.3683  0.3694  0.4732
   35MOL   C66823856   8.258   6.603   3.766  0.0201 -0.0715 -0.4273
   35MOL   C66923857   8.127   6.635   3.717 -0.1705  0.2448 -0.1796
   35MOL   H67023858   7.685   6.637   3.928  0.7130 -2.1142  2.1913
   35MOL   H67123859   7.492   6.472   3.972 -0.0864  0.3124 -0.1420
   35MOL   H67223860   7.632   6.230   3.641 -1.9681  0.4352 -0.5401
   35MOL   H67323861   7.816   6.388   3.598  0.2698  1.1517 -0.4083
   35MOL   H67423862   7.952   6.459   3.949 -0.0899  0.6005  1.8689
   35MOL   H67523863   8.178   6.441   4.050  0.8180  4.6786  1.6567
   35MOL   H67623864   0.307   6.518   4.083  0.9867 -1.4512  1.4170
   35MOL   H67723865   0.422   6.310   4.130  0.1031 -0.8065  0.5535
   35MOL   H67823866   0.194   6.121   3.828  3.0228  0.0308 -0.3581
   35MOL   H67923867   0.068   6.325   3.785 -0.4603 -0.5330  1.5113
   35MOL   H68023868   0.031   6.644   3.715 -1.6511  3.5876 -0.5284
   35MOL   H68123869   8.106   6.686   3.625  0.3274  0.3056 -0.2626
   35MOL   H68223870   0.347   6.097   4.001 -2.5092 -1.6406 -1.5578
   36MOL     C123871   3.420   4.299   1.319 -0.0434  0.3964  0.1210
   36MOL     C223872   3.436   4.184   1.241  1.6213 -0.7259  0.6811
   36MOL     C323873   3.317   4.120   1.183 -0.1709 -0.2471  0.1463
   36MOL     O423874   3.328   4.001   1.115 -0.2824 -1.3480  0.2026
   36MOL     C523875   3.191   4.175   1.208 -0.5725 -0.0736 -0.6883
   36MOL     C623876   3.180   4.294   1.277 -0.3736 -0.0107  0.1506
   36MOL     C723877   3.295   4.358   1.332  0.2934  0.2095  0.2470
   36MOL     C823878   3.274   4.482   1.413 -0.7766  0.1794 -0.2498
   36MOL     O923879   3.233   4.469   1.528 -0.0467 -0.0606 -0.4712
   36MOL    C1023880   3.303   4.619   1.355 -0.2932  0.7952 -0.4220
   36MOL    C1123881   3.337   4.639   1.219 -0.1142  0.1054  0.0981
   36MOL    C1223882   3.358   4.768   1.168  0.8951 -0.3663 -0.6691
   36MOL    C1323883   3.337   4.879   1.250 -0.3631  0.7391 -0.2045
   36MOL    O1423884   3.356   5.004   1.197 -0.2981 -0.3656  0.0883
   36MOL    C1523885   3.486   5.055   1.188 -0.0535  0.3311 -0.3553
   36MOL    C1623886   3.547   5.097   1.308  0.5329  0.2437  0.2078
   36MOL    C1723887   3.674   5.158   1.305 -0.1383  0.3038 -0.0802
   36MOL    C1823888   3.747   5.152   1.187  0.4132 -0.1852 -0.3093
   36MOL    C1923889   3.688   5.105   1.063  0.3117  0.0708  0.1335
   36MOL    C2023890   3.561   5.053   1.066  0.1943 -0.2890 -0.0643
   36MOL    C2123891   3.301   4.866   1.383 -0.7132 -0.3536  0.5006
   36MOL    C2223892   3.293   4.735   1.438  0.5833 -0.7468 -0.3061
   36MOL    H2323893   3.514   4.339   1.354  0.4801 -0.2475 -0.5287
   36MOL    H2423894   3.536   4.145   1.226  2.7272  2.3253 -0.1716
   36MOL    H2523895   3.105   4.120   1.173 -1.6521  1.0053  0.2145
   36MOL    H2623896   3.077   4.323   1.290 -0.2809 -0.3564  1.8108
   36MOL    H2723897   3.351   4.557   1.151 -0.9281  0.3085 -0.3214
   36MOL    H2823898   3.380   4.782   1.064 -0.3094 -0.3988 -0.9326
   36MOL    H2923899   3.494   5.110   1.401  0.0816  1.6078 -0.2294
   36MOL    H3023900   3.723   5.197   1.394  0.5739 -1.2708  0.2488
   36MOL    H3123901   3.745   5.087   0.973  1.1278  0.4408  0.5677
   36MOL    H3223902   3.509   5.021   0.976 -2.8030 -1.2170  1.9305
   36MOL    H3323903   3.278   4.954   1.442  0.5753 -0.0278  0.5358
   36MOL    H3423904   3.272   4.723   1.543 -2.0508 -0.8068 -0.7927
   36MOL    H3523905   3.401   3.986   1.056 -0.2808 -0.2125 -0.0839
   36MOL    C3623906   4.079   4.895   1.234 -0.6972  0.2039  0.5678
   36MOL    C3723907   3.973   4.978   1.190 -0.0215 -0.3535  0.1473
   36MOL    C3823908   3.974   5.115   1.216  0.5538 -0.0881 -0.0338
   36MOL    O3923909   3.874   5.200   1.182  0.0198  0.5244 -0.3293
   36MOL    C4023910   4.094   5.168   1.281 -0.3670  0.0348  0.0491
   36MOL    C4123911   4.195   5.083   1.326  0.0569 -0.3570  0.0629
   36MOL    C4223912   4.190   4.942   1.305  0.6881 -0.4702  0.2111
   36MOL    C4323913   4.298   4.856   1.369  0.2607  0.0810  0.1691
   36MOL    O4423914   4.407   4.903   1.384 -0.0536  0.0950  0.1875
   36MOL    C4523915   4.262   4.716   1.402 -0.3455 -0.3400 -0.1895
   36MOL    C4623916   4.355   4.607   1.391  0.0230 -0.1841 -0.8008
   36MOL    C4723917   4.315   4.478   1.410 -0.0092 -0.4871 -0.7341
   36MOL    C4823918   4.181   4.446   1.442 -0.2788  0.5887  0.4297
   36MOL    O4923919   4.155   4.321   1.468 -0.2772 -0.1363  0.6715
   36MOL    C5023920   4.045   4.287   1.539  0.0701  0.5932 -0.1290
   36MOL    C5123921   3.929   4.250   1.474 -0.7492  0.2913  0.6104
   36MOL    C5223922   3.806   4.223   1.548 -0.1402  0.1535  0.9876
   36MOL    C5323923   3.811   4.227   1.690 -0.2556  0.0209 -0.0910
   36MOL    C5423924   3.930   4.273   1.754 -0.1555  0.1012  0.1829
   36MOL    C5523925   4.042   4.296   1.680  0.7944  1.0670 -0.5681
   36MOL    C5623926   4.087   4.556   1.466 -0.0106  0.2583 -0.2026
   36MOL    C5723927   4.129   4.688   1.439 -0.1440 -0.1158  0.8290
   36MOL    H5823928   4.064   4.791   1.210 -1.8112  0.3623  0.5534
   36MOL    H5923929   3.892   4.930   1.137 -0.5543  0.2491  0.4141
   36MOL    H6023930   4.089   5.274   1.298 -1.4214 -0.0036  0.0164
   36MOL    H6123931   4.275   5.133   1.380 -0.6388  0.1858  0.5930
   36MOL    H6223932   4.455   4.614   1.351  1.1574 -0.0511  1.9007
   36MOL    H6323933   4.392   4.403   1.407  0.3868 -0.1835  1.0226
   36MOL    H6423934   3.933   4.242   1.366  1.6709 -0.8934  0.7529
   36MOL    H6523935   3.721   4.185   1.494  0.2911  0.7233 -0.1020
   36MOL    H6623936   3.928   4.285   1.862 -0.7965  2.0914 -0.0434
   36MOL    H6723937   4.132   4.316   1.736  0.8773  0.6982 -0.5687
   36MOL    H6823938   3.988   4.527   1.499  0.7090 -1.1259  0.8086
   36MOL    H6923939   4.048   4.759   1.437 -0.3598 -0.3840 -0.6297
   36MOL    C7023940   3.502   3.929   1.623  0.4082 -0.1209 -0.1254
   36MOL    C7123941   3.605   4.005   1.677  0.7051 -0.0883 -0.2168
   36MOL    C7223942   3.584   4.141   1.703  0.3414  0.0964 -0.3164
   36MOL    O7323943   3.696   4.202   1.762  0.4791  0.5419  0.2586
   36MOL    C7423944   3.460   4.202   1.676 -0.7534 -1.0316  0.1486
   36MOL    C7523945   3.356   4.125   1.622  0.4058  0.2333  0.6337
   36MOL    C7623946   3.372   3.987   1.606  0.9505 -0.2000 -0.2041
   36MOL    C7723947   3.253   3.910   1.557 -0.2084  0.2161 -0.3366
   36MOL    O7823948   3.275   3.795   1.513  0.2581  0.2919 -0.3019
   36MOL    C7923949   3.108   3.965   1.548 -0.7856  0.1604 -0.5594
   36MOL    C8023950   3.026   3.920   1.447  0.0127  0.0087 -0.2882
   36MOL    C8123951   2.906   3.986   1.415 -0.4912 -0.1797  0.1871
   36MOL    C8223952   2.854   4.082   1.503 -0.3284  0.3069  0.4294
   36MOL    O8323953   2.733   4.136   1.476 -0.2614 -0.5343 -0.6468
   36MOL    C8423954   2.730   4.232   1.376  0.4523 -0.7350 -0.7361
   36MOL    C8523955   2.683   4.183   1.253 -0.1543 -0.2669 -0.2090
   36MOL    C8623956   2.662   4.273   1.141  0.4396 -0.5529 -0.4048
   36MOL    C8723957   2.693   4.407   1.158  0.2330 -1.0249 -0.5359
   36MOL    C8823958   2.739   4.454   1.288 -0.4212  0.1238  0.0834
   36MOL    C8923959   2.764   4.365   1.391  0.2041  0.2262 -0.8445
   36MOL    C9023960   2.920   4.105   1.619 -0.0040  0.1748 -1.0780
   36MOL    C9123961   3.047   4.045   1.647 -0.4158 -0.1226 -0.0018
   36MOL    H9223962   3.529   3.825   1.609 -0.4752 -0.1566 -1.6278
   36MOL    H9323963   3.699   3.953   1.693  0.4996 -0.5383 -0.4724
   36MOL    H9423964   3.451   4.304   1.709  1.7733 -0.3896 -1.0033
   36MOL    H9523965   3.263   4.180   1.613 -0.2468 -1.1243 -1.3719
   36MOL    H9623966   3.058   3.862   1.361 -0.9390 -1.8617  0.5957
   36MOL    H9723967   2.843   3.964   1.329 -1.2717  0.6997  0.5276
   36MOL    H9823968   2.651   4.080   1.242  0.2237 -0.4361  0.2501
   36MOL    H9923969   2.629   4.232   1.046 -0.8147  1.1863 -0.7260
   36MOL   H10023970   2.758   4.559   1.310  1.7929 -0.6390  2.0343
   36MOL   H10123971   2.808   4.400   1.484  0.6534 -3.1872  0.3075
   36MOL   H10223972   2.863   4.155   1.696  0.8895  0.1023 -0.3594
   36MOL   H10323973   3.091   4.069   1.743 -0.1013  2.7667 -0.8213
   36MOL   C10423974   3.016   4.611   0.978  0.2661  0.2037  0.1395
   36MOL   C10523975   2.910   4.522   1.004  0.6237 -0.2598 -0.0743
   36MOL   C10623976   2.779   4.569   1.019 -0.3542 -0.3594 -0.1861
   36MOL   O10723977   2.671   4.495   1.060 -0.3761  0.2364  0.1165
   36MOL   C10823978   2.762   4.705   1.030 -0.2083  0.2682  0.2798
   36MOL   C10923979   2.864   4.794   1.007  0.0863 -0.2576  0.3541
   36MOL   C11023980   2.996   4.753   0.972  0.0470 -0.4737  0.3208
   36MOL   C11123981   3.108   4.839   0.936 -0.7963  0.2462 -0.1564
   36MOL   O11223982   3.215   4.791   0.892 -0.7534  0.1384  0.4878
   36MOL   C11323983   3.096   4.989   0.963  0.2869  0.3611 -0.6491
   36MOL   C11423984   3.031   5.042   1.074  0.3430  0.2900  0.0765
   36MOL   C11523985   3.028   5.181   1.099 -0.1434  0.1498 -0.4847
   36MOL   C11623986   3.105   5.269   1.025  0.4958 -0.4051  0.2981
   36MOL   O11723987   3.110   5.405   1.057  0.6456  0.0965 -0.4120
   36MOL   C11823988   3.000   5.466   1.103 -0.3678  0.1033  1.3024
   36MOL   C11923989   2.984   5.507   1.238 -0.1135  0.5661 -0.0932
   36MOL   C12023990   2.869   5.575   1.279 -0.1393 -0.7300 -0.4012
   36MOL   C12123991   2.765   5.595   1.186  0.0044  0.1752  0.7244
   36MOL   C12223992   2.775   5.550   1.055 -0.1001  0.7096 -0.5655
   36MOL   C12323993   2.889   5.487   1.014  0.0627  0.6706  0.1026
   36MOL   C12423994   3.176   5.222   0.912  0.5748 -0.1689  0.0152
   36MOL   C12523995   3.170   5.084   0.885 -0.4821 -0.0842  0.3266
   36MOL   H12623996   3.117   4.574   0.966  0.8433  2.3212 -1.9446
   36MOL   H12723997   2.925   4.416   1.020  0.6136 -0.1300  0.8221
   36MOL   H12823998   2.663   4.747   1.042  0.1167  2.2872 -3.4527
   36MOL   H12923999   2.841   4.899   1.020  0.4948 -0.2534  1.0364
   36MOL   H13024000   2.995   4.971   1.147  0.6714 -0.5017 -0.5322
   36MOL   H13124001   2.985   5.215   1.192  1.3597 -1.4590  0.8122
   36MOL   H13224002   3.049   5.474   1.317  0.5319 -0.0598 -0.8731
   36MOL   H13324003   2.854   5.599   1.383 -1.3730  0.5478 -0.8511
   36MOL   H13424004   2.700   5.570   0.980 -1.6339 -1.3012  0.3605
   36MOL   H13524005   2.910   5.456   0.913  0.3812 -0.7748  0.6074
   36MOL   H13624006   3.227   5.296   0.853 -0.5022 -0.3528 -1.1564
   36MOL   H13724007   3.233   5.043   0.807 -2.6818  0.3153 -1.7055
   36MOL   C13824008   2.364   5.434   1.189  0.6450 -0.4656 -0.7260
   36MOL   C13924009   2.496   5.481   1.203 -0.4760  0.1386 -0.2954
   36MOL   C14024010   2.521   5.617   1.211  0.3477 -0.4474 -0.3354
   36MOL   O14124011   2.651   5.665   1.223  0.2259  0.0415  0.5676
   36MOL   C14224012   2.413   5.706   1.195 -0.1087 -0.0383  0.0076
   36MOL   C14324013   2.277   5.661   1.181  0.0388 -0.0366  0.0553
   36MOL   C14424014   2.255   5.523   1.179 -0.1564 -0.0306  0.3220
   36MOL   C14524015   2.117   5.460   1.157 -0.2108  0.1195 -0.0291
   36MOL   O14624016   2.102   5.340   1.144 -0.6123 -1.0133  0.6850
   36MOL   C14724017   2.007   5.551   1.155  0.8907 -0.3437  0.0119
   36MOL   C14824018   1.993   5.648   1.255 -0.2567 -0.5764 -0.5173
   36MOL   C14924019   1.890   5.751   1.246 -0.1478  0.1184  0.0592
   36MOL   C15024020   1.795   5.742   1.139  0.2403 -0.0422  0.3105
   36MOL   O15124021   1.693   5.837   1.135  0.3671  0.0744  0.0995
   36MOL   C15224022   1.568   5.783   1.119  0.8741 -0.3146 -0.1338
   36MOL   C15324023   1.466   5.852   1.051 -0.3157 -0.2879 -0.7458
   36MOL   C15424024   1.336   5.793   1.042 -0.2502  0.1011  0.3663
   36MOL   C15524025   1.303   5.674   1.108 -0.4115  0.0045 -0.0936
   36MOL   C15624026   1.400   5.617   1.191  0.1493 -0.0071 -0.4303
   36MOL   C15724027   1.530   5.667   1.194 -1.0114 -0.5403 -0.1221
   36MOL   C15824028   1.813   5.643   1.042 -0.2447 -0.5445  0.3145
   36MOL   C15924029   1.912   5.546   1.056  0.0785  0.0018  0.7934
   36MOL   H16024030   2.347   5.328   1.193  0.1184 -0.3330  0.8867
   36MOL   H16124031   2.574   5.407   1.211 -1.0126 -0.4336 -0.2698
   36MOL   H16224032   2.427   5.810   1.169 -0.4356 -0.7954 -3.4514
   36MOL   H16324033   2.201   5.726   1.141 -0.4908 -1.3923 -1.1933
   36MOL   H16424034   2.063   5.653   1.337 -1.9431  0.3924  0.9023
   36MOL   H16524035   1.863   5.815   1.328 -0.0796  1.5225 -0.9844
   36MOL   H16624036   1.491   5.947   1.007  0.1356  0.0882  0.3124
   36MOL   H16724037   1.263   5.848   0.984 -1.7934  0.2108  2.3529
   36MOL   H16824038   1.378   5.536   1.258  0.9563 -0.0455 -0.1996
   36MOL   H16924039   1.597   5.619   1.264 -2.2833  0.4842  1.8424
   36MOL   H17024040   1.741   5.634   0.962 -0.4620 -0.2388  0.4724
   36MOL   H17124041   1.923   5.462   0.988 -0.7151  0.7659 -0.2866
   36MOL   C17224042   1.012   5.720   0.780 -0.7078 -0.3358 -0.1639
   36MOL   C17324043   1.109   5.676   0.868 -0.2031  0.6438  0.1069
   36MOL   C17424044   1.088   5.653   1.004  0.3696 -0.0905 -0.5344
   36MOL   O17524045   1.179   5.616   1.100  0.9747 -0.3243 -0.1944
   36MOL   C17624046   0.953   5.661   1.047 -0.6106 -0.3656  0.0739
   36MOL   C17724047   0.848   5.686   0.956  0.2260 -0.2756  0.1548
   36MOL   C17824048   0.877   5.723   0.826 -0.2394  0.3591  0.3163
   36MOL   C17924049   0.763   5.778   0.751 -0.4063  0.0242 -0.3444
   36MOL   O18024050   0.663   5.823   0.808 -0.5558  0.5617 -0.1608
   36MOL   C18124051   0.763   5.754   0.605  0.3722  0.5010  0.5518
   36MOL   C18224052   0.687   5.839   0.518 -0.5782  0.0761 -0.3341
   36MOL   C18324053   0.690   5.828   0.380 -0.3829 -0.3132 -0.4722
   36MOL   C18424054   0.774   5.727   0.320 -0.1025 -0.4931  0.6318
   36MOL   O18524055   0.783   5.723   0.181 -0.3329  0.1784 -0.1910
   36MOL   C18624056   0.911   5.763   0.131 -0.1049  0.2458  0.2144
   36MOL   C18724057   1.026   5.803   0.204 -1.0925  0.0129 -0.3413
   36MOL   C18824058   1.132   5.871   0.146 -0.1186 -0.1388  0.3058
   36MOL   C18924059   1.141   5.881   0.007 -0.1267  0.3622  0.3085
   36MOL   C19024060   1.039   5.825   8.239  0.8160 -0.0202 -0.7959
   36MOL   C19124061   0.934   5.755   8.303 -0.3662 -0.0717 -0.6749
   36MOL   C19224062   0.853   5.641   0.406  0.0503 -0.0972 -0.7917
   36MOL   C19324063   0.830   5.649   0.543 -0.5927 -0.2984  0.5524
   36MOL   H19424064   1.040   5.738   0.677 -0.8730 -0.0859 -0.1662
   36MOL   H19524065   1.212   5.680   0.838 -0.2880  2.4273  0.0013
   36MOL   H19624066   0.927   5.629   1.146  0.7104  1.3083  0.9900
   36MOL   H19724067   0.746   5.682   0.992 -0.1161 -2.0501 -0.9817
   36MOL   H19824068   0.611   5.897   0.567 -1.3920 -0.8737 -0.4706
   36MOL   H19924069   0.642   5.887   0.304 -1.0570  1.0028  0.9462
   36MOL   H20024070   1.022   5.810   0.312 -2.2201 -1.5498 -0.2523
   36MOL   H20124071   1.206   5.927   0.202  0.1800 -1.3552  1.1546
   36MOL   H20224072   1.045   5.834   8.132  1.0845 -0.0617 -0.7856
   36MOL   H20324073   0.867   5.704   8.236 -0.9764  0.3548 -0.3989
   36MOL   H20424074   0.926   5.570   0.369  1.8296  1.7184 -0.8555
   36MOL   H20524075   0.885   5.577   0.603 -0.3017 -0.6493 -0.1352
   36MOL   C20624076   1.559   5.752   0.005 -0.1972  0.0918 -0.0976
   36MOL   C20724077   1.424   5.778   8.301  0.0798 -0.0675  0.5377
   36MOL   C20824078   1.373   5.914   8.293 -0.2084  0.7968 -0.2356
   36MOL   O20924079   1.247   5.936   8.258 -0.4284  0.0602  0.2296
   36MOL   C21024080   1.475   6.011   8.304 -0.2499 -0.5843 -0.0086
   36MOL   C21124081   1.615   5.980   0.001  0.3870 -0.1362  0.2264
   36MOL   C21224082   1.655   5.851   0.013 -0.3294  0.1970  0.5593
   36MOL   C21324083   1.799   5.813   0.042  0.4588  1.2386 -0.0946
   36MOL   O21424084   1.830   5.705   0.088  0.2201  0.0367  0.3226
   36MOL   C21524085   1.901   5.918   0.020 -0.1433  0.2064  0.0468
   36MOL   C21624086   1.979   5.961   0.130 -0.5115 -0.3559  0.0511
   36MOL   C21724087   2.072   6.063   0.110 -0.5915  0.3012  0.2833
   36MOL   C21824088   2.081   6.127   8.297 -1.0990  0.2228  0.4846
   36MOL   O21924089   2.158   6.240   8.276 -0.2806  0.2713 -0.2280
   36MOL   C22024090   2.105   6.366   8.266  0.3762 -0.1581  0.7107
   36MOL   C22124091   1.995   6.407   0.031 -0.4633  0.1772 -0.5687
   36MOL   C22224092   1.934   6.531   0.011 -0.0226 -0.1285  0.0734
   36MOL   C22324093   1.975   6.613   8.215 -0.3110 -0.1860  0.7573
   36MOL   C22424094   2.078   6.572   8.130  0.3636  0.3703 -0.1402
   36MOL   C22524095   2.151   6.452   8.160 -0.2457  0.1945  0.8768
   36MOL   C22624096   2.007   6.080   8.188  0.6558 -0.2931 -0.5141
   36MOL   C22724097   1.917   5.980   8.207  0.3326  0.1551  0.1132
   36MOL   H22824098   1.596   5.651   0.020  0.7518  0.3359 -0.7407
   36MOL   H22924099   1.353   5.697   8.294 -0.6681  0.5641  0.6921
   36MOL   H23024100   1.444   6.112   8.281 -0.9625 -0.4530  1.4235
   36MOL   H23124101   1.682   6.064   0.012  0.0365  0.2766 -0.7203
   36MOL   H23224102   1.960   5.913   0.225 -0.8016 -4.1549 -1.8273
   36MOL   H23324103   2.121   6.113   0.192 -2.6068  0.3314  1.5063
   36MOL   H23424104   1.947   6.347   0.107 -2.7036  2.2792 -0.2337
   36MOL   H23524105   1.846   6.552   0.070 -0.8233 -1.1159 -0.7633
   36MOL   H23624106   2.119   6.636   8.053  1.8875 -0.3159  0.0836
   36MOL   H23724107   2.237   6.434   8.097 -2.0850  1.8444 -2.2647
   36MOL   H23824108   2.029   6.125   8.092  0.8984  0.0280 -0.3064
   36MOL   H23924109   1.862   5.941   8.123  1.7350 -0.9078 -0.3357
   36MOL   C24024110   1.644   6.854   0.112 -0.1422 -0.4451  0.5124
   36MOL   C24124111   1.707   6.780   0.007  0.5950  0.4384 -0.4727
   36MOL   C24224112   1.839   6.798   8.273 -0.6446  0.5259 -0.7989
   36MOL   O24324113   1.898   6.722   8.179  0.4775  0.1778 -0.4726
   36MOL   C24424114   1.906   6.912   0.020 -0.3401  0.9005 -0.3696
   36MOL   C24524115   1.843   6.996   0.116 -0.3813  0.3847  0.1354
   36MOL   C24624116   1.712   6.965   0.163  0.4743  0.0437 -0.4072
   36MOL   C24724117   1.649   7.049   0.273  0.2474  0.2257 -0.3324
   36MOL   O24824118   1.580   6.995   0.357  0.2663  0.3647  0.4335
   36MOL   C24924119   1.672   7.195   0.275  0.0224 -0.3300 -0.3122
   36MOL   C25024120   1.671   7.271   0.155  0.8895 -0.1651 -0.5389
   36MOL   C25124121   1.691   7.409   0.156  0.3426 -0.3201 -0.0522
   36MOL   C25224122   1.705   7.475   0.279 -1.1392  0.6456  0.5049
   36MOL   O25324123   1.744   7.608   0.270 -0.9536 -0.0798  0.3692
   36MOL   C25424124   1.666   7.714   0.316 -0.7111  0.4072  0.1278
   36MOL   C25524125   1.738   7.811   0.386 -0.3996  0.1874  0.2909
   36MOL   C25624126   1.668   7.924   0.433  0.5657 -0.2671  0.1879
   36MOL   C25724127   1.530   7.933   0.407  0.0082 -0.7923  0.2697
   36MOL   C25824128   1.463   7.829   0.345  0.0237 -0.0780 -0.1974
   36MOL   C25924129   1.529   7.722   0.295 -0.1989 -0.7574  0.2322
   36MOL   C26024130   1.700   7.401   0.397  0.1426 -0.2793 -0.3447
   36MOL   C26124131   1.688   7.261   0.399  0.2914 -0.1932  0.2599
   36MOL   H26224132   1.538   6.843   0.130 -0.4307  1.8864  0.3964
   36MOL   H26324133   1.657   6.697   8.271 -1.4304  1.4257 -0.1231
   36MOL   H26424134   2.008   6.930   8.304 -0.0672  2.0921  1.2544
   36MOL   H26524135   1.886   7.094   0.134 -0.2387  0.2671  0.4326
   36MOL   H26624136   1.664   7.220   0.059  0.9329  1.8103 -1.6109
   36MOL   H26724137   1.704   7.475   0.071  2.4829  0.0610  0.5386
   36MOL   H26824138   1.843   7.797   0.406  0.1136  2.7453 -0.4525
   36MOL   H26924139   1.726   7.991   0.494 -0.5960 -0.5312  1.6042
   36MOL   H27024140   1.359   7.828   0.316  0.2875 -0.8149 -1.1465
   36MOL   H27124141   1.482   7.639   0.245 -1.6733 -0.7212  1.5341
   36MOL   H27224142   1.705   7.448   0.494 -1.1332 -2.4599  0.7929
   36MOL   H27324143   1.694   7.209   0.493  1.3274 -2.5195 -1.0482
   36MOL   C27424144   1.207   7.980   0.702 -0.0241  0.3004 -0.1775
   36MOL   C27524145   1.291   7.960   0.588 -0.2827  0.0489 -0.0351
   36MOL   C27624146   1.376   8.056   0.541  0.5691 -0.3486 -0.0649
   36MOL   O27724147   1.453   8.049   0.430 -0.8552 -0.8509 -0.7844
   36MOL   C27824148   1.393   8.166   0.625 -0.9536 -0.3709 -0.7838
   36MOL   C27924149   1.317   8.190   0.739  0.5482 -0.0178  0.1940
   36MOL   C28024150   1.215   8.097   0.782  0.2843  0.6690  0.5633
   36MOL   C28124151   1.125   8.124   0.892 -0.3693  0.2552  0.1332
   36MOL   O28224152   1.054   8.221   0.896 -0.0082  0.2242 -0.3332
   36MOL   C28324153   1.140   8.036   1.019  0.7593  0.3424 -0.0012
   36MOL   C28424154   1.206   7.907   1.018  0.4530  0.1391  0.4955
   36MOL   C28524155   1.202   7.821   1.131 -0.5335 -0.9720 -1.0630
   36MOL   C28624156   1.127   7.858   1.245  0.3942 -0.0380  1.2819
   36MOL   O28724157   1.139   7.789   1.362 -0.2245 -0.0089 -0.4008
   36MOL   C28824158   1.023   7.743   1.416 -0.3124 -0.5741 -0.1197
   36MOL   C28924159   0.962   7.808   1.529  0.7839  0.0617  0.0505
   36MOL   C29024160   0.844   7.755   1.588 -0.1993 -0.4207  0.3334
   36MOL   C29124161   0.785   7.638   1.534 -0.7688  0.1348  0.4582
   36MOL   C29224162   0.834   7.588   1.412 -0.2166 -0.3718  0.0429
   36MOL   C29324163   0.953   7.635   1.357 -0.8033 -0.4180 -0.4354
   36MOL   C29424164   1.054   7.978   1.243 -0.4763 -0.1293  0.9758
   36MOL   C29524165   1.065   8.070   1.136  0.2892  0.1601  1.0096
   36MOL   H29624166   1.143   7.901   0.740  0.6809 -0.0656  0.2519
   36MOL   H29724167   1.264   7.875   0.527 -1.4651 -1.3979  2.4162
   36MOL   H29824168   1.467   8.239   0.594 -1.3686  0.5381  0.3722
   36MOL   H29924169   1.345   8.283   0.786  0.4902  0.3735 -0.5393
   36MOL   H30024170   1.276   7.874   0.944 -0.7378 -3.1022  0.7229
   36MOL   H30124171   1.268   7.736   1.136  1.6163  0.7150 -0.3225
   36MOL   H30224172   1.013   7.894   1.571  1.4446 -0.1723 -0.2628
   36MOL   H30324173   0.794   7.801   1.672 -1.9733 -1.0238 -0.3606
   36MOL   H30424174   0.795   7.501   1.361 -0.8740  0.6481 -1.2226
   36MOL   H30524175   0.986   7.588   1.265  1.0626 -0.8583  0.4214
   36MOL   H30624176   0.995   8.016   1.325 -2.8592  0.2475 -0.8387
   36MOL   H30724177   1.002   8.158   1.133 -0.7630 -0.5844  0.9419
   36MOL   C30824178   0.733   7.253   1.735 -0.3567  0.0128 -0.3459
   36MOL   C30924179   0.730   7.355   1.638 -0.0941 -0.1749 -0.3322
   36MOL   C31024180   0.682   7.486   1.677 -0.2360 -0.0131  0.4067
   36MOL   O31124181   0.669   7.587   1.589  0.0264 -0.1228 -0.0137
   36MOL   C31224182   0.642   7.505   1.812 -0.1336 -0.0058 -0.2122
   36MOL   C31324183   0.650   7.406   1.904  0.7329  0.4733  0.9451
   36MOL   C31424184   0.700   7.280   1.872  1.0369  0.5026 -0.2296
   36MOL   C31524185   0.724   7.176   1.980  0.2273 -0.3362 -0.2670
   36MOL   O31624186   0.794   7.077   1.960 -0.3883  0.8374 -0.8085
   36MOL   C31724187   0.666   7.205   2.120 -0.3861 -0.2281 -0.2292
   36MOL   C31824188   0.745   7.178   2.229 -0.2008  0.1095 -0.0726
   36MOL   C31924189   0.698   7.188   2.358  0.2850 -1.4624 -0.1413
   36MOL   C32024190   0.563   7.228   2.382  0.9906  0.6822  0.7075
   36MOL   O32124191   0.529   7.236   2.515 -0.7001  0.1389 -0.2253
   36MOL   C32224192   0.435   7.155   2.572 -0.2533 -0.3747  1.0666
   36MOL   C32324193   0.353   7.208   2.674 -0.9674 -0.6031  0.3524
   36MOL   C32424194   0.263   7.132   2.747 -0.3653  1.2685 -0.5101
   36MOL   C32524195   0.254   6.996   2.722  0.6400 -0.3320  0.3000
   36MOL   C32624196   0.334   6.937   2.618 -0.6819 -0.3577 -0.0200
   36MOL   C32724197   0.421   7.020   2.543 -0.4353  0.5556  0.2597
   36MOL   C32824198   0.482   7.263   2.273  0.1575  0.1829  0.3151
   36MOL   C32924199   0.533   7.243   2.142 -0.2185 -0.2815  0.3053
   36MOL   H33024200   0.765   7.153   1.707  0.6875  0.3398 -0.3084
   36MOL   H33124201   0.747   7.342   1.532 -1.5407  3.2100 -1.0528
   36MOL   H33224202   0.595   7.597   1.841  1.2617  0.4019  0.8036
   36MOL   H33324203   0.655   7.429   2.010  0.3620 -2.4140  1.6479
   36MOL   H33424204   0.847   7.146   2.211 -0.6659 -2.1455  1.0622
   36MOL   H33524205   0.763   7.156   2.438  0.3412 -0.7877  0.0845
   36MOL   H33624206   0.375   7.312   2.696 -1.5807 -0.5776  0.8610
   36MOL   H33724207   0.210   7.178   2.830 -2.3846  0.4165 -1.2846
   36MOL   H33824208   0.326   6.831   2.599 -0.1475  0.2024 -3.6404
   36MOL   H33924209   0.486   6.969   2.473 -1.3666 -2.5591  1.5585
   36MOL   H34024210   0.381   7.298   2.289  0.0345  0.7772 -1.6944
   36MOL   H34124211   0.472   7.246   2.053  0.0662 -0.5861  0.0971
   36MOL   C34224212   8.140   7.055   2.761 -0.4635 -0.5900  0.2893
   36MOL   C34324213   8.273   7.039   2.797 -0.0485 -0.3316  0.3315
   36MOL   C34424214   0.031   6.921   2.759  0.3638  0.1503 -0.8727
   36MOL   O34524215   0.168   6.918   2.796  0.2057  0.0264 -0.1215
   36MOL   C34624216   8.279   6.820   2.691 -0.5809  0.2673 -0.3821
   36MOL   C34724217   8.140   6.833   2.658  0.5270  0.0805 -0.0107
   36MOL   C34824218   8.072   6.953   2.686 -0.6628  0.4781 -0.0816
   36MOL   C34924219   7.932   6.961   2.645  0.4631 -0.7334 -0.3753
   36MOL   O35024220   7.841   6.888   2.688 -0.4145 -0.3741 -0.1417
   36MOL   C35124221   7.904   7.065   2.549 -0.1352  0.1542 -0.2461
   36MOL   C35224222   7.773   7.090   2.510 -0.3322  0.2675 -0.2843
   36MOL   C35324223   7.744   7.198   2.424  0.2533 -1.0441 -0.5353
   36MOL   C35424224   7.842   7.272   2.358 -0.0531  0.5864 -0.1390
   36MOL   O35524225   7.803   7.379   2.284  0.3421  0.3149  0.7590
   36MOL   C35624226   7.758   7.347   2.157  0.0603 -0.2045 -0.1207
   36MOL   C35724227   7.852   7.325   2.054  0.1336  0.1447 -0.4474
   36MOL   C35824228   7.800   7.274   1.933 -0.1311  0.1315 -0.0408
   36MOL   C35924229   7.664   7.267   1.911  1.0739 -0.5151  0.2651
   36MOL   C36024230   7.571   7.307   2.011 -0.5625  0.5826 -0.6391
   36MOL   C36124231   7.616   7.339   2.139 -0.3589  0.2331  0.8754
   36MOL   C36224232   7.974   7.235   2.388 -0.2614  0.1372  0.0663
   36MOL   C36324233   8.006   7.137   2.485  0.2562  0.5122  0.3060
   36MOL   H36424234   8.087   7.145   2.790  1.9273  1.3633 -1.2372
   36MOL   H36524235   0.017   7.113   2.852 -1.8565  1.8218 -0.6779
   36MOL   H36624236   0.021   6.731   2.665  2.2859  0.5618  4.0454
   36MOL   H36724237   8.093   6.754   2.601  2.3152  0.3996 -2.0113
   36MOL   H36824238   7.698   7.021   2.546  0.4785 -1.2924 -1.5191
   36MOL   H36924239   7.641   7.225   2.411  0.3115  0.3950  1.7081
   36MOL   H37024240   7.956   7.326   2.080  0.1197  1.8279 -0.3469
   36MOL   H37124241   7.868   7.245   1.855  0.6113  0.0392  0.6418
   36MOL   H37224242   7.467   7.285   1.991 -0.0523 -1.1222 -1.5767
   36MOL   H37324243   7.545   7.355   2.218 -0.0709 -1.0159  1.4070
   36MOL   H37424244   8.058   7.297   2.359  1.2816 -2.0765 -0.3209
   36MOL   H37524245   8.112   7.132   2.507 -0.1781  0.1254  2.3290
   36MOL   C37624246   7.578   7.502   1.540  0.3969  0.6880 -0.3319
   36MOL   C37724247   7.629   7.401   1.628 -0.1319  0.1754  0.0733
   36MOL   C37824248   7.552   7.330   1.716  0.4529  0.0771 -0.4446
   36MOL   O37924249   7.617   7.232   1.789  0.1295  0.0063 -0.0573
   36MOL   C38024250   7.419   7.363   1.722 -0.0114  0.8070  0.2208
   36MOL   C38124251   7.361   7.448   1.633  0.3889  0.4752 -0.3904
   36MOL   C38224252   7.441   7.529   1.547 -0.3966 -0.3045  0.4742
   36MOL   C38324253   7.376   7.648   1.495 -1.4730  0.1168  0.6528
   36MOL   O38424254   7.285   7.642   1.414 -0.0900  0.4049  0.1159
   36MOL   C38524255   7.415   7.784   1.533 -0.3187  0.1853 -0.0842
   36MOL   C38624256   7.489   7.798   1.653  0.7094 -0.2770 -0.2209
   36MOL   C38724257   7.546   7.918   1.691  0.2465 -0.0354  0.7829
   36MOL   C38824258   7.515   8.033   1.611  0.2806  0.3130 -1.1602
   36MOL   O38924259   7.573   8.153   1.645  0.0816  0.0189  0.0016
   36MOL   C39024260   7.618   8.235   1.546  0.3704  0.0495  0.1710
   36MOL   C39124261   7.743   8.215   1.476 -0.1204  0.1844 -0.6098
   36MOL   C39224262   7.789   8.301   1.374 -0.4405 -0.2576 -0.3554
   36MOL   C39324263   7.713   0.101   1.340 -0.1842 -0.4956  0.0593
   36MOL   C39424264   7.588   0.126   1.408  0.0702  0.6317 -0.3993
   36MOL   C39524265   7.544   0.035   1.510 -0.5735 -0.3498 -0.5175
   36MOL   C39624266   7.430   8.022   1.504  0.0286 -0.3950 -0.3840
   36MOL   C39724267   7.383   7.900   1.458 -0.5732 -0.0120  0.1724
   36MOL   H39824268   7.647   7.550   1.472 -1.4185 -0.4307 -3.0428
   36MOL   H39924269   7.734   7.375   1.626  0.1701  1.4257 -1.5061
   36MOL   H40024270   7.352   7.303   1.782 -0.0469  1.2612  0.6349
   36MOL   H40124271   7.255   7.458   1.651  0.2097 -1.5462 -0.2285
   36MOL   H40224272   7.520   7.717   1.717 -0.6028 -1.4574 -1.0534
   36MOL   H40324273   7.605   7.930   1.781  1.3198  0.4898  0.0311
   36MOL   H40424274   7.811   8.134   1.498 -0.2856 -0.4871 -2.4781
   36MOL   H40524275   7.879   8.281   1.319 -0.5617 -0.9980 -0.2896
   36MOL   H40624276   7.530   0.212   1.378  0.7987  1.2315 -0.1149
   36MOL   H40724277   7.450   0.047   1.561  1.1143  1.0116  2.3882
   36MOL   H40824278   7.416   8.107   1.438 -4.0302 -1.3772 -0.9344
   36MOL   H40924279   7.325   7.898   1.367 -0.1751 -0.8931 -0.0654
   36MOL   C41024280   7.608   0.523   1.207  0.4279  0.2127  0.5076
   36MOL   C41124281   7.639   0.389   1.183 -0.3396 -0.0714 -0.7614
   36MOL   C41224282   7.734   0.326   1.264 -0.0923  0.2993  0.2632
   36MOL   O41324283   7.753   0.192   1.244 -0.0973  0.2667 -0.0172
   36MOL   C41424284   7.803   0.405   1.365 -0.3587 -0.4926 -0.2921
   36MOL   C41524285   7.773   0.545   1.384 -0.3731 -0.3651 -0.3844
   36MOL   C41624286   7.676   0.603   1.300 -0.4236  0.5536 -0.8022
   36MOL   C41724287   7.632   0.741   1.319  0.9893 -0.0722 -0.1928
   36MOL   O41824288   7.535   0.762   1.398 -0.3127  0.0326  0.6406
   36MOL   C41924289   7.707   0.849   1.254 -0.0750 -0.2994  0.2109
   36MOL   C42024290   7.684   0.978   1.290 -0.7348 -0.0828 -0.0546
   36MOL   C42124291   7.751   1.085   1.231 -0.3289 -0.0615 -0.5678
   36MOL   C42224292   7.838   1.067   1.120  0.2593 -0.0083  0.5019
   36MOL   O42324293   7.907   1.168   1.056 -0.4081  0.4540 -0.2429
   36MOL   C42424294   7.843   1.280   1.018 -0.4723 -0.6382 -0.2839
   36MOL   C42524295   7.875   1.403   1.082  0.2391 -0.3952 -0.5554
   36MOL   C42624296   7.842   1.524   1.023 -0.9739  0.7265 -0.4585
   36MOL   C42724297   7.760   1.527   0.904 -0.6648  0.3163  0.0558
   36MOL   C42824298   7.724   1.406   0.848  0.6972  0.2155  0.2526
   36MOL   C42924299   7.753   1.283   0.907 -0.4218 -0.0218  0.4617
   36MOL   C43024300   7.863   0.930   1.091 -0.3154 -0.2184  1.4197
   36MOL   C43124301   7.798   0.821   1.156  0.1764 -0.4631 -0.5677
   36MOL   H43224302   7.526   0.572   1.156 -0.7746 -2.0962  0.1593
   36MOL   H43324303   7.582   0.333   1.110 -1.5690 -1.2696  1.0660
   36MOL   H43424304   7.873   0.359   1.433 -0.9207  0.5152  0.9790
   36MOL   H43524305   7.830   0.610   1.450  0.0775 -1.7497  0.6116
   36MOL   H43624306   7.614   0.994   1.371 -1.5697  3.4938 -1.3936
   36MOL   H43724307   7.730   1.184   1.270 -0.9477 -0.6380  0.6109
   36MOL   H43824308   7.947   1.397   1.162 -1.5914 -1.2676  1.0739
   36MOL   H43924309   7.859   1.617   1.076 -0.6305 -0.9759  2.5310
   36MOL   H44024310   7.664   1.408   0.758 -1.6161  0.3447  1.7425
   36MOL   H44124311   7.726   1.190   0.859  2.4263  0.1650 -1.6727
   36MOL   H44224312   7.938   0.915   1.014  0.1225  2.2800  1.3409
   36MOL   H44324313   7.832   0.723   1.127  1.7477  0.0035 -0.3222
   36MOL   C44424314   7.976   1.926   0.780  0.6941 -0.0172 -0.1053
   36MOL   C44524315   7.906   1.803   0.758 -0.0550 -0.5080 -0.2398
   36MOL   C44624316   7.803   1.757   0.846 -0.4407 -0.2354  0.5574
   36MOL   O44724317   7.731   1.639   0.831  0.3217  0.3476 -0.6475
   36MOL   C44824318   7.776   1.837   0.961 -0.3916  0.5275  0.3078
   36MOL   C44924319   7.852   1.952   0.987 -0.2154  0.3100  0.0226
   36MOL   C45024320   7.952   2.001   0.899 -0.2472  0.1933  0.0456
   36MOL   C45124321   8.025   2.135   0.921 -0.1788  0.4108 -0.0940
   36MOL   O45224322   8.013   2.197   1.028  0.0957 -0.6215  0.0862
   36MOL   C45324323   8.129   2.170   0.819  0.6491 -0.5110  0.6569
   36MOL   C45424324   8.105   2.248   0.707  0.1374  0.0092  0.4637
   36MOL   C45524325   8.206   2.280   0.615 -0.0836 -0.0079  0.1940
   36MOL   C45624326   0.022   2.236   0.639 -0.3985 -0.4474  0.3237
   36MOL   O45724327   0.120   2.275   0.545  0.2866 -0.4110 -0.3827
   36MOL   C45824328   0.203   2.178   0.494  0.2201  0.4335 -0.9538
   36MOL   C45924329   0.318   2.148   0.562 -0.2184  0.2319 -0.0687
   36MOL   C46024330   0.401   2.043   0.523  0.4665 -0.3279  0.2177
   36MOL   C46124331   0.368   1.965   0.415  0.2800 -0.5032 -0.2510
   36MOL   C46224332   0.252   1.998   0.339 -0.1292  0.1269 -0.0082
   36MOL   C46324333   0.174   2.104   0.380  0.2780 -0.0298  0.6047
   36MOL   C46424334   0.052   2.140   0.739 -0.1368  0.7310 -0.2282
   36MOL   C46524335   8.260   2.112   0.834 -0.1383 -0.0844 -0.7073
   36MOL   H46624336   8.051   1.950   0.706  1.7488 -0.7063  0.7242
   36MOL   H46724337   7.927   1.743   0.671  1.1358 -0.2218 -0.1639
   36MOL   H46824338   7.710   1.809   1.041  0.0590 -1.7097 -0.0815
   36MOL   H46924339   7.829   2.014   1.073 -1.3701  1.3421 -1.0086
   36MOL   H47024340   8.002   2.279   0.694 -0.1079 -0.7482  0.5914
   36MOL   H47124341   8.194   2.343   0.528 -1.2516 -1.7948 -0.9571
   36MOL   H47224342   0.350   2.207   0.646  2.5739  1.7192 -2.0948
   36MOL   H47324343   0.489   2.029   0.584 -1.3427 -1.2744  2.6976
   36MOL   H47424344   0.220   1.932   0.259  0.0545 -1.8964  1.5665
   36MOL   H47524345   0.086   2.118   0.319  1.1068  0.7029 -0.4504
   36MOL   H47624346   0.150   2.100   0.761  1.2308  4.3215  0.7052
   36MOL   H47724347   8.283   2.061   0.926 -0.8474  0.2606 -0.3287
   36MOL   C47824348   0.673   1.812   0.102  0.4481 -0.2246 -0.2439
   36MOL   C47924349   0.569   1.795   0.193  0.1553 -0.1776 -0.0722
   36MOL   C48024350   0.540   1.892   0.285 -0.0427 -1.2787 -0.0194
   36MOL   O48124351   0.448   1.862   0.381 -0.2704 -0.5781  0.1295
   36MOL   C48224352   0.617   2.016   0.282 -0.5355 -0.1194  0.2776
   36MOL   C48324353   0.730   2.032   0.193  0.6053  0.4178 -0.4405
   36MOL   C48424354   0.754   1.928   0.096 -0.2922 -1.0511 -0.1891
   36MOL   C48524355   0.870   1.924   8.311 -0.3849  0.1203  0.1970
   36MOL   O48624356   0.911   1.818   8.268 -0.0734  0.2059 -0.4451
   36MOL   C48724357   0.940   2.047   8.262  0.5417 -0.6264  0.3109
   36MOL   C48824358   1.073   2.043   8.205 -0.1617 -0.0400  0.4158
   36MOL   C48924359   1.131   2.150   8.142 -0.0432 -0.2724 -0.3193
   36MOL   C49024360   1.059   2.279   8.124 -0.5618  0.3806 -0.4697
   36MOL   O49124361   1.127   2.378   8.059 -0.0107 -0.6519  0.2103
   36MOL   C49224362   1.068   2.506   8.058 -0.7391 -0.1496  0.7102
   36MOL   C49324363   0.966   2.530   7.967  0.5910 -0.0697 -0.1534
   36MOL   C49424364   0.910   2.661   7.962 -0.7729  0.3012 -0.9429
   36MOL   C49524365   0.964   2.766   8.038 -0.8020  0.2699 -0.0647
   36MOL   C49624366   1.066   2.738   8.130  0.3912  0.1212  0.2184
   36MOL   C49724367   1.111   2.604   8.152  0.1002  0.0796  0.3433
   36MOL   C49824368   0.929   2.284   8.180  0.0622 -0.0314 -0.0290
   36MOL   C49924369   0.872   2.165   8.243 -0.2709  0.6089 -0.0120
   36MOL   H50024370   0.694   1.728   0.037 -0.4819 -0.9730  0.4095
   36MOL   H50124371   0.505   1.708   0.186 -1.1503  0.4339  3.1263
   36MOL   H50224372   0.589   2.102   0.341 -0.1999  0.6144 -0.6345
   36MOL   H50324373   0.788   2.122   0.180  2.7092 -0.7551  0.5907
   36MOL   H50424374   1.118   1.947   8.186  2.1108  1.0070  0.3217
   36MOL   H50524375   1.231   2.138   8.103 -0.9963  0.1049 -3.0145
   36MOL   H50624376   0.921   2.450   7.910 -0.3073  0.4815 -0.2387
   36MOL   H50724377   0.820   2.691   7.912 -1.0931 -0.5101 -0.8596
   36MOL   H50824378   1.115   2.816   8.186  0.8275  0.9178 -1.2457
   36MOL   H50924379   1.181   2.587   8.232  1.6051  2.2031 -0.4750
   36MOL   H51024380   0.883   2.381   8.194  2.2345  1.2346 -1.4732
   36MOL   H51124381   0.779   2.184   8.295  1.1683  0.7316  2.5690
   36MOL   C51224382   0.957   2.997   7.676  0.0049 -0.1320 -0.0476
   36MOL   C51324383   1.000   2.951   7.805 -0.2710 -0.2473 -0.2088
   36MOL   C51424384   0.909   2.960   7.914  0.1674  0.1216 -0.2810
   36MOL   O51524385   0.928   2.899   8.034 -0.1351 -0.0215  0.0185
   36MOL   C51624386   0.777   3.008   7.897 -0.2890  0.6174  0.0197
   36MOL   C51724387   0.741   3.060   7.772 -0.4951 -0.3417 -0.1730
   36MOL   C51824388   0.829   3.047   7.666  0.0195  0.0650 -0.1239
   36MOL   C51924389   0.788   3.099   7.529  0.0263 -0.5982  0.5103
   36MOL   O52024390   0.841   3.205   7.481  0.1931  0.1484 -0.4244
   36MOL   C52124391   0.657   3.056   7.471 -1.3022  0.5200 -0.0983
   36MOL   C52224392   0.609   2.927   7.512  0.5155  0.0759  0.6286
   36MOL   C52324393   0.483   2.884   7.467  0.3195 -0.0291  0.3447
   36MOL   C52424394   0.421   2.955   7.357  0.1267 -1.1386  0.4298
   36MOL   O52524395   0.304   2.897   7.304 -0.8532  0.4707  0.5727
   36MOL   C52624396   0.196   2.973   7.274  0.6926 -0.7215  0.0951
   36MOL   C52724397   0.124   2.936   7.162  0.3764 -0.1565  0.4669
   36MOL   C52824398   0.004   3.009   7.133 -0.4561  0.2104  0.0207
   36MOL   C52924399   8.287   3.127   7.202  0.2893 -0.1336 -0.3385
   36MOL   C53024400   0.053   3.165   7.316 -0.2798 -0.1562  0.2889
   36MOL   C53124401   0.160   3.084   7.357  0.1588  0.6191  0.4243
   36MOL   C53224402   0.475   3.082   7.311  0.1223 -0.5138 -0.0746
   36MOL   C53324403   0.593   3.129   7.369  0.0140  0.1421 -0.1493
   36MOL   H53424404   1.027   2.988   7.595  0.6900  1.4540  0.3427
   36MOL   H53524405   1.100   2.913   7.816  0.3873  0.6071 -3.0116
   36MOL   H53624406   0.707   3.013   7.979  2.1009 -0.1848  2.1617
   36MOL   H53724407   0.640   3.098   7.762 -0.5983 -0.7243 -0.5875
   36MOL   H53824408   0.663   2.876   7.590  1.5285 -1.8625 -1.3062
   36MOL   H53924409   0.447   2.786   7.496  2.2984  0.1896  3.8907
   36MOL   H54024410   0.160   2.848   7.111 -2.2967 -1.5782  0.9156
   36MOL   H54124411   8.259   2.976   7.048  0.9191 -2.3055  0.0022
   36MOL   H54224412   0.030   3.255   7.371  1.7150  0.6835 -0.2222
   36MOL   H54324413   0.220   3.116   7.442 -0.2084  0.1492  0.8640
   36MOL   H54424414   0.437   3.142   7.231  4.0130 -0.8897 -2.3521
   36MOL   H54524415   0.637   3.217   7.324 -2.5877  0.4959 -2.1532
   36MOL   C54624416   8.159   3.273   6.817  0.6276  0.0606 -0.6044
   36MOL   C54724417   8.212   3.240   6.945 -0.0877  0.2520  0.6424
   36MOL   C54824418   8.128   3.207   7.049 -0.4301  0.4999 -0.3740
   36MOL   O54924419   8.178   3.204   7.175 -0.3093 -0.6383  0.1910
   36MOL   C55024420   7.993   3.188   7.018 -0.3180  0.2106 -0.0583
   36MOL   C55124421   7.942   3.221   6.891  0.6996 -0.3784 -0.5864
   36MOL   C55224422   8.022   3.270   6.787 -0.3336 -0.4455 -0.3021
   36MOL   C55324423   7.971   3.296   6.646  0.2159 -0.3380  0.4257
   36MOL   O55424424   8.033   3.268   6.543  0.2629 -0.3054  0.5596
   36MOL   C55524425   7.844   3.364   6.639 -0.1580 -0.0229 -0.0750
   36MOL   C55624426   7.739   3.318   6.548 -0.2952  0.4126 -0.2496
   36MOL   C55724427   7.617   3.385   6.540 -0.2789 -0.3919  0.0170
   36MOL   C55824428   7.598   3.504   6.615  0.7847  0.4063 -0.0382
   36MOL   O55924429   7.476   3.568   6.604  0.5237 -0.0938 -0.0339
   36MOL   C56024430   7.409   3.603   6.716 -0.4146  0.9334 -0.1610
   36MOL   C56124431   7.429   3.729   6.774  0.3272 -0.5820 -0.0776
   36MOL   C56224432   7.366   3.764   6.896 -0.5748  0.2646 -0.5378
   36MOL   C56324433   7.265   3.680   6.949 -0.5268 -0.0542  0.3750
   36MOL   C56424434   7.234   3.567   6.880 -0.1373  0.2501  0.1934
   36MOL   C56524435   7.314   3.517   6.778 -0.6932 -0.7278  0.6420
   36MOL   C56624436   7.700   3.556   6.693 -0.1734 -0.1779  0.2139
   36MOL   C56724437   7.818   3.488   6.705  0.5081  0.3480 -0.8223
   36MOL   H56824438   8.219   3.312   6.736 -1.1815 -0.3128 -2.1479
   36MOL   H56924439   0.004   3.232   6.969  0.1703  1.6219 -0.0388
   36MOL   H57024440   7.936   3.149   7.101 -0.9530  1.5506  0.1629
   36MOL   H57124441   7.836   3.199   6.889  0.2235  1.8039 -0.8768
   36MOL   H57224442   7.746   3.222   6.500 -0.4913  0.0562  0.4245
   36MOL   H57324443   7.534   3.355   6.478 -2.4161  0.4130  2.3868
   36MOL   H57424444   7.511   3.793   6.746  0.3005 -0.1902  0.7031
   36MOL   H57524445   7.394   3.857   6.943  0.7039 -0.8441  0.9528
   36MOL   H57624446   7.162   3.505   6.930 -1.7872  1.2008 -0.9569
   36MOL   H57724447   7.286   3.419   6.742 -3.2989  0.7017 -1.4012
   36MOL   H57824448   7.697   3.655   6.737 -2.0054 -1.1254  2.3026
   36MOL   H57924449   7.898   3.539   6.757 -1.3420  1.6574  0.8158
   36MOL   C58024450   7.150   4.007   7.293 -0.5371 -0.1943 -0.3640
   36MOL   C58124451   7.170   3.882   7.240  0.4927 -0.0692 -0.5270
   36MOL   C58224452   7.167   3.848   7.101  0.7304  0.3421 -0.2414
   36MOL   O58324453   7.193   3.719   7.064  0.3496 -0.0542  0.2358
   36MOL   C58424454   7.147   3.950   7.007  0.3195  0.0153  0.0218
   36MOL   C58524455   7.117   4.081   7.063 -0.0055 -0.4040  0.3424
   36MOL   C58624456   7.125   4.108   7.203  0.0206 -0.0855 -0.5162
   36MOL   C58724457   7.121   4.241   7.266  0.5526  0.5535 -0.2226
   36MOL   O58824458   7.050   4.256   7.368 -0.1944 -0.5816  0.0618
   36MOL   C58924459   7.213   4.352   7.221  1.0192 -0.7224  0.2983
   36MOL   C59024460   7.330   4.323   7.143  0.2513 -0.4296 -0.0541
   36MOL   C59124461   7.400   4.432   7.101  0.4148  0.8675 -0.4118
   36MOL   C59224462   7.362   4.564   7.127 -0.0584 -0.3651  0.2995
   36MOL   O59324463   7.448   4.664   7.090  0.6387 -0.1132 -0.4538
   36MOL   C59424464   7.465   4.758   7.192 -0.1844  0.6332 -0.1289
   36MOL   C59524465   7.461   4.899   7.170 -1.0819 -0.2034 -0.6466
   36MOL   C59624466   7.468   4.993   7.272  1.0919 -0.1783 -0.5171
   36MOL   C59724467   7.484   4.953   7.404 -0.1420  0.2847 -0.0816
   36MOL   C59824468   7.511   4.815   7.429  0.2210  0.7465  0.4636
   36MOL   C59924469   7.505   4.721   7.328  0.8774 -0.0357  0.3403
   36MOL   C60024470   7.244   4.588   7.199  0.3369 -0.5899 -0.9599
   36MOL   C60124471   7.176   4.486   7.257 -0.5260  0.7223  0.8154
   36MOL   H60224472   7.159   4.040   7.395 -1.1438  1.1112 -0.7177
   36MOL   H60324473   7.181   3.803   7.313  1.9852  1.8601  1.4339
   36MOL   H60424474   7.151   3.930   6.901  0.2052  2.0563 -0.4065
   36MOL   H60524475   7.093   4.165   6.999 -0.6577 -0.2025  0.8420
   36MOL   H60624476   7.373   4.224   7.137 -0.0856 -0.4602 -2.1467
   36MOL   H60724477   7.487   4.417   7.038 -0.5785 -2.1428 -1.1535
   36MOL   H60824478   7.438   4.928   7.068  1.6241  1.4910 -0.8350
   36MOL   H60924479   7.453   5.098   7.249 -1.6825 -0.6894 -1.2377
   36MOL   H61024480   7.527   4.781   7.530 -0.0859 -1.3979 -0.1965
   36MOL   H61124481   7.520   4.617   7.352 -1.9056 -0.4100  0.6557
   36MOL   H61224482   7.207   4.689   7.208  1.3290 -0.1489 -1.7192
   36MOL   H61324483   7.086   4.503   7.314 -0.2390 -0.3985  1.6336
   36MOL   C61424484   7.170   5.215   7.506 -1.3253 -0.1130 -0.2513
   36MOL   C61524485   7.262   5.115   7.528 -0.6624 -0.8277 -0.2901
   36MOL   C61624486   7.399   5.136   7.515 -0.4135 -0.5163 -0.8939
   36MOL   O61724487   7.488   5.036   7.513  0.7095 -0.3016  0.0841
   36MOL   C61824488   7.442   5.266   7.488 -0.3548 -0.2789 -0.3237
   36MOL   C61924489   7.352   5.370   7.463  0.6069 -0.2451 -0.0884
   36MOL   C62024490   7.212   5.344   7.469 -0.1055 -0.4943 -0.0605
   36MOL   C62124491   7.104   5.449   7.437 -0.4788  0.3243  0.1977
   36MOL   O62224492   7.125   5.538   7.356 -0.5012  0.0353 -0.1772
   36MOL   C62324493   6.975   5.438   7.513 -0.8596  0.4950  0.3297
   36MOL   C62424494   6.989   5.448   7.652 -0.3871 -0.1425  0.2015
   36MOL   C62524495   6.871   5.438   7.732  0.4372 -0.3255 -0.1615
   36MOL   C62624496   6.750   5.403   7.671 -0.9118  0.3473 -0.0210
   36MOL   O62724497   6.632   5.388   7.740  0.5242  0.9830 -0.1279
   36MOL   C62824498   6.598   5.467   7.850 -0.7387  1.0059  0.0948
   36MOL   C62924499   6.636   5.430   7.979  0.2272  0.2489  0.0759
   36MOL   C63024500   6.589   5.502   8.092  0.1352 -0.5352  0.5562
   36MOL   C63124501   6.496   5.608   8.073  0.3528  0.0571 -0.5987
   36MOL   C63224502   6.451   5.643   7.943  0.4130  0.0176  0.0227
   36MOL   C63324503   6.504   5.572   7.828  0.2690 -0.5422 -0.2306
   36MOL   C63424504   6.740   5.397   7.530  0.3241 -0.0737  0.2365
   36MOL   C63524505   6.853   5.407   7.450 -0.7559  0.6481 -0.5309
   36MOL   H63624506   7.064   5.197   7.508 -1.3881 -0.2138 -2.6172
   36MOL   H63724507   7.232   5.012   7.545 -1.1724 -0.6373 -0.0482
   36MOL   H63824508   7.547   5.291   7.489 -0.2141 -0.7892  1.9460
   36MOL   H63924509   7.383   5.469   7.434 -2.4064  0.8274  0.1560
   36MOL   H64024510   7.079   5.494   7.689 -0.1233  0.1394 -0.7973
   36MOL   H64124511   6.872   5.463   7.837 -2.1030  1.0319 -0.4343
   36MOL   H64224512   6.702   5.346   7.990 -1.3215 -0.8230  1.4992
   36MOL   H64324513   6.614   5.469   8.192  0.6042 -0.2726  0.5252
   36MOL   H64424514   6.386   5.728   7.929 -2.5796 -2.4883 -1.7366
   36MOL   H64524515   6.480   5.595   7.725  0.9522  1.4682  0.0518
   36MOL   H64624516   6.646   5.366   7.488  0.0387  1.6831 -0.4730
   36MOL   H64724517   6.839   5.406   7.343 -0.9666 -1.0827 -0.5126
   36MOL   C64824518   6.722   5.910   8.266  0.3418 -0.0089 -0.7629
   36MOL   C64924519   6.648   5.800   8.220 -0.2863  0.4132 -0.5366
   36MOL   C65024520   6.508   5.799   8.207  0.2034 -0.6501 -0.5935
   36MOL   O65124521   6.442   5.679   8.175  0.4932 -0.0374  0.0103
   36MOL   C65224522   6.442   5.923   8.233  0.3661 -0.4957 -0.9325
   36MOL   C65324523   6.517   6.032   8.277  0.0978 -0.6748 -0.0543
   36MOL   C65424524   6.654   6.028   8.304  0.1900 -0.9979  0.3641
   36MOL   C65524525   6.726   6.146   0.031  0.1498 -0.5294  0.3261
   36MOL   O65624526   6.722   6.247   8.272  0.0536  0.1501  0.3431
   36MOL   C65724527   6.814   6.129   0.158  0.5414 -0.9436 -0.7876
   36MOL   C65824528   6.765   6.063   0.273  0.6158  0.7849  0.2156
   36MOL   C65924529   6.843   6.050   0.392  0.2688 -0.7565  0.5165
   36MOL   C66024530   6.978   6.092   0.393 -0.0023  0.4802 -0.6187
   36MOL   O66124531   7.056   6.066   0.503 -0.2510  0.0169  0.9460
   36MOL   C66224532   7.110   6.172   0.563 -0.5097  0.2233 -0.2589
   36MOL   C66324533   7.025   6.256   0.631 -0.2474 -0.0422 -0.7391
   36MOL   C66424534   7.083   6.362   0.709  0.1143  0.4982  0.5129
   36MOL   C66524535   7.222   6.389   0.710  0.7504 -0.2552  0.0782
   36MOL   C66624536   7.306   6.298   0.638 -0.2794 -0.1710 -0.1673
   36MOL   C66724537   7.248   6.193   0.567 -0.0569  0.1292  0.0942
   36MOL   C66824538   7.029   6.162   0.278 -0.2938  0.6271 -0.0638
   36MOL   C66924539   6.951   6.178   0.162  0.0417  0.2932 -0.5897
   36MOL   H67024540   6.830   5.910   8.270  0.3615 -1.5675 -1.0020
   36MOL   H67124541   6.696   5.716   8.173 -2.7991 -1.1524 -0.3696
   36MOL   H67224542   6.338   5.946   8.213 -0.3497 -0.5503  2.4170
   36MOL   H67324543   6.461   6.123   8.292  0.8449 -0.4202  1.2990
   36MOL   H67424544   6.661   6.037   0.260  0.6894  2.1753 -3.8203
   36MOL   H67524545   6.806   5.991   0.475  1.6117 -1.9428  0.2951
   36MOL   H67624546   6.919   6.236   0.634  0.2306 -2.7162 -0.0032
   36MOL   H67724547   7.013   6.428   0.758 -2.9798 -0.8401 -1.8744
   36MOL   H67824548   7.413   6.309   0.646 -0.4211 -0.6069  3.1310
   36MOL   H67924549   7.318   6.125   0.521 -0.7680  1.4587 -3.0498
   36MOL   H68024550   7.133   6.190   0.279 -0.0298 -0.1936 -1.8763
   36MOL   H68124551   6.993   6.221   0.072  0.6454 -1.1064 -0.9913
   36MOL   H68224552   7.271   6.463   0.771 -0.6176  1.1766 -0.5438
   37MOL     C124553   4.331   4.950   4.562  0.7195  0.2706 -0.5578
   37MOL     C224554   4.453   4.915   4.501 -0.4742 -0.3388 -0.6397
   37MOL     C324555   4.454   4.810   4.412 -0.5166 -0.6254  0.6242
   37MOL     O424556   4.573   4.788   4.356 -0.7134 -0.5560 -0.2467
   37MOL     C524557   4.343   4.735   4.389  0.3889 -0.4023 -0.4271
   37MOL     C624558   4.221   4.759   4.461  1.0454 -0.7774  0.2484
   37MOL     C724559   4.211   4.875   4.540 -0.0828 -0.2500  0.2992
   37MOL     C824560   4.084   4.920   4.607 -0.0696  0.5779 -0.0113
   37MOL     O924561   3.976   4.883   4.563 -0.4094 -0.0984 -0.7171
   37MOL    C1024562   4.107   5.013   4.718 -0.2423 -0.5184 -0.2973
   37MOL    C1124563   4.125   5.149   4.690  0.5421 -0.6950  0.2469
   37MOL    C1224564   4.135   5.254   4.788  1.4852  0.1273  0.5066
   37MOL    C1324565   4.135   5.216   4.920  0.4418  1.1324 -0.3116
   37MOL    O1424566   4.149   5.312   5.013  0.0292 -0.7259 -0.8995
   37MOL    C1524567   4.254   5.310   5.097 -0.0175  0.0332 -0.2166
   37MOL    C1624568   4.381   5.303   5.040  0.1530 -0.0630  0.2519
   37MOL    C1724569   4.494   5.307   5.129  0.0460  0.1338  0.6512
   37MOL    C1824570   4.475   5.319   5.268  0.6245  0.4706 -0.1293
   37MOL    C1924571   4.346   5.342   5.321  0.6614 -0.8977 -0.5741
   37MOL    C2024572   4.237   5.326   5.234  0.0550  0.0333  0.7271
   37MOL    C2124573   4.112   5.079   4.955 -0.5336 -0.5848  0.7174
   37MOL    C2224574   4.101   4.979   4.857  0.2143 -0.1477  0.3517
   37MOL    H2324575   4.333   5.042   4.619 -0.4929 -0.8634  1.3676
   37MOL    H2424576   4.539   4.979   4.511 -0.5099 -0.2670 -0.7938
   37MOL    H2524577   4.338   4.651   4.322 -3.2321  1.0180 -2.0740
   37MOL    H2624578   4.127   4.709   4.447  0.8713 -0.2036 -0.6423
   37MOL    H2724579   4.122   5.180   4.586  0.2219  1.6410  0.9187
   37MOL    H2824580   4.130   5.356   4.755 -4.0165  0.4798  1.9350
   37MOL    H2924581   4.393   5.284   4.935  2.5868 -3.6614  1.0830
   37MOL    H3024582   4.589   5.300   5.079 -1.0980 -0.8707 -1.4729
   37MOL    H3124583   4.327   5.346   5.427  0.1150  0.7425 -0.7147
   37MOL    H3224584   4.139   5.318   5.279 -0.0232  0.6810  0.6716
   37MOL    H3324585   4.097   5.051   5.058 -2.7625 -0.2731  0.5031
   37MOL    H3424586   4.101   4.876   4.890 -1.9252 -0.2215  0.1729
   37MOL    H3524587   4.594   4.706   4.314  1.9971  0.6136 -1.2920
   37MOL    C3624588   4.501   5.251   5.703 -0.1856  0.2338 -0.0803
   37MOL    C3724589   4.540   5.239   5.567 -0.4188 -0.0128  0.0021
   37MOL    C3824590   4.576   5.348   5.489 -0.2476  0.0538  0.2098
   37MOL    O3924591   4.588   5.333   5.351 -0.2802  0.1119  0.4557
   37MOL    C4024592   4.584   5.473   5.547  0.0192  0.2786  0.1965
   37MOL    C4124593   4.545   5.488   5.684 -0.4951 -0.1431 -0.2411
   37MOL    C4224594   4.494   5.383   5.761 -0.0230  0.2021 -0.3799
   37MOL    C4324595   4.447   5.409   5.898 -0.8114 -0.6919 -0.5727
   37MOL    O4424596   4.470   5.511   5.959  0.1550  0.2748 -0.5204
   37MOL    C4524597   4.348   5.315   5.953 -0.1681 -0.0508 -0.2591
   37MOL    C4624598   4.241   5.265   5.876  1.1152  0.0204 -0.6670
   37MOL    C4724599   4.156   5.166   5.930 -0.5700  0.1931 -0.6164
   37MOL    C4824600   4.184   5.114   6.058 -0.0999 -0.3150 -0.2058
   37MOL    O4924601   4.105   5.017   6.101  0.1123 -0.7446  0.1251
   37MOL    C5024602   4.165   4.896   6.110 -0.3198 -0.1520  0.1795
   37MOL    C5124603   4.184   4.808   6.001  0.6268  0.3696  0.5492
   37MOL    C5224604   4.267   4.699   6.011  0.6364 -0.6886  0.5178
   37MOL    C5324605   4.317   4.658   6.134  1.0119  0.4343 -0.7195
   37MOL    C5424606   4.304   4.746   6.247  0.0314  0.2967  0.1477
   37MOL    C5524607   4.225   4.862   6.233  0.0480  0.2126  0.4915
   37MOL    C5624608   4.274   5.182   6.144  0.9958  0.5806  0.4623
   37MOL    C5724609   4.357   5.279   6.087 -0.3753 -0.5511 -0.0414
   37MOL    H5824610   4.474   5.164   5.761 -0.7811  0.4737  0.0080
   37MOL    H5924611   4.542   5.141   5.521  1.0177  0.9104 -1.9927
   37MOL    H6024612   4.603   5.555   5.478  2.1664  0.0483  0.4825
   37MOL    H6124613   4.559   5.590   5.717  2.1087 -0.4586 -0.2628
   37MOL    H6224614   4.225   5.315   5.782  1.7575  0.7259 -0.4111
   37MOL    H6324615   4.069   5.138   5.873 -0.2113 -2.4921  0.0734
   37MOL    H6424616   4.139   4.831   5.905  0.3121 -1.4854  0.2505
   37MOL    H6524617   4.279   4.645   5.918  1.2269 -1.5527  1.0828
   37MOL    H6624618   4.363   4.716   6.333 -1.8149 -2.5814  0.4801
   37MOL    H6724619   4.203   4.923   6.320  1.1291  0.3586  0.6620
   37MOL    H6824620   4.291   5.161   6.248  1.0980  1.4890  0.6329
   37MOL    H6924621   4.438   5.314   6.150 -0.1570 -2.3996  0.7388
   37MOL    C7024622   4.679   4.531   6.374  0.4521  0.2361  0.0965
   37MOL    C7124623   4.610   4.556   6.256 -0.4226  0.0236  0.1754
   37MOL    C7224624   4.469   4.525   6.246  0.1715  0.0671  0.3830
   37MOL    O7324625   4.401   4.551   6.133  0.4186  0.6216 -1.0881
   37MOL    C7424626   4.413   4.452   6.355  0.4741 -0.3943  0.0604
   37MOL    C7524627   4.485   4.433   6.476 -0.6280 -0.7582 -0.3262
   37MOL    C7624628   4.617   4.469   6.491  0.0531 -0.8406  0.3367
   37MOL    C7724629   4.696   4.454   6.619  0.6743  0.8607 -0.1639
   37MOL    O7824630   4.652   4.376   6.702 -0.3912 -0.1197  0.2902
   37MOL    C7924631   4.825   4.521   6.637 -0.4132 -0.3934 -0.1601
   37MOL    C8024632   4.942   4.445   6.675 -0.7866 -0.1160  0.2871
   37MOL    C8124633   5.069   4.501   6.686 -0.3866  0.2121  0.6535
   37MOL    C8224634   5.091   4.636   6.654  0.4704  0.2234 -0.7866
   37MOL    O8324635   5.209   4.701   6.656  0.1245  0.1559  0.3067
   37MOL    C8424636   5.323   4.636   6.697  0.3554  0.5854  1.3693
   37MOL    C8524637   5.364   4.623   6.834  0.3131 -0.2355  0.0777
   37MOL    C8624638   5.487   4.558   6.864 -0.3595 -0.3132 -0.4391
   37MOL    C8724639   5.563   4.503   6.759  0.6016 -0.3290  0.1594
   37MOL    C8824640   5.514   4.505   6.626 -0.3833  0.4769  0.2380
   37MOL    C8924641   5.394   4.570   6.597 -0.1017 -0.1378  0.1913
   37MOL    C9024642   4.974   4.710   6.617 -0.0567 -0.1123 -0.5899
   37MOL    C9124643   4.845   4.658   6.623  0.3726 -0.2125  0.8104
   37MOL    H9224644   4.783   4.562   6.366  0.2915  0.6342 -0.5387
   37MOL    H9324645   4.653   4.624   6.184 -1.5660  1.2636  0.6423
   37MOL    H9424646   4.312   4.412   6.355 -0.1687  1.1869 -1.1793
   37MOL    H9524647   4.434   4.394   6.563 -0.4203 -0.8186 -0.2302
   37MOL    H9624648   4.928   4.342   6.704 -0.1675 -0.6264 -1.1665
   37MOL    H9724649   5.147   4.437   6.725  0.7891  0.0881 -1.7950
   37MOL    H9824650   5.309   4.666   6.916  1.3525 -0.6161  0.9888
   37MOL    H9924651   5.532   4.557   6.963 -0.2602  1.4271 -0.4531
   37MOL   H10024652   5.570   4.468   6.541  0.4843  0.7633  0.6710
   37MOL   H10124653   5.362   4.573   6.494  1.3916 -3.5061 -0.4656
   37MOL   H10224654   4.984   4.814   6.591  1.5404 -0.0150  0.3683
   37MOL   H10324655   4.765   4.726   6.598 -0.1044 -1.3754 -0.8611
   37MOL   C10424656   5.651   4.102   6.906 -0.2410 -0.4235  0.0126
   37MOL   C10524657   5.612   4.237   6.876 -0.5021  0.0285 -0.0627
   37MOL   C10624658   5.707   4.328   6.828 -0.7261  0.2205 -0.0910
   37MOL   O10724659   5.690   4.454   6.779 -0.1061  0.0717  0.4577
   37MOL   C10824660   5.839   4.284   6.818 -0.1196  0.0843  0.5619
   37MOL   C10924661   5.876   4.155   6.853  0.5598  0.0012  0.8687
   37MOL   C11024662   5.784   4.057   6.891 -0.2854 -0.2284 -1.0826
   37MOL   C11124663   5.832   3.917   6.919  0.1732 -0.0301 -0.2332
   37MOL   O11224664   5.941   3.865   6.885 -0.1605 -0.2528  0.2355
   37MOL   C11324665   5.741   3.830   6.995 -0.4539 -0.6065 -0.4654
   37MOL   C11424666   5.694   3.867   7.117 -0.3657  0.4070 -0.3727
   37MOL   C11524667   5.612   3.773   7.195  0.0723 -0.2097 -0.2676
   37MOL   C11624668   5.581   3.651   7.134 -0.0036  0.6960  0.0987
   37MOL   O11724669   5.506   3.563   7.210 -0.6700  0.1875  0.0907
   37MOL   C11824670   5.584   3.473   7.276 -0.2177 -0.1665  0.3526
   37MOL   C11924671   5.639   3.510   7.402  0.2113  0.3999  0.0138
   37MOL   C12024672   5.730   3.423   7.463  0.1649  0.5452 -0.0328
   37MOL   C12124673   5.767   3.295   7.406  0.6692  0.1959  0.0764
   37MOL   C12224674   5.694   3.257   7.290  0.1857  0.2136  0.2391
   37MOL   C12324675   5.607   3.344   7.224 -0.4776 -0.6758  0.1191
   37MOL   C12424676   5.640   3.604   7.017 -0.6636 -0.2829  0.3010
   37MOL   C12524677   5.714   3.699   6.948  0.0178 -0.0652  0.2008
   37MOL   H12624678   5.566   4.040   6.932  0.1566 -1.6889 -1.5775
   37MOL   H12724679   5.507   4.263   6.866  0.1419  3.2069  0.7283
   37MOL   H12824680   5.921   4.345   6.783 -0.0637 -1.0069 -1.2784
   37MOL   H12924681   5.979   4.122   6.847 -0.1022 -1.9713  0.0046
   37MOL   H13024682   5.715   3.964   7.159  0.9313 -0.2695  0.5706
   37MOL   H13124683   5.568   3.805   7.288  1.1396  0.1877  0.1019
   37MOL   H13224684   5.605   3.597   7.455 -2.7188 -0.8009  0.1532
   37MOL   H13324685   5.778   3.458   7.553 -1.2067  0.7994  0.6260
   37MOL   H13424686   5.710   3.161   7.244  0.3496  0.3357  0.0401
   37MOL   H13524687   5.555   3.306   7.137  0.4038 -1.8558  0.0985
   37MOL   H13624688   5.612   3.503   6.991 -0.2477 -0.5178  0.7527
   37MOL   H13724689   5.748   3.664   6.851  0.2786  0.5101  0.0827
   37MOL   C13824690   6.194   3.323   7.582 -0.4451 -0.9466 -0.5405
   37MOL   C13924691   6.056   3.283   7.584 -0.9773 -0.4609  0.2480
   37MOL   C14024692   5.986   3.253   7.468  0.1898 -0.1430  0.5179
   37MOL   O14124693   5.856   3.213   7.468 -0.0045 -0.3028  0.5026
   37MOL   C14224694   6.055   3.259   7.346 -0.6285 -0.4299 -0.4812
   37MOL   C14324695   6.193   3.294   7.339  0.0165  0.1543  0.1935
   37MOL   C14424696   6.265   3.333   7.460 -0.5019  0.8027  0.1822
   37MOL   C14524697   6.401   3.394   7.450 -0.4601 -0.2739 -0.5366
   37MOL   O14624698   6.458   3.420   7.348  0.1073 -0.2105  0.1520
   37MOL   C14724699   6.454   3.446   7.575  0.2660  0.2729 -0.2047
   37MOL   C14824700   6.567   3.381   7.632 -0.7896  0.7350 -0.0304
   37MOL   C14924701   6.628   3.414   7.759  0.1252 -0.8603 -0.4138
   37MOL   C15024702   6.575   3.525   7.824 -0.0085 -0.0761 -0.2686
   37MOL   O15124703   6.614   3.559   7.949  0.0628 -0.3113  0.4440
   37MOL   C15224704   6.678   3.681   7.969  0.1478 -0.1710  0.2320
   37MOL   C15324705   6.797   3.718   7.895  0.5184  0.0279  0.2712
   37MOL   C15424706   6.863   3.838   7.923  0.2380  0.3139 -0.2155
   37MOL   C15524707   6.813   3.918   8.028  0.0687 -0.6842 -0.2590
   37MOL   C15624708   6.680   3.896   8.075  0.3200 -0.8445 -0.1385
   37MOL   C15724709   6.623   3.772   8.061  0.5077  0.3967 -0.1871
   37MOL   C15824710   6.456   3.586   7.777 -0.0950 -1.0528  0.1782
   37MOL   C15924711   6.398   3.551   7.652  0.4639  0.2583 -0.5427
   37MOL   H16024712   6.238   3.345   7.678 -1.8373  0.5989 -0.2361
   37MOL   H16124713   6.015   3.268   7.683 -2.1133 -0.4679 -0.2196
   37MOL   H16224714   5.993   3.244   7.258 -0.9948  0.8771 -0.4566
   37MOL   H16324715   6.231   3.305   7.238 -1.6456  0.9643 -0.3651
   37MOL   H16424716   6.612   3.296   7.581 -1.0512  0.8718 -0.4961
   37MOL   H16524717   6.708   3.352   7.795  1.7417  1.5401  0.2281
   37MOL   H16624718   6.833   3.648   7.821  1.1589  1.4834 -0.8131
   37MOL   H16724719   6.961   3.852   7.879  0.6852 -0.4202  0.5369
   37MOL   H16824720   6.632   3.967   8.142  1.6115  0.9160 -1.0372
   37MOL   H16924721   6.535   3.743   8.118  1.9749 -0.7830  1.5334
   37MOL   H17024722   6.408   3.665   7.833 -0.1860 -0.3649 -0.8563
   37MOL   H17124723   6.313   3.605   7.613  0.7432  0.1721 -1.2849
   37MOL   C17224724   7.065   4.185   7.803 -0.5415  0.0926 -0.1675
   37MOL   C17324725   7.038   4.093   7.906  0.1391 -0.0637 -0.0727
   37MOL   C17424726   6.928   4.112   7.992 -0.1395 -0.1814  0.0875
   37MOL   O17524727   6.880   4.023   8.078 -0.2785 -0.0875  0.8832
   37MOL   C17624728   6.848   4.231   7.976  0.0517  0.0008 -0.7887
   37MOL   C17724729   6.876   4.325   7.874  0.2042  0.3915 -0.0032
   37MOL   C17824730   6.980   4.297   7.785  0.3158 -0.0901 -0.2044
   37MOL   C17924731   7.000   4.393   7.672 -0.6213  0.3655 -0.3217
   37MOL   O18024732   7.122   4.410   7.645 -0.5111  0.1347 -0.2230
   37MOL   C18124733   6.892   4.455   7.595  0.1904  0.2830  0.0282
   37MOL   C18224734   6.920   4.566   7.516  0.3613 -0.4203  0.0815
   37MOL   C18324735   6.807   4.624   7.448 -0.7959  0.0349 -0.4264
   37MOL   C18424736   6.681   4.556   7.440  0.2182  1.0816  0.1867
   37MOL   O18524737   6.584   4.614   7.358 -0.6732  0.3227  0.1505
   37MOL   C18624738   6.468   4.547   7.337 -0.0573  0.4513  0.0464
   37MOL   C18724739   6.454   4.454   7.231 -0.4583 -0.3396  0.2182
   37MOL   C18824740   6.337   4.379   7.219  0.2171  0.2685 -0.0083
   37MOL   C18924741   6.227   4.395   7.306  0.2748  0.0470 -0.0322
   37MOL   C19024742   6.245   4.486   7.418  0.4736  0.8815 -0.0337
   37MOL   C19124743   6.362   4.560   7.425 -0.0223  0.3656 -0.0826
   37MOL   C19224744   6.658   4.445   7.521 -0.2642  0.5004  0.3564
   37MOL   C19324745   6.760   4.391   7.599 -0.2313 -0.3123 -0.4671
   37MOL   H19424746   7.150   4.167   7.740  1.8308  3.5205  1.8628
   37MOL   H19524747   7.103   4.008   7.920 -0.2880 -0.6526 -1.6462
   37MOL   H19624748   6.763   4.243   8.042  1.7642  1.3458  1.2443
   37MOL   H19724749   6.824   4.419   7.861 -1.1227 -0.4599 -0.9896
   37MOL   H19824750   7.022   4.601   7.525 -0.4791  1.6062  1.9520
   37MOL   H19924751   6.821   4.714   7.389  3.2697  1.3244  2.2730
   37MOL   H20024752   6.538   4.460   7.163  1.7336  0.0974  2.8929
   37MOL   H20124753   6.310   4.310   7.141 -0.9150 -0.2337  0.8179
   37MOL   H20224754   6.157   4.500   7.480 -2.0535  0.2241 -3.3058
   37MOL   H20324755   6.379   4.625   7.509  0.9830 -1.3603  1.0713
   37MOL   H20424756   6.560   4.402   7.532  0.9035 -2.7257 -1.2318
   37MOL   H20524757   6.737   4.302   7.655 -1.9706 -0.5142 -1.4656
   37MOL   C20624758   6.123   3.967   7.164 -1.3484  0.0387  0.6394
   37MOL   C20724759   6.130   4.109   7.162  0.0923 -0.5439 -0.1851
   37MOL   C20824760   6.106   4.184   7.281 -0.0208  0.4250 -0.4726
   37MOL   O20924761   6.109   4.325   7.279 -0.5542  0.2352  0.0731
   37MOL   C21024762   6.084   4.117   7.405 -0.9615  0.4337 -0.0746
   37MOL   C21124763   6.075   3.975   7.402 -0.6596 -0.7051  0.2236
   37MOL   C21224764   6.095   3.900   7.288  0.4887  0.5863  0.3892
   37MOL   C21324765   6.077   3.754   7.309 -0.0151 -0.0721  0.2418
   37MOL   O21424766   6.062   3.697   7.414  0.2484 -0.3415  0.3661
   37MOL   C21524767   6.080   3.668   7.187  0.3562  0.5278 -0.1197
   37MOL   C21624768   5.967   3.590   7.152 -0.9345 -0.5486  0.1219
   37MOL   C21724769   5.974   3.485   7.054  0.2128 -0.0044  0.8042
   37MOL   C21824770   6.090   3.468   6.976  0.7249 -1.0219 -0.7776
   37MOL   O21924771   6.092   3.372   6.886  0.2290 -0.7142 -0.0147
   37MOL   C22024772   6.063   3.393   6.751  0.4392  0.4254  0.4713
   37MOL   C22124773   5.954   3.475   6.707  0.0828  0.1572 -0.0123
   37MOL   C22224774   5.917   3.479   6.571 -0.5264 -0.2831  0.3267
   37MOL   C22324775   5.998   3.417   6.481 -0.3977  0.1244 -0.4799
   37MOL   C22424776   6.115   3.348   6.521  0.1843 -0.1092 -0.5649
   37MOL   C22524777   6.144   3.322   6.659  0.0570 -0.0425 -0.5246
   37MOL   C22624778   6.205   3.549   7.003 -0.4746  0.5183  0.1531
   37MOL   C22724779   6.199   3.633   7.116  0.1377  0.5068 -0.2047
   37MOL   H22824780   6.121   3.905   7.076  0.4693  1.8935 -0.7442
   37MOL   H22924781   6.140   4.166   7.070 -0.0667  0.9068  0.6824
   37MOL   H23024782   6.066   4.158   7.503 -1.4927 -0.4807  0.2174
   37MOL   H23124783   6.045   3.933   7.496  1.0247 -2.7603 -0.1264
   37MOL   H23224784   5.880   3.595   7.215  0.8746  0.9156  2.6007
   37MOL   H23324785   5.890   3.421   7.032  0.5080 -0.2083  0.2754
   37MOL   H23424786   5.890   3.531   6.774 -0.8308  1.5286 -1.9605
   37MOL   H23524787   5.825   3.525   6.538 -0.5704 -1.5530 -1.3855
   37MOL   H23624788   6.169   3.288   6.449  0.7239 -0.1526 -0.1248
   37MOL   H23724789   6.227   3.257   6.682  1.9005  2.0570 -1.0721
   37MOL   H23824790   6.295   3.534   6.946  0.7111  1.5051  1.7061
   37MOL   H23924791   6.290   3.685   7.142  0.0214  0.5765  0.0691
   37MOL   C24024792   5.700   3.648   6.212  0.3944  0.4510 -0.2649
   37MOL   C24124793   5.754   3.534   6.273  0.8853 -0.1168 -1.0911
   37MOL   C24224794   5.893   3.518   6.293 -0.2491 -0.3872  0.3469
   37MOL   O24324795   5.948   3.409   6.352 -0.2803  0.6256 -0.2608
   37MOL   C24424796   5.981   3.620   6.258  0.0544  0.0579 -0.0646
   37MOL   C24524797   5.930   3.740   6.205 -1.1646  0.3758  0.1275
   37MOL   C24624798   5.790   3.757   6.181 -0.1547  0.2814  0.6273
   37MOL   C24724799   5.743   3.879   6.106  0.6277 -0.0699 -0.3142
   37MOL   O24824800   5.797   3.985   6.108 -0.1405  0.7566 -0.2159
   37MOL   C24924801   5.623   3.861   6.015 -0.1283 -0.5634 -0.1335
   37MOL   C25024802   5.504   3.939   6.027  0.1001 -0.0717  0.1597
   37MOL   C25124803   5.403   3.929   5.931  0.0895 -0.1840 -0.2049
   37MOL   C25224804   5.417   3.838   5.826 -0.1847  0.9583 -0.2962
   37MOL   O25324805   5.314   3.834   5.729 -0.3562  0.1245  0.7737
   37MOL   C25424806   5.184   3.837   5.777  0.4310  0.7810 -0.2426
   37MOL   C25524807   5.103   3.946   5.751  0.4679  0.9371 -0.8815
   37MOL   C25624808   4.975   3.966   5.814  0.2664  0.2339  0.1776
   37MOL   C25724809   4.923   3.856   5.888  0.1623 -0.7621  0.5476
   37MOL   C25824810   4.998   3.739   5.903 -0.8463 -0.1700  0.0969
   37MOL   C25924811   5.131   3.732   5.852 -0.0906  0.8242 -0.6091
   37MOL   C26024812   5.535   3.753   5.809 -0.0435  0.2051  0.5160
   37MOL   C26124813   5.642   3.769   5.903 -0.8896 -0.5812 -0.1135
   37MOL   H26224814   5.594   3.646   6.189  0.6907 -5.2230 -1.7447
   37MOL   H26324815   5.687   3.452   6.297 -0.6265  0.6189 -2.7597
   37MOL   H26424816   6.088   3.607   6.271 -0.1594 -0.1549  1.6058
   37MOL   H26524817   6.003   3.807   6.162  0.2525 -2.1351 -1.4533
   37MOL   H26624818   5.488   4.014   6.102  2.4466  0.9832 -0.3305
   37MOL   H26724819   5.322   4.000   5.942  0.3473 -0.0121  0.6260
   37MOL   H26824820   5.138   4.024   5.685  2.3144  0.2816 -0.7203
   37MOL   H26924821   4.918   4.057   5.797  0.8174  0.4986 -0.2701
   37MOL   H27024822   4.964   3.663   5.972 -1.1169  1.8153  2.2088
   37MOL   H27124823   5.192   3.646   5.876 -0.6323  1.0698  1.8457
   37MOL   H27224824   5.554   3.687   5.726  0.7063  0.6976  0.2839
   37MOL   H27324825   5.732   3.713   5.883 -0.8062 -0.7465  0.7054
   37MOL   C27424826   4.542   3.668   5.771 -0.2426  0.5662  0.6944
   37MOL   C27524827   4.638   3.766   5.797  0.2749  0.3699 -0.4413
   37MOL   C27624828   4.706   3.777   5.916  0.3520 -0.1872 -0.3900
   37MOL   O27724829   4.798   3.872   5.940  0.3397 -0.5281 -0.1096
   37MOL   C27824830   4.659   3.689   6.019  0.1599 -0.2310  0.2379
   37MOL   C27924831   4.568   3.588   5.994 -0.2529  1.2228  0.2772
   37MOL   C28024832   4.510   3.573   5.867  0.2468  0.1329  0.4069
   37MOL   C28124833   4.416   3.460   5.834  0.1376  0.1046 -0.1975
   37MOL   O28224834   4.457   3.342   5.849  0.3234 -0.4482  0.4784
   37MOL   C28324835   4.285   3.487   5.764  0.3577 -0.4291 -0.3425
   37MOL   C28424836   4.218   3.392   5.685  0.1220 -0.1949  0.1027
   37MOL   C28524837   4.099   3.429   5.613 -0.0911 -0.5408  0.7095
   37MOL   C28624838   4.040   3.553   5.630  0.8199  0.4925 -0.3811
   37MOL   O28724839   3.918   3.583   5.572 -0.2895  0.0362 -0.2173
   37MOL   C28824840   3.800   3.529   5.622 -0.4731  0.2201 -0.6567
   37MOL   C28924841   3.684   3.578   5.557 -0.1909 -0.0924  0.3817
   37MOL   C29024842   3.555   3.523   5.593  0.1703  0.6305  0.2806
   37MOL   C29124843   3.547   3.423   5.693 -0.6925  0.0072 -0.6536
   37MOL   C29224844   3.665   3.372   5.755  0.3751 -0.6775  1.4115
   37MOL   C29324845   3.793   3.422   5.712  1.0243 -0.4417 -0.1771
   37MOL   C29424846   4.105   3.648   5.708 -0.1721 -0.0062 -0.8906
   37MOL   C29524847   4.225   3.614   5.772  0.4162  0.2303 -0.1645
   37MOL   H29624848   4.481   3.662   5.682  0.1847 -0.8816  0.4924
   37MOL   H29724849   4.655   3.831   5.712 -2.3445  0.0157 -1.2864
   37MOL   H29824850   4.716   3.692   6.110  2.4310  1.0372 -1.1923
   37MOL   H29924851   4.546   3.507   6.062 -1.5966  1.6892  0.4215
   37MOL   H30024852   4.269   3.298   5.672 -0.2616 -0.6214  1.6068
   37MOL   H30124853   4.059   3.364   5.537 -2.4193  1.4413  0.1983
   37MOL   H30224854   3.681   3.644   5.472 -2.3535 -3.3508 -2.2055
   37MOL   H30324855   3.464   3.561   5.548 -0.7598  1.2374  2.5934
   37MOL   H30424856   3.654   3.303   5.837 -4.0036 -1.2451  0.4995
   37MOL   H30524857   3.882   3.380   5.755  1.0461  0.2072  0.4244
   37MOL   H30624858   4.068   3.746   5.735  1.4296 -0.0575  1.5530
   37MOL   H30724859   4.262   3.693   5.835  1.0492 -0.1869 -0.0137
   37MOL   C30824860   3.350   3.262   6.071  0.4737  0.0832  0.8118
   37MOL   C30924861   3.392   3.338   5.959 -0.2772 -0.0931 -0.8742
   37MOL   C31024862   3.398   3.287   5.831  1.5420  0.6287 -0.2741
   37MOL   O31124863   3.420   3.372   5.729  1.5065 -0.2350 -0.3309
   37MOL   C31224864   3.368   3.147   5.809  0.2079  0.6643  0.0395
   37MOL   C31324865   3.332   3.071   5.919  0.1058 -0.3429 -0.0583
   37MOL   C31424866   3.314   3.129   6.049  0.2776  0.4664  0.1254
   37MOL   C31524867   3.250   3.045   6.159  0.5409  0.3246 -1.0796
   37MOL   O31624868   3.187   3.093   6.253  0.4307 -0.3682 -0.1752
   37MOL   C31724869   3.267   2.895   6.159 -0.3256 -0.0114  0.1117
   37MOL   C31824870   3.159   2.814   6.191  0.6972  0.8159 -0.0835
   37MOL   C31924871   3.169   2.674   6.178 -0.8547  0.3647 -0.1218
   37MOL   C32024872   3.291   2.614   6.131 -0.1732  0.7178  0.2355
   37MOL   O32124873   3.306   2.482   6.113  0.3843 -0.0003 -0.3772
   37MOL   C32224874   3.239   2.398   6.197 -0.1860  0.1322  0.0348
   37MOL   C32324875   3.170   2.293   6.142  0.3441 -0.7502  0.7884
   37MOL   C32424876   3.096   2.205   6.219  0.8412  0.1939 -0.0138
   37MOL   C32524877   3.093   2.218   6.364 -0.5405  0.1228  0.8653
   37MOL   C32624878   3.159   2.328   6.417  0.2015 -0.0505  0.0285
   37MOL   C32724879   3.223   2.421   6.334  0.2407  0.1552  0.0704
   37MOL   C32824880   3.397   2.699   6.095  0.3969 -0.0954 -0.2786
   37MOL   C32924881   3.387   2.841   6.110 -1.2742  0.0914  0.0827
   37MOL   H33024882   3.336   3.312   6.166 -1.7260 -0.6399  0.9067
   37MOL   H33124883   3.420   3.442   5.972  1.2486 -0.8787  3.0272
   37MOL   H33224884   3.376   3.108   5.708  1.2359 -0.2727  0.4847
   37MOL   H33324885   3.288   2.973   5.908 -1.0549  0.3833 -2.0840
   37MOL   H33424886   3.064   2.855   6.223  0.0332 -0.5356 -0.2895
   37MOL   H33524887   3.084   2.608   6.192  0.7651 -1.2079  2.7539
   37MOL   H33624888   3.172   2.281   6.035 -0.6770  0.3430  0.6377
   37MOL   H33724889   3.044   2.122   6.173 -0.5293  1.0060  0.0213
   37MOL   H33824890   3.164   2.353   6.522 -0.6214 -3.6181  0.9627
   37MOL   H33924891   3.250   2.510   6.388 -1.4204  0.9037 -0.3007
   37MOL   H34024892   3.486   2.656   6.053 -0.1234  0.0563 -1.5578
   37MOL   H34124893   3.476   2.900   6.095 -0.1631 -0.9784  2.1428
   37MOL   C34224894   3.071   2.198   6.810 -0.4589  0.6149  0.1780
   37MOL   C34324895   3.088   2.148   6.677  0.5831  0.1137 -0.5539
   37MOL   C34424896   2.994   2.177   6.574 -0.4736  0.3721 -0.5817
   37MOL   O34524897   3.023   2.134   6.445 -0.1981 -0.6780 -0.0673
   37MOL   C34624898   2.890   2.263   6.606 -0.3700  0.0920  0.1979
   37MOL   C34724899   2.868   2.316   6.733 -0.4603 -0.2614 -0.0326
   37MOL   C34824900   2.959   2.276   6.843 -0.6951 -0.4263  0.0290
   37MOL   C34924901   2.927   2.327   6.979  0.2942 -0.3643 -0.0284
   37MOL   O35024902   2.880   2.438   6.997  0.1144 -0.0467  0.2467
   37MOL   C35124903   2.972   2.240   7.088 -0.6270 -0.1369 -0.8430
   37MOL   C35224904   3.078   2.284   7.169 -0.7652 -0.7392  0.4158
   37MOL   C35324905   3.122   2.201   7.271 -0.1501  0.3330  0.9055
   37MOL   C35424906   3.071   2.070   7.277 -0.7102  0.2819 -0.2480
   37MOL   O35524907   3.131   1.988   7.366 -0.2726  0.5715  0.7417
   37MOL   C35624908   3.238   1.911   7.320  0.2892 -0.0916  0.4764
   37MOL   C35724909   3.249   1.872   7.187 -0.1002 -1.0928  0.4845
   37MOL   C35824910   3.356   1.790   7.146 -0.7729 -0.2826  0.2034
   37MOL   C35924911   3.455   1.739   7.243 -0.0533 -0.1391 -0.4573
   37MOL   C36024912   3.443   1.785   7.377  0.4657  0.8770  0.8458
   37MOL   C36124913   3.338   1.869   7.411  0.3323 -0.2347 -0.8833
   37MOL   C36224914   2.962   2.032   7.199  0.0066  0.5631 -0.4129
   37MOL   C36324915   2.908   2.113   7.105 -0.5569  0.2096  0.1507
   37MOL   H36424916   3.143   2.180   6.889 -1.4853 -0.4745  0.8726
   37MOL   H36524917   3.174   2.087   6.655 -0.5733 -2.1639  1.1092
   37MOL   H36624918   2.828   2.290   6.522 -0.0627 -0.9745 -0.3835
   37MOL   H36724919   2.778   2.374   6.747  0.0232  1.0169 -2.0028
   37MOL   H36824920   3.120   2.383   7.156  0.2774 -1.3409 -0.9273
   37MOL   H36924921   3.200   2.229   7.339  1.9953 -0.9766 -0.9465
   37MOL   H37024922   3.184   1.907   7.108 -0.0787 -1.6278  0.2309
   37MOL   H37124923   3.376   1.762   7.044 -0.2552  1.5197 -0.2213
   37MOL   H37224924   3.511   1.748   7.453  1.7028 -1.9223 -1.4723
   37MOL   H37324925   3.328   1.902   7.514 -1.9585  1.0204 -1.4764
   37MOL   H37424926   2.918   1.935   7.214 -1.6148  1.2439 -0.6598
   37MOL   H37524927   2.841   2.068   7.034  0.9362 -1.1472 -0.4263
   37MOL   C37624928   3.857   1.891   7.264  0.2043  0.1055 -0.2452
   37MOL   C37724929   3.723   1.843   7.224  0.2815  0.1621 -0.3802
   37MOL   C37824930   3.686   1.709   7.247  0.6756  0.3221  0.6189
   37MOL   O37924931   3.564   1.656   7.206 -0.1753  0.4408 -0.3895
   37MOL   C38024932   3.775   1.623   7.314 -0.0629  0.1153  0.2297
   37MOL   C38124933   3.906   1.665   7.340 -0.2030  0.2589  0.0108
   37MOL   C38224934   3.944   1.803   7.325  0.1456 -0.8250 -0.1762
   37MOL   C38324935   4.083   1.845   7.345  0.2561  0.9976  0.3198
   37MOL   O38424936   4.175   1.758   7.344 -0.3360  0.0669  0.5154
   37MOL   C38524937   4.119   1.995   7.357 -0.9327 -0.0331  0.3777
   37MOL   C38624938   4.221   2.048   7.272 -0.0200 -0.2924 -0.0133
   37MOL   C38724939   4.248   2.189   7.277 -0.0199  0.1196 -0.6382
   37MOL   C38824940   4.181   2.267   7.377  0.6593  0.3088  0.1641
   37MOL   O38924941   4.209   2.404   7.385 -0.0365 -0.1555  0.0495
   37MOL   C39024942   4.324   2.440   7.457  0.4754 -0.1803  0.6801
   37MOL   C39124943   4.331   2.427   7.599  0.1767 -0.4278 -0.3122
   37MOL   C39224944   4.438   2.476   7.671  0.1193  0.1932  0.4893
   37MOL   C39324945   4.545   2.526   7.606 -0.2420  0.3881 -0.4674
   37MOL   C39424946   4.550   2.532   7.467  0.2924  0.4719  0.3412
   37MOL   C39524947   4.434   2.503   7.394  0.1027  0.5345 -0.4597
   37MOL   C39624948   4.083   2.209   7.467 -0.4212 -0.1307  0.3616
   37MOL   C39724949   4.057   2.074   7.458 -0.2208 -0.1398 -0.3515
   37MOL   H39824950   3.877   1.995   7.240 -1.8490 -0.0693 -2.9443
   37MOL   H39924951   3.656   1.912   7.175 -0.2427  0.6209  0.9617
   37MOL   H40024952   3.747   1.521   7.338 -3.1217  1.4215  2.5399
   37MOL   H40124953   3.970   1.582   7.366 -2.3122 -1.0171  1.2061
   37MOL   H40224954   4.273   1.987   7.199 -1.9812 -1.4812 -0.4303
   37MOL   H40324955   4.302   2.239   7.197  1.0347  0.7206  0.4435
   37MOL   H40424956   4.238   2.396   7.644 -0.8066  2.8957  0.1348
   37MOL   H40524957   4.445   2.481   7.779  0.0544 -1.2860  0.5748
   37MOL   H40624958   4.646   2.563   7.430 -0.1076  1.1747 -0.1187
   37MOL   H40724959   4.435   2.502   7.286 -2.9516  1.2178 -0.5591
   37MOL   H40824960   4.043   2.280   7.539 -0.3245  3.0005 -2.5561
   37MOL   H40924961   3.990   2.022   7.525 -2.3673 -0.0268 -2.3548
   37MOL   C41024962   4.768   2.913   7.640  0.5546 -0.2652  0.1269
   37MOL   C41124963   4.758   2.774   7.620 -0.7962  0.2114 -0.1520
   37MOL   C41224964   4.677   2.694   7.699  1.3147 -0.3387 -0.2224
   37MOL   O41324965   4.655   2.558   7.682  0.1373 -0.6706 -0.1881
   37MOL   C41424966   4.601   2.752   7.802 -0.6513 -0.2654 -0.0761
   37MOL   C41524967   4.609   2.891   7.829 -0.1222 -0.0402  0.4314
   37MOL   C41624968   4.699   2.970   7.751 -0.2192  0.4170 -0.3073
   37MOL   C41724969   4.725   3.106   7.802  0.2471  0.0593 -0.5520
   37MOL   O41824970   4.733   3.131   7.923 -0.3332  0.5572 -0.7006
   37MOL   C41924971   4.734   3.212   7.705 -0.3680  0.0402 -0.3072
   37MOL   C42024972   4.625   3.242   7.625  0.2192  0.4712 -0.3489
   37MOL   C42124973   4.631   3.353   7.538 -0.3030  0.2157 -0.3384
   37MOL   C42224974   4.750   3.426   7.534 -0.6859  0.3784  0.1427
   37MOL   O42324975   4.759   3.526   7.443 -0.1295 -0.5605 -0.2951
   37MOL   C42424976   4.808   3.652   7.474 -0.0566  0.0995 -0.0362
   37MOL   C42524977   4.911   3.708   7.391  0.3436  0.7234  0.6437
   37MOL   C42624978   4.972   3.822   7.433  0.7090 -1.1269 -0.1753
   37MOL   C42724979   4.926   3.891   7.547 -0.3697 -0.3998  0.8050
   37MOL   C42824980   4.820   3.840   7.626 -0.0745  0.0366  0.0952
   37MOL   C42924981   4.759   3.713   7.590 -0.4716  0.0452 -0.4877
   37MOL   C43024982   4.855   3.404   7.623  0.4585 -0.5521  0.0140
   37MOL   C43124983   4.848   3.297   7.706  1.0638  0.2759  1.0127
   37MOL   H43224984   4.835   2.962   7.571  1.1375  1.0786  1.6145
   37MOL   H43324985   4.794   2.724   7.531 -3.4154 -0.3230 -0.9708
   37MOL   H43424986   4.549   2.690   7.874 -2.7905  1.1821 -0.3101
   37MOL   H43524987   4.561   2.937   7.914 -3.0196  0.0445 -1.1721
   37MOL   H43624988   4.539   3.176   7.628  1.9027 -1.8081 -0.4420
   37MOL   H43724989   4.545   3.372   7.475  0.8537  1.0837 -1.6731
   37MOL   H43824990   4.952   3.644   7.315 -3.1753 -0.3658 -0.4506
   37MOL   H43924991   5.062   3.861   7.387  1.2283 -2.7888 -0.6155
   37MOL   H44024992   4.784   3.899   7.708 -1.7386 -0.5203 -0.2114
   37MOL   H44124993   4.683   3.662   7.647 -0.9050 -0.4274 -1.4649
   37MOL   H44224994   4.945   3.465   7.631  1.7445 -2.3627 -0.3453
   37MOL   H44324995   4.924   3.265   7.777  0.7929  0.0736  1.2109
   37MOL   C44424996   4.907   4.364   7.604  0.2047 -0.1050  0.4755
   37MOL   C44524997   4.962   4.240   7.639 -0.8348  0.6389  0.6181
   37MOL   C44624998   4.937   4.128   7.555 -0.5850 -0.2868  0.4455
   37MOL   O44724999   4.996   4.007   7.580  0.0151 -0.4094 -0.7358
   37MOL   C44825000   4.873   4.152   7.425  0.4032  0.9326 -0.4711
   37MOL   C44925001   4.816   4.273   7.399 -0.0763 -0.6055 -0.0841
   37MOL   C45025002   4.827   4.383   7.488  0.0465 -0.3059 -0.6250
   37MOL   C45125003   4.744   4.505   7.460  0.3079  0.2172 -0.2831
   37MOL   O45225004   4.676   4.521   7.364  0.3798  0.2815 -0.2239
   37MOL   C45325005   4.746   4.599   7.574  0.0183  0.6356  0.4493
   37MOL   C45425006   4.680   4.559   7.695 -0.0413  0.2559  0.0087
   37MOL   C45525007   4.683   4.647   7.807 -0.0481 -0.2104  0.3234
   37MOL   C45625008   4.761   4.769   7.801  0.2946  0.4347 -0.1398
   37MOL   O45725009   4.784   4.839   7.917  0.2680 -0.5794  0.1955
   37MOL   C45825010   4.914   4.854   7.957 -0.1267 -0.1342 -0.3978
   37MOL   C45925011   4.962   4.979   7.984  0.3525  0.5139 -0.6225
   37MOL   C46025012   5.088   4.996   8.038  0.1495  0.1280 -0.0508
   37MOL   C46125013   5.175   4.888   8.063  0.4232  0.2776  0.3526
   37MOL   C46225014   5.126   4.761   8.023 -0.3086 -0.0961  0.1986
   37MOL   C46325015   4.998   4.739   7.965 -0.5590  0.1402 -0.5198
   37MOL   C46425016   4.821   4.807   7.681 -0.4808  0.0110  0.2711
   37MOL   C46525017   4.812   4.728   7.567 -0.4483  0.3404 -0.0229
   37MOL   H46625018   4.910   4.438   7.683 -2.4727 -0.4872  0.9808
   37MOL   H46725019   5.032   4.226   7.720  1.0504  1.0932 -0.8808
   37MOL   H46825020   4.857   4.070   7.356  0.2383 -0.5713  1.3288
   37MOL   H46925021   4.764   4.288   7.305  2.1445  1.8873 -0.9659
   37MOL   H47025022   4.613   4.476   7.711 -0.5837  0.6333 -0.2967
   37MOL   H47125023   4.632   4.615   7.896 -1.2089  1.8044  0.4015
   37MOL   H47225024   4.907   5.070   7.967  0.7554  0.1933 -3.9683
   37MOL   H47325025   5.101   5.099   8.067 -1.2575  0.4506 -0.5057
   37MOL   H47425026   5.179   4.669   8.042  0.2597 -0.2582 -1.9586
   37MOL   H47525027   4.971   4.639   7.935  0.6209 -0.6639  1.0151
   37MOL   H47625028   4.880   4.898   7.684  0.6933 -0.4636 -4.0965
   37MOL   H47725029   4.864   4.752   7.476 -0.7356 -0.7133 -0.4832
   37MOL   C47825030   5.437   5.250   8.163 -0.1439 -0.4584  0.4094
   37MOL   C47925031   5.358   5.134   8.189 -0.6313 -0.2413  0.0176
   37MOL   C48025032   5.370   5.021   8.108 -0.4011  0.4961 -0.0858
   37MOL   O48125033   5.297   4.904   8.120 -0.3364 -0.4126  0.2249
   37MOL   C48225034   5.462   5.019   8.003  0.1781  0.0784 -0.2498
   37MOL   C48325035   5.546   5.129   7.979  0.4757 -0.8370  0.4406
   37MOL   C48425036   5.534   5.244   8.062 -0.2572  0.4400  0.6398
   37MOL   C48525037   5.613   5.368   8.038 -0.1970  0.2044  0.9022
   37MOL   O48625038   5.573   5.480   8.069  0.2978  0.4878  0.2720
   37MOL   C48725039   5.752   5.355   7.976 -0.4257  0.1845 -0.1942
   37MOL   C48825040   5.862   5.289   8.041 -0.1177 -0.3330 -0.0619
   37MOL   C48925041   5.986   5.275   7.977  0.6598  0.3949 -0.8072
   37MOL   C49025042   6.003   5.323   7.848  0.6845 -0.0180  0.3831
   37MOL   O49125043   6.119   5.314   7.777  0.4946 -0.3019  0.3370
   37MOL   C49225044   6.204   5.204   7.786  0.4774 -0.7447  0.2593
   37MOL   C49325045   6.340   5.229   7.819 -0.6571 -0.6668 -0.4045
   37MOL   C49425046   6.435   5.124   7.815 -0.6944  0.7989 -0.2272
   37MOL   C49525047   6.390   4.994   7.778 -0.0972  0.2625 -0.0541
   37MOL   C49625048   6.256   4.969   7.736  0.6684 -0.1940 -0.6177
   37MOL   C49725049   6.164   5.071   7.741  0.4133  0.4116  0.3347
   37MOL   C49825050   5.898   5.392   7.788 -0.1130  0.6464 -0.2479
   37MOL   C49925051   5.772   5.406   7.850  0.2415  0.1365  0.3373
   37MOL   H50025052   5.413   5.342   8.216  0.9909 -0.2522  0.5802
   37MOL   H50125053   5.283   5.143   8.266 -0.1463 -0.4313  0.5069
   37MOL   H50225054   5.470   4.940   7.930 -1.9274  0.3080 -0.7441
   37MOL   H50325055   5.609   5.132   7.892 -1.8124  0.4009 -1.2188
   37MOL   H50425056   5.854   5.249   8.141  0.2955 -0.5901 -0.1310
   37MOL   H50525057   6.067   5.232   8.033  0.2482  0.5646 -0.0693
   37MOL   H50625058   6.378   5.329   7.830 -0.6626 -1.0005  3.1042
   37MOL   H50725059   6.534   5.149   7.849 -1.0257  1.5116  0.2132
   37MOL   H50825060   6.234   4.866   7.714  0.7879 -0.5139  0.6999
   37MOL   H50925061   6.064   5.047   7.710  0.9204 -0.8108 -0.4271
   37MOL   H51025062   5.910   5.439   7.691  1.0252 -0.8499 -0.8464
   37MOL   H51125063   5.689   5.447   7.795 -1.0614 -1.8922  0.7469
   37MOL   C51225064   6.365   4.622   8.002 -0.7979 -0.6499  0.1846
   37MOL   C51325065   6.388   4.752   7.949  0.3552 -0.2176  0.2431
   37MOL   C51425066   6.470   4.773   7.840  0.3257  0.2294  0.3455
   37MOL   O51525067   6.489   4.897   7.777  0.0161  0.4971  0.1050
   37MOL   C51625068   6.536   4.660   7.790  0.1449  0.3612 -0.1205
   37MOL   C51725069   6.523   4.532   7.840 -0.2138 -0.0323  0.0369
   37MOL   C51825070   6.440   4.516   7.955  0.1932 -1.0512  0.2505
   37MOL   C51925071   6.423   4.376   8.015  0.1325  0.0555 -0.5320
   37MOL   O52025072   6.515   4.314   8.071 -0.7852  0.0484 -0.1994
   37MOL   C52125073   6.284   4.315   7.998 -0.8592 -0.1896 -0.1620
   37MOL   C52225074   6.197   4.355   7.898  0.7110 -0.3759 -0.3869
   37MOL   C52325075   6.066   4.302   7.884  0.4872  0.3726  0.4722
   37MOL   C52425076   6.013   4.215   7.979 -0.5732 -0.2692  0.1577
   37MOL   O52525077   5.884   4.169   7.978  0.1485 -0.1391  0.4268
   37MOL   C52625078   5.804   4.205   7.870 -0.7829 -0.7893 -0.0705
   37MOL   C52725079   5.746   4.335   7.860 -0.0415 -1.0613 -0.3722
   37MOL   C52825080   5.669   4.368   7.745 -0.4877 -0.0848 -0.2247
   37MOL   C52925081   5.659   4.285   7.635 -0.0259 -0.1680  0.1134
   37MOL   C53025082   5.715   4.156   7.642  0.3428 -0.7185 -0.2026
   37MOL   C53125083   5.787   4.120   7.760 -0.7657 -0.1254 -0.2777
   37MOL   C53225084   6.099   4.178   8.086  0.3968  0.2201 -0.4061
   37MOL   C53325085   6.230   4.220   8.089 -0.9965 -0.3826  0.2680
   37MOL   H53425086   6.293   4.613   8.082 -0.8140 -0.7265  0.1609
   37MOL   H53525087   6.329   4.838   7.978  1.3869  0.0323  1.6290
   37MOL   H53625088   6.612   4.687   7.719 -1.3883  0.0151 -1.9550
   37MOL   H53725089   6.589   4.455   7.802  1.0948  0.1151  1.9504
   37MOL   H53825090   6.233   4.422   7.821  1.5290 -1.1647 -0.7018
   37MOL   H53925091   6.000   4.328   7.802 -1.0540 -3.3984  0.4347
   37MOL   H54025092   5.763   4.420   7.924 -1.0523 -0.1582 -1.2758
   37MOL   H54125093   5.633   4.469   7.731  0.8877  0.4971  0.3394
   37MOL   H54225094   5.710   4.077   7.568 -1.5097 -1.2549  0.4561
   37MOL   H54325095   5.813   4.015   7.764  1.7019  0.5025  1.5921
   37MOL   H54425096   6.065   4.106   8.160  1.8595 -0.6048 -0.5174
   37MOL   H54525097   6.291   4.190   8.174 -1.2717 -0.8184  0.3158
   37MOL   C54625098   5.785   4.333   7.204 -1.2805  0.2163 -0.6942
   37MOL   C54725099   5.713   4.276   7.312  0.2285 -0.3123  0.4125
   37MOL   C54825100   5.696   4.360   7.426 -0.1305 -0.6479  0.1758
   37MOL   O54925101   5.605   4.326   7.519  0.8614 -0.2886  0.2709
   37MOL   C55025102   5.761   4.488   7.430 -0.0846 -0.3322 -0.5043
   37MOL   C55125103   5.828   4.540   7.320  0.5200  0.0161  0.4517
   37MOL   C55225104   5.844   4.462   7.206  0.2688 -1.2672 -0.7115
   37MOL   C55325105   5.919   4.501   7.087 -0.3365 -0.6528  0.3025
   37MOL   O55425106   6.013   4.433   7.045 -0.2676  0.0907 -0.1747
   37MOL   C55525107   5.864   4.626   7.017 -0.2162  0.4211 -0.2605
   37MOL   C55625108   5.928   4.661   6.891 -0.2128 -0.0199 -0.3144
   37MOL   C55725109   5.895   4.775   6.820 -0.4093  0.4397 -0.2372
   37MOL   C55825110   5.788   4.857   6.864  0.1254 -0.0430 -0.4603
   37MOL   O55925111   5.751   4.980   6.808 -0.0674 -0.5746 -0.1894
   37MOL   C56025112   5.629   4.992   6.750 -0.2124 -0.2624 -0.1054
   37MOL   C56125113   5.546   5.098   6.790 -0.2668 -0.2581 -0.0547
   37MOL   C56225114   5.417   5.111   6.739 -0.6739 -0.1275  0.3796
   37MOL   C56325115   5.372   5.017   6.645 -0.3169  0.3380 -0.1457
   37MOL   C56425116   5.454   4.910   6.604 -0.9817  0.2998  0.1209
   37MOL   C56525117   5.584   4.898   6.652 -0.0675  0.0825  0.4111
   37MOL   C56625118   5.719   4.823   6.977 -0.1041  0.3095 -0.3398
   37MOL   C56725119   5.764   4.712   7.056 -0.5862 -0.8996 -0.2340
   37MOL   H56825120   5.780   4.265   7.120 -3.1881 -2.0439  1.1785
   37MOL   H56925121   5.669   4.178   7.302 -0.4150  0.0994 -0.9254
   37MOL   H57025122   5.752   4.546   7.520  2.2101  0.4787 -0.7853
   37MOL   H57125123   5.872   4.637   7.339  2.2445 -0.6748  0.1336
   37MOL   H57225124   6.007   4.591   6.868 -0.2252 -1.0366  2.5252
   37MOL   H57325125   5.960   4.809   6.740 -0.7617  0.3448 -0.5685
   37MOL   H57425126   5.583   5.176   6.854 -2.1776  0.0838  0.6399
   37MOL   H57525127   5.346   5.192   6.753  0.0336  1.1622 -3.0959
   37MOL   H57625128   5.424   4.841   6.526  2.7944 -0.1268 -1.0300
   37MOL   H57725129   5.647   4.819   6.615 -0.0681  0.1992  0.1647
   37MOL   H57825130   5.639   4.893   6.994 -0.5992 -0.3981  0.2748
   37MOL   H57925131   5.720   4.702   7.155 -0.2804  2.4095  0.2741
   37MOL   C58025132   4.937   5.157   6.749 -0.2708 -0.1231  0.5603
   37MOL   C58125133   5.042   5.134   6.657 -0.0107  0.1688  0.6231
   37MOL   C58225134   5.139   5.040   6.686 -0.4428  0.0059 -0.0272
   37MOL   O58325135   5.242   5.020   6.599 -0.0407 -0.5587 -0.3599
   37MOL   C58425136   5.142   4.971   6.812 -0.1047 -0.2052 -0.1877
   37MOL   C58525137   5.040   4.991   6.905  0.4369 -0.3085 -0.3928
   37MOL   C58625138   4.939   5.090   6.873 -0.3852  0.7939  0.0664
   37MOL   C58725139   4.831   5.105   6.971 -0.3364 -0.1640  0.3483
   37MOL   O58825140   4.842   5.128   7.091  0.2667 -0.5947 -0.2909
   37MOL   C58925141   4.699   5.082   6.902 -0.5712  0.0943 -0.1776
   37MOL   C59025142   4.680   4.983   6.801 -0.2390 -0.1942 -0.0905
   37MOL   C59125143   4.556   4.956   6.744  0.0744  0.3807 -0.4522
   37MOL   C59225144   4.442   5.032   6.779 -0.4153  0.2993 -0.3837
   37MOL   O59325145   4.324   5.013   6.718 -0.0941  0.1649  0.7812
   37MOL   C59425146   4.272   4.887   6.706  0.2131 -0.2823 -0.3834
   37MOL   C59525147   4.156   4.859   6.785  0.0523 -0.3065 -0.8802
   37MOL   C59625148   4.076   4.749   6.745 -0.6020  0.4109  0.2171
   37MOL   C59725149   4.113   4.663   6.643 -0.5514  0.6481 -0.3821
   37MOL   C59825150   4.232   4.690   6.576 -0.2881 -0.4144 -0.1579
   37MOL   C59925151   4.310   4.805   6.600  0.0807  0.1207  0.3601
   37MOL   C60025152   4.458   5.131   6.880 -0.0710  0.8343  0.4797
   37MOL   C60125153   4.582   5.156   6.942  0.3371  0.3368  0.0938
   37MOL   H60225154   4.854   5.219   6.717 -0.7654 -0.2974  1.4912
   37MOL   H60325155   5.040   5.178   6.559 -0.6632 -1.7750 -0.2680
   37MOL   H60425156   5.224   4.906   6.840 -0.2683  0.8551  2.9832
   37MOL   H60525157   5.033   4.937   6.998  4.2521  0.3103  0.3022
   37MOL   H60625158   4.766   4.931   6.761  1.8017  1.1251  2.4247
   37MOL   H60725159   4.556   4.894   6.656 -0.3259 -0.2086 -0.0397
   37MOL   H60825160   4.109   4.924   6.857  0.0501 -1.5179  0.2311
   37MOL   H60925161   3.981   4.736   6.795 -1.5714  2.5052 -0.9892
   37MOL   H61025162   4.257   4.620   6.497 -0.1134  0.6387 -1.0487
   37MOL   H61125163   4.391   4.820   6.530 -0.0364 -1.6375 -0.1676
   37MOL   H61225164   4.375   5.200   6.892 -0.4057  0.3358  1.0754
   37MOL   H61325165   4.589   5.232   7.018 -0.5439  1.2643 -0.7534
   37MOL   C61425166   4.024   4.409   6.274 -0.6521  0.5322  0.6867
   37MOL   C61525167   4.060   4.424   6.408 -0.1912  0.4089  0.0649
   37MOL   C61625168   4.004   4.536   6.475  0.4673 -0.1980  1.3184
   37MOL   O61725169   4.036   4.557   6.606  0.0454  0.7382 -0.6965
   37MOL   C61825170   3.942   4.641   6.396  0.0994  0.1547 -0.0781
   37MOL   C61925171   3.927   4.628   6.259  0.2308  0.1022 -0.0563
   37MOL   C62025172   3.960   4.505   6.202 -0.1980  0.2516  0.4168
   37MOL   C62125173   3.915   4.480   6.057  0.1035  0.0051 -0.5403
   37MOL   O62225174   3.963   4.542   5.963 -0.4734 -0.0772 -0.0287
   37MOL   C62325175   3.796   4.392   6.038 -0.2781 -0.3931 -0.3825
   37MOL   C62425176   3.756   4.356   5.909 -0.0890 -0.5063 -0.7361
   37MOL   C62525177   3.637   4.277   5.896 -0.4963 -0.4154  0.0978
   37MOL   C62625178   3.554   4.250   6.004  0.6161  0.1234  0.2238
   37MOL   O62725179   3.446   4.168   5.981  0.3610 -0.4939 -0.5726
   37MOL   C62825180   3.329   4.213   5.927 -0.2613 -0.2239 -0.2499
   37MOL   C62925181   3.224   4.124   5.928  0.1200 -0.1114 -0.3807
   37MOL   C63025182   3.104   4.165   5.870  0.2415 -0.4947  0.3539
   37MOL   C63125183   3.086   4.301   5.817 -0.0033 -0.0289 -0.1280
   37MOL   C63225184   3.198   4.386   5.822 -0.5269  0.3858 -0.1032
   37MOL   C63325185   3.319   4.341   5.876  0.4438 -0.0260  0.3997
   37MOL   C63425186   3.595   4.284   6.129  0.9312  0.5036 -0.2995
   37MOL   C63525187   3.711   4.362   6.146 -0.4001 -0.4957 -0.0925
   37MOL   H63625188   4.045   4.315   6.225  3.0230  0.2260  2.7278
   37MOL   H63725189   4.116   4.345   6.456 -0.8743  0.5485  1.1063
   37MOL   H63825190   3.915   4.734   6.445  0.8335  2.0965 -3.2054
   37MOL   H63925191   3.875   4.704   6.203 -2.3461 -1.6304 -0.1242
   37MOL   H64025192   3.818   4.382   5.825 -0.8619 -0.2609 -1.2320
   37MOL   H64125193   3.596   4.232   5.807 -1.3896 -0.0253  0.3080
   37MOL   H64225194   3.233   4.021   5.958  3.7801  0.1585 -0.2918
   37MOL   H64325195   3.017   4.101   5.872 -1.1409  1.3627  1.7589
   37MOL   H64425196   3.190   4.482   5.775  1.0144  1.0508  0.9548
   37MOL   H64525197   3.400   4.413   5.871 -0.9612  1.5065 -0.7580
   37MOL   H64625198   3.544   4.236   6.211  0.1139 -0.8726 -1.5771
   37MOL   H64725199   3.739   4.377   6.249  0.6718 -0.5555 -0.3723
   37MOL   C64825200   2.663   4.228   5.919  0.6987  0.3002  0.6331
   37MOL   C64925201   2.777   4.225   5.830 -0.3257 -0.3468  0.2248
   37MOL   C65025202   2.862   4.335   5.818  0.6895 -0.0287  0.2807
   37MOL   O65125203   2.975   4.333   5.744 -0.5752  0.3456 -0.4967
   37MOL   C65225204   2.839   4.448   5.900 -0.1987  0.5602  0.3270
   37MOL   C65325205   2.723   4.454   5.974 -0.2660  0.4485 -0.3656
   37MOL   C65425206   2.634   4.348   5.986  0.4909 -0.4690  0.0804
   37MOL   C65525207   2.503   4.363   6.061  0.6008 -0.2387 -0.6764
   37MOL   O65625208   2.442   4.472   6.062 -0.2187  0.1657 -0.6059
   37MOL   C65725209   2.447   4.241   6.120  0.2938  0.4756 -0.3133
   37MOL   C65825210   2.311   4.210   6.117  0.5793 -0.1495 -0.0220
   37MOL   C65925211   2.259   4.084   6.151  0.2157  0.0653  1.0770
   37MOL   C66025212   2.349   3.991   6.208 -0.0507  1.4668  0.5302
   37MOL   O66125213   2.314   3.861   6.237  0.1617  0.2477  0.0433
   37MOL   C66225214   2.356   3.814   6.361  0.5248  1.1300  0.7408
   37MOL   C66325215   2.352   3.896   6.475  0.4004 -0.6734  0.1273
   37MOL   C66425216   2.387   3.830   6.596 -0.1068  0.4860  0.5109
   37MOL   C66525217   2.426   3.691   6.604  0.4151 -0.2532 -0.2187
   37MOL   C66625218   2.424   3.617   6.487  0.1015 -0.1988 -0.7249
   37MOL   C66725219   2.393   3.678   6.366 -0.2029  0.2811 -0.4112
   37MOL   C66825220   2.479   4.015   6.221 -1.0728 -0.4377 -0.4380
   37MOL   C66925221   2.528   4.141   6.183 -1.0090  0.0946  0.2625
   37MOL   H67025222   2.598   4.143   5.909 -1.0509  1.7291 -0.3702
   37MOL   H67125223   2.780   4.136   5.769  0.9795  0.0459 -0.2896
   37MOL   H67225224   2.906   4.532   5.890  0.1673  0.0445 -1.6482
   37MOL   H67325225   2.700   4.543   6.032  0.3362  0.5129 -0.2204
   37MOL   H67425226   2.249   4.281   6.064  1.0969  0.2298 -0.1257
   37MOL   H67525227   2.157   4.057   6.129  0.7133 -1.1239  0.1483
   37MOL   H67625228   2.330   4.002   6.468  2.5895 -0.2901 -1.7523
   37MOL   H67725229   2.386   3.889   6.686 -0.6152  0.6800  0.3826
   37MOL   H67825230   2.458   3.515   6.487  1.6045  0.2725  1.0916
   37MOL   H67925231   2.389   3.631   6.268 -1.6786 -2.9609  1.1193
   37MOL   H68025232   2.547   3.941   6.260 -1.4801  0.4589  2.0190
   37MOL   H68125233   2.635   4.154   6.182 -0.9459 -0.4342 -0.8370
   37MOL   H68225234   2.464   3.642   6.692  0.0614  0.5903  0.4193
   38MOL     C125235   0.840   3.162   2.537 -0.7801  0.4352 -0.4638
   38MOL     C225236   0.940   3.259   2.550  0.3430  0.7042 -0.2366
   38MOL     C325237   0.948   3.335   2.674 -0.1489  0.1771 -0.3912
   38MOL     O425238   1.055   3.422   2.691 -0.0271  0.4614 -0.3284
   38MOL     C525239   0.839   3.323   2.762  0.0233  0.1476  0.1651
   38MOL     C625240   0.736   3.227   2.747 -0.4132 -0.1516 -0.3515
   38MOL     C725241   0.740   3.138   2.639  0.0084 -0.3974 -0.0896
   38MOL     C825242   0.630   3.036   2.617 -1.1823  0.1578 -0.1541
   38MOL     O925243   0.511   3.067   2.631  0.5170  0.1330  0.0735
   38MOL    C1025244   0.663   2.897   2.592  0.3820 -0.8525 -0.2383
   38MOL    C1125245   0.785   2.844   2.645  0.5575  0.0382 -0.2392
   38MOL    C1225246   0.812   2.704   2.628  1.3372  0.6324 -0.1036
   38MOL    C1325247   0.720   2.625   2.553  0.3174 -0.5906  0.2425
   38MOL    O1425248   0.749   2.489   2.534  0.1121  0.7211 -0.5527
   38MOL    C1525249   0.846   2.461   2.437  0.2499 -0.5178 -0.5663
   38MOL    C1625250   0.954   2.376   2.479  0.0529 -0.1948 -0.5383
   38MOL    C1725251   1.053   2.340   2.385 -0.2032 -0.4266  0.2918
   38MOL    C1825252   1.058   2.405   2.262 -0.4600 -0.0248  0.5502
   38MOL    C1925253   0.958   2.499   2.227 -0.1693 -0.4310  0.2072
   38MOL    C2025254   0.852   2.529   2.319 -0.3292 -0.3048 -0.2180
   38MOL    C2125255   0.601   2.682   2.506 -0.3851  0.0573 -0.4497
   38MOL    C2225256   0.573   2.812   2.534 -0.5881 -0.0550 -0.1640
   38MOL    H2325257   0.823   3.118   2.440  2.0177 -2.7924  0.4292
   38MOL    H2425258   1.019   3.278   2.480 -0.5069  2.1615 -0.8209
   38MOL    H2525259   0.836   3.379   2.854 -2.5898  1.0529 -0.4364
   38MOL    H2625260   0.653   3.230   2.815  1.3291 -0.2324  1.8162
   38MOL    H2725261   0.858   2.900   2.702  0.6807 -0.6796  0.3109
   38MOL    H2825262   0.911   2.667   2.653  1.6641  2.3128  1.2278
   38MOL    H2925263   0.961   2.333   2.578  2.2753  2.7427  0.6572
   38MOL    H3025264   1.113   2.253   2.407 -1.4425 -2.2134 -3.0251
   38MOL    H3125265   0.953   2.554   2.134  0.7450  0.5212  0.7040
   38MOL    H3225266   0.776   2.595   2.281 -0.8912 -0.4775  0.5882
   38MOL    H3325267   0.525   2.616   2.465 -2.2212  1.3733  0.7332
   38MOL    H3425268   0.479   2.847   2.493 -0.7726  1.3357  1.4065
   38MOL    H3525269   1.024   3.509   2.710  3.5434  1.7013  0.2616
   38MOL    C3625270   1.099   2.381   1.814  0.4964  0.3709 -0.3681
   38MOL    C3725271   1.118   2.428   1.945 -0.2054 -0.1156 -0.0832
   38MOL    C3825272   1.120   2.334   2.051 -0.0640  0.2169 -0.0857
   38MOL    O3925273   1.160   2.384   2.174 -0.7918  0.1927 -0.7417
   38MOL    C4025274   1.111   2.201   2.027 -0.0279  0.5544  0.4747
   38MOL    C4125275   1.087   2.150   1.896  0.2714 -0.2257  0.0982
   38MOL    C4225276   1.070   2.245   1.789 -0.3803  0.2302 -0.3104
   38MOL    C4325277   1.028   2.209   1.647 -0.0652  0.7867  0.0872
   38MOL    O4425278   0.971   2.298   1.581  0.1784  0.8091  0.0011
   38MOL    C4525279   1.054   2.064   1.591  0.0065  0.5418 -0.7804
   38MOL    C4625280   1.154   1.977   1.627 -0.7879  0.7339 -0.3184
   38MOL    C4725281   1.181   1.854   1.571  0.6431  1.3087  0.6148
   38MOL    C4825282   1.101   1.820   1.457 -0.4017  0.3891 -0.2494
   38MOL    O4925283   1.114   1.703   1.395  0.3750  0.1732  0.2906
   38MOL    C5025284   1.208   1.700   1.296  0.0302 -0.2937 -0.0316
   38MOL    C5125285   1.352   1.697   1.321  0.1076 -0.3946  0.3389
   38MOL    C5225286   1.441   1.685   1.212  0.1512 -0.5258 -0.2662
   38MOL    C5325287   1.394   1.688   1.079  0.3278 -0.1450 -0.2008
   38MOL    C5425288   1.254   1.684   1.056 -0.4327 -0.3935 -0.3270
   38MOL    C5525289   1.164   1.692   1.161  0.4351 -0.3686  0.2940
   38MOL    C5625290   0.994   1.901   1.415  0.8628 -0.4326  0.2170
   38MOL    C5725291   0.973   2.024   1.481  0.0214  0.8176  0.4990
   38MOL    H5825292   1.089   2.442   1.726 -0.0144  1.6645  0.5779
   38MOL    H5925293   1.127   2.533   1.969 -0.9983  0.1210 -0.7899
   38MOL    H6025294   1.134   2.135   2.109  0.2181 -0.0547 -0.0730
   38MOL    H6125295   1.071   2.043   1.890 -0.5590 -0.0590 -0.7161
   38MOL    H6225296   1.224   2.012   1.702 -0.2815  0.9835 -0.9044
   38MOL    H6325297   1.264   1.790   1.600 -0.2053 -0.7100 -1.3170
   38MOL    H6425298   1.376   1.689   1.426 -2.4175 -1.7172  0.8577
   38MOL    H6525299   1.547   1.683   1.229  0.2960 -2.7694 -1.2721
   38MOL    H6625300   1.218   1.689   0.954 -1.4275  1.7638  0.0854
   38MOL    H6725301   1.057   1.696   1.144  0.6714 -2.6102 -2.0179
   38MOL    H6825302   0.925   1.871   1.338 -0.4727  0.3947  1.0893
   38MOL    H6925303   0.894   2.087   1.443 -0.5583  0.5222  1.2112
   38MOL    C7025304   1.515   2.005   0.796 -0.1585  0.1976 -0.1472
   38MOL    C7125305   1.519   1.913   0.903  0.4646  0.1285  0.2274
   38MOL    C7225306   1.481   1.779   0.876  0.6106  0.4603 -0.9404
   38MOL    O7325307   1.484   1.685   0.974  0.0337  0.0713 -0.7355
   38MOL    C7425308   1.464   1.736   0.741  0.3605  0.2629  0.2547
   38MOL    C7525309   1.464   1.826   0.634 -0.4180  0.2111 -0.6834
   38MOL    C7625310   1.480   1.962   0.668 -0.0556 -0.5312  0.0534
   38MOL    C7725311   1.476   2.064   0.560  0.3140 -0.0511  0.6316
   38MOL    O7825312   1.538   2.044   0.454  0.5033 -0.1202  0.2681
   38MOL    C7925313   1.392   2.181   0.577 -0.5692  0.7929  0.2662
   38MOL    C8025314   1.282   2.185   0.659 -0.1239 -0.5694 -0.1218
   38MOL    C8125315   1.192   2.291   0.661  0.3824 -0.3270 -0.0399
   38MOL    C8225316   1.221   2.409   0.587  0.6967  0.0861  0.5439
   38MOL    O8325317   1.161   2.531   0.608 -0.1775  0.3984 -0.1912
   38MOL    C8425318   1.223   2.624   0.692  0.2209  0.7453 -0.0368
   38MOL    C8525319   1.281   2.591   0.811  0.2241  0.2216  0.1206
   38MOL    C8625320   1.338   2.695   0.897 -0.4867  0.2216  0.1727
   38MOL    C8725321   1.342   2.826   0.848 -0.2327 -0.4923  0.4045
   38MOL    C8825322   1.278   2.859   0.727  0.0864 -0.0367 -0.0313
   38MOL    C8925323   1.216   2.757   0.649 -0.5228  0.0260 -0.2804
   38MOL    C9025324   1.332   2.410   0.502  0.2035  0.0095  0.0796
   38MOL    C9125325   1.408   2.292   0.488 -0.0684  0.5211  0.4584
   38MOL    H9225326   1.519   2.110   0.819 -0.0942 -0.3822  2.7130
   38MOL    H9325327   1.541   1.937   1.006 -0.3207 -2.0438  0.9313
   38MOL    H9425328   1.434   1.634   0.719  0.3980  0.0476  1.1783
   38MOL    H9525329   1.445   1.793   0.533  1.1990  0.8608 -1.2136
   38MOL    H9625330   1.254   2.099   0.719  1.2776 -0.3336  0.8960
   38MOL    H9725331   1.101   2.294   0.720 -0.2937 -1.8743 -0.9709
   38MOL    H9825332   1.284   2.487   0.839 -0.7901  0.3322  0.6263
   38MOL    H9925333   1.379   2.667   0.993 -0.1954 -3.2373 -0.8645
   38MOL   H10025334   1.285   2.958   0.685 -0.3203 -0.0564 -0.1399
   38MOL   H10125335   1.173   2.784   0.554 -0.2346  1.3127 -0.0539
   38MOL   H10225336   1.357   2.494   0.439  0.1098 -3.2714 -4.5651
   38MOL   H10325337   1.494   2.294   0.422 -0.3941  0.8000  0.0386
   38MOL   C10425338   1.662   2.848   1.150 -0.3392 -0.3963  0.1188
   38MOL   C10525339   1.596   2.907   1.039  0.1306  0.0400 -0.1576
   38MOL   C10625340   1.456   2.911   1.038 -0.6367  0.6407  0.2537
   38MOL   O10725341   1.398   2.936   0.915 -0.2070 -0.5578 -0.3610
   38MOL   C10825342   1.377   2.889   1.148  0.5301  0.6844 -1.4373
   38MOL   C10925343   1.447   2.842   1.262 -0.1082 -0.6827  0.0572
   38MOL   C11025344   1.585   2.813   1.261 -0.2668 -0.3307 -0.3545
   38MOL   C11125345   1.648   2.746   1.381  0.9022  0.1529  0.2742
   38MOL   O11225346   1.604   2.778   1.491  0.5547  0.3773 -0.5254
   38MOL   C11325347   1.769   2.663   1.357  0.6041  0.0508  0.4723
   38MOL   C11425348   1.863   2.651   1.462 -0.6393 -0.0229  0.4736
   38MOL   C11525349   1.978   2.578   1.433  0.0275 -0.2212 -0.2069
   38MOL   C11625350   1.998   2.506   1.311 -0.2369 -0.0195 -0.5525
   38MOL   O11725351   2.107   2.426   1.300  0.6449  0.1705  0.1596
   38MOL   C11825352   2.172   2.427   1.178  0.3277  0.2989  0.1813
   38MOL   C11925353   2.242   2.316   1.133 -1.0142 -0.0202  0.3176
   38MOL   C12025354   2.299   2.320   1.002  0.4103  0.0842 -0.0051
   38MOL   C12125355   2.294   2.435   0.921 -0.0739 -0.1274 -0.4702
   38MOL   C12225356   2.238   2.550   0.972 -0.2064  0.3290  0.2219
   38MOL   C12325357   2.183   2.547   1.102 -0.8280  0.0642 -0.5347
   38MOL   C12425358   1.893   2.506   1.222  0.1974  0.8936 -0.2117
   38MOL   C12525359   1.783   2.583   1.246 -0.2165  0.0820  0.1701
   38MOL   H12625360   1.769   2.833   1.141 -0.0496  0.3779  2.0411
   38MOL   H12725361   1.655   2.930   0.951 -0.4714  0.3719 -0.4828
   38MOL   H12825362   1.270   2.891   1.138  0.2839 -2.6699  0.1198
   38MOL   H12925363   1.393   2.809   1.350 -1.5679 -0.8989 -0.8995
   38MOL   H13025364   1.859   2.690   1.563 -0.5344  2.1631 -0.3309
   38MOL   H13125365   2.049   2.574   1.514 -0.4170  1.4078  0.2755
   38MOL   H13225366   2.251   2.224   1.189  0.2983 -0.2336 -0.2118
   38MOL   H13325367   2.354   2.234   0.965  0.4001  1.0063 -2.2594
   38MOL   H13425368   2.239   2.643   0.917 -0.8823 -0.5303 -1.2519
   38MOL   H13525369   2.139   2.640   1.136 -2.2748 -0.6961 -0.3243
   38MOL   H13625370   1.902   2.450   1.131 -1.5281  1.4071 -0.7282
   38MOL   H13725371   1.705   2.583   1.170 -0.5934 -1.4196  0.5409
   38MOL   C13825372   2.697   2.541   0.850  0.0063  0.0017 -0.6504
   38MOL   C13925373   2.567   2.485   0.866 -0.5994  0.7565 -0.3255
   38MOL   C14025374   2.465   2.503   0.773 -0.3524  0.6822  0.0795
   38MOL   O14125375   2.339   2.442   0.790 -0.6611  0.4035 -0.2200
   38MOL   C14225376   2.499   2.577   0.653 -0.4470 -0.4404 -0.1381
   38MOL   C14325377   2.624   2.643   0.645  0.2796 -0.2772 -0.0102
   38MOL   C14425378   2.723   2.630   0.744  0.3302  1.2420 -0.3510
   38MOL   C14525379   2.859   2.677   0.725  0.3931  0.0437 -0.1746
   38MOL   O14625380   2.957   2.614   0.765  0.4513  0.2935  0.0097
   38MOL   C14725381   2.870   2.801   0.637 -0.0572 -0.6284  0.2215
   38MOL   C14825382   2.984   2.813   0.556 -0.4255 -0.1678 -0.7808
   38MOL   C14925383   3.012   2.933   0.490 -0.8172  0.0453 -0.3777
   38MOL   C15025384   2.917   3.031   0.480  0.0256  0.7912  0.4350
   38MOL   O15125385   2.946   3.147   0.424  0.2378  0.1836  0.4526
   38MOL   C15225386   2.932   3.153   0.289  0.2726 -0.1770 -0.2775
   38MOL   C15325387   3.050   3.163   0.207  0.7826 -0.0680 -0.0272
   38MOL   C15425388   3.036   3.186   0.067  0.0044 -0.0535 -0.5752
   38MOL   C15525389   2.906   3.197   0.012  0.2151 -0.1907  1.0747
   38MOL   C15625390   2.796   3.188   0.097  0.3128 -0.3273 -0.4262
   38MOL   C15725391   2.808   3.166   0.230 -0.8089 -0.1389 -0.0916
   38MOL   C15825392   2.794   3.017   0.550 -0.6156 -0.4424  0.1461
   38MOL   C15925393   2.780   2.911   0.641 -0.1950  0.7383 -0.3522
   38MOL   H16025394   2.784   2.523   0.911 -0.6766 -0.8360  0.0893
   38MOL   H16125395   2.546   2.434   0.959 -0.6589  0.5078 -0.4763
   38MOL   H16225396   2.423   2.588   0.577 -0.5424  2.4998  0.3162
   38MOL   H16325397   2.646   2.708   0.561 -1.4854 -0.1490 -0.4062
   38MOL   H16425398   3.061   2.739   0.567 -0.1749  0.1591 -0.3021
   38MOL   H16525399   3.095   2.955   0.425 -1.0381  0.7735 -0.4166
   38MOL   H16625400   3.148   3.157   0.251  0.0949 -0.8566  1.4546
   38MOL   H16725401   3.122   3.190   0.002  1.2001  1.4536  1.0500
   38MOL   H16825402   2.693   3.203   0.068 -0.0016  1.1825  1.3630
   38MOL   H16925403   2.722   3.177   0.294 -1.3102  0.7483 -0.8948
   38MOL   H17025404   2.725   3.100   0.547 -1.4745 -1.0696  1.9477
   38MOL   H17125405   2.702   2.904   0.714 -0.3368 -2.1285 -0.7219
   38MOL   C17225406   2.646   3.479   8.122 -0.0253 -0.6148  0.0016
   38MOL   C17325407   2.768   3.418   8.156  0.5667  0.0485  0.2168
   38MOL   C17425408   2.782   3.276   8.144  0.6462  0.3634 -0.4532
   38MOL   O17525409   2.890   3.202   8.186 -0.1339 -1.0089 -0.4222
   38MOL   C17625410   2.677   3.206   8.088  0.0897  0.6198  0.2182
   38MOL   C17725411   2.555   3.266   8.056 -0.4668  0.2257 -0.1394
   38MOL   C17825412   2.538   3.406   8.069 -0.4926  1.1623  0.1532
   38MOL   C17925413   2.406   3.464   8.020  0.7813 -0.2417  0.0406
   38MOL   O18025414   2.402   3.565   7.947  0.0719  0.5315  0.2045
   38MOL   C18125415   2.282   3.396   8.066  0.6489 -0.4061  0.3304
   38MOL   C18225416   2.274   3.307   8.176 -0.2469 -0.1430 -1.0165
   38MOL   C18325417   2.154   3.261   8.221 -0.3075 -0.2962 -0.1071
   38MOL   C18425418   2.041   3.291   8.147 -0.1932  0.0874 -0.4501
   38MOL   O18525419   1.916   3.260   8.194 -0.7900  0.5086 -0.9471
   38MOL   C18625420   1.885   3.126   8.205 -0.2499 -0.8069  0.3941
   38MOL   C18725421   1.831   3.079   0.011 -0.0690 -0.4288 -0.5391
   38MOL   C18825422   1.775   2.950   0.022 -0.0168  0.7236  0.3658
   38MOL   C18925423   1.775   2.874   8.214  0.1469  0.4563 -0.0970
   38MOL   C19025424   1.836   2.919   8.095  0.3131 -0.3222  0.3702
   38MOL   C19125425   1.896   3.042   8.086 -0.2292  0.0966 -0.0854
   38MOL   C19225426   2.049   3.370   8.030 -0.4386 -0.2767  0.6592
   38MOL   C19325427   2.167   3.429   7.999  0.0886 -0.1268  0.0445
   38MOL   H19425428   2.629   3.585   8.129  0.8436 -0.5051  0.4191
   38MOL   H19525429   2.859   3.467   8.185  1.1771 -0.3959 -0.9117
   38MOL   H19625430   2.676   3.098   8.085  0.7878  0.5555  1.5739
   38MOL   H19725431   2.466   3.221   8.014  0.2503 -0.0931 -1.3453
   38MOL   H19825432   2.362   3.275   8.231 -0.2730  2.0130  0.3166
   38MOL   H19925433   2.145   3.192   8.304  2.8925 -0.5796  0.0491
   38MOL   H20025434   1.827   3.146   0.095  0.1894  0.6104 -1.3557
   38MOL   H20125435   1.735   2.916   0.116  0.4277 -0.5202  0.1186
   38MOL   H20225436   1.826   2.862   8.004 -1.7502  1.6675 -0.6863
   38MOL   H20325437   1.943   3.070   7.993  1.7921 -0.7990  0.6473
   38MOL   H20425438   1.960   3.402   7.978  0.1316  1.5899  0.7905
   38MOL   H20525439   2.175   3.509   7.927 -0.8853  0.2595  0.3540
   38MOL   C20625440   1.572   2.578   7.926  0.8239  0.5320 -0.3064
   38MOL   C20725441   1.656   2.607   8.035  0.2586  0.4789 -0.9626
   38MOL   C20825442   1.627   2.712   8.123  0.3752  0.0865  0.8408
   38MOL   O20925443   1.716   2.746   8.222  0.1219 -0.4815  0.1177
   38MOL   C21025444   1.501   2.779   8.120 -0.2006 -0.1475 -0.5201
   38MOL   C21125445   1.405   2.742   8.020 -0.3860 -0.2878 -0.3340
   38MOL   C21225446   1.450   2.646   7.926 -0.1526  0.2522 -0.1800
   38MOL   C21325447   1.352   2.606   7.822  0.4942 -0.1652 -0.0994
   38MOL   O21425448   1.299   2.494   7.828 -0.4755 -0.2708  0.6775
   38MOL   C21525449   1.323   2.710   7.717  0.7674 -0.0891 -0.5066
   38MOL   C21625450   1.382   2.835   7.708  0.6637 -0.4030  0.0495
   38MOL   C21725451   1.349   2.931   7.610 -0.0479  0.5749 -0.1657
   38MOL   C21825452   1.262   2.898   7.506 -0.7554 -0.4785 -0.4139
   38MOL   O21925453   1.224   2.999   7.424  0.5843  0.0648  0.3461
   38MOL   C22025454   1.194   2.975   7.295 -0.6023  0.4702 -0.4362
   38MOL   C22125455   1.296   2.918   7.211  0.3351 -0.2048  0.1563
   38MOL   C22225456   1.264   2.866   7.081  0.2180  0.3495 -0.3007
   38MOL   C22325457   1.137   2.892   7.038 -0.4754  0.3158  0.4240
   38MOL   C22425458   1.043   2.959   7.109  0.1844 -1.1731 -0.0358
   38MOL   C22525459   1.067   2.999   7.241 -0.5520 -0.0826 -0.1097
   38MOL   C22625460   1.199   2.776   7.515  0.1459  0.1702  0.3933
   38MOL   C22725461   1.225   2.688   7.620  0.0106  0.6539  0.6622
   38MOL   H22825462   1.594   2.500   7.855 -1.0837  1.6409 -2.1740
   38MOL   H22925463   1.752   2.557   8.031 -0.7105 -1.5388  0.1231
   38MOL   H23025464   1.472   2.857   8.189  0.2954  2.1583 -2.8201
   38MOL   H23125465   1.309   2.791   8.019 -0.0980  0.2745 -1.3949
   38MOL   H23225466   1.436   2.874   7.792  1.5788  0.2064 -0.8224
   38MOL   H23325467   1.374   3.033   7.635  0.9239  0.3995 -0.3996
   38MOL   H23425468   1.388   2.893   7.263  0.4552  0.9313  0.4978
   38MOL   H23525469   1.342   2.808   7.032  0.8112 -0.5456  1.6407
   38MOL   H23625470   0.950   2.984   7.060  0.2098 -0.7378  0.1337
   38MOL   H23725471   0.998   3.055   7.302 -0.6281 -1.0836  0.7284
   38MOL   H23825472   1.114   2.757   7.451  0.4219 -0.3865  0.1918
   38MOL   H23925473   1.171   2.595   7.604  2.2357 -0.2998 -1.6770
   38MOL   C24025474   0.987   2.496   6.947  0.0785  0.2650  0.7563
   38MOL   C24125475   1.038   2.616   6.990  0.3132  0.1561  0.0923
   38MOL   C24225476   1.032   2.729   6.900  0.1384 -0.0846  0.3679
   38MOL   O24325477   1.106   2.845   6.916  0.4432 -0.1777 -0.1997
   38MOL   C24425478   0.946   2.725   6.786 -0.3526 -0.4059  0.0137
   38MOL   C24525479   0.893   2.602   6.746  0.4992  0.5717  0.0271
   38MOL   C24625480   0.918   2.484   6.822 -0.1530  0.1627  0.4713
   38MOL   C24725481   0.863   2.354   6.781  0.4660 -0.9287 -0.0405
   38MOL   O24825482   0.742   2.356   6.748 -0.3462  0.4563  0.0752
   38MOL   C24925483   0.945   2.229   6.772 -0.3748  0.2136 -0.1243
   38MOL   C25025484   1.084   2.234   6.808 -0.4509 -0.4479  0.1945
   38MOL   C25125485   1.154   2.111   6.815 -0.5107 -0.0761 -0.1052
   38MOL   C25225486   1.093   1.988   6.770  0.0035 -0.2323  0.0822
   38MOL   O25325487   1.165   1.872   6.780 -0.3369  0.1489 -0.6224
   38MOL   C25425488   1.194   1.795   6.671  0.2713 -0.1026 -0.7326
   38MOL   C25525489   1.227   1.662   6.696  0.2338 -0.0141  0.3492
   38MOL   C25625490   1.264   1.573   6.593 -0.1114 -0.3737 -0.7893
   38MOL   C25725491   1.272   1.625   6.466  0.0858 -0.7213 -0.3501
   38MOL   C25825492   1.227   1.758   6.443  0.0489 -0.0452 -0.1487
   38MOL   C25925493   1.204   1.853   6.542 -0.9610 -0.0163  0.6331
   38MOL   C26025494   0.963   1.989   6.722  1.0140  0.1109  0.1230
   38MOL   C26125495   0.887   2.107   6.723  0.1198 -0.2326  0.0510
   38MOL   H26225496   0.992   2.407   7.009  0.8588  0.6655  1.2761
   38MOL   H26325497   1.103   2.616   7.076 -0.6237  0.6777  0.7960
   38MOL   H26425498   0.930   2.811   6.723 -1.2329 -0.0464  0.7097
   38MOL   H26525499   0.841   2.597   6.652 -2.0062 -1.9967  1.4752
   38MOL   H26625500   1.140   2.323   6.832 -0.4148 -0.1163 -1.0837
   38MOL   H26725501   1.254   2.121   6.854 -0.6331  2.1997 -0.2751
   38MOL   H26825502   1.214   1.634   6.800  1.0338 -0.3484  0.3609
   38MOL   H26925503   1.293   1.470   6.610 -0.6791 -0.7545 -2.0799
   38MOL   H27025504   1.238   1.800   6.344 -0.7910 -0.2736 -0.3420
   38MOL   H27125505   1.180   1.958   6.529 -1.7941 -0.5077 -2.0174
   38MOL   H27225506   0.913   1.900   6.689  1.1290  0.2483 -0.4183
   38MOL   H27325507   0.785   2.108   6.687  0.0998 -2.7386 -0.0323
   38MOL   C27425508   1.654   1.411   6.386 -0.2729 -0.5322  0.0735
   38MOL   C27525509   1.515   1.423   6.394  0.5634  0.0530 -0.0698
   38MOL   C27625510   1.446   1.536   6.351 -0.5142 -0.1757 -0.4622
   38MOL   O27725511   1.314   1.549   6.363  0.1867  0.2794 -0.3843
   38MOL   C27825512   1.518   1.641   6.294 -0.3574 -0.6890 -0.2838
   38MOL   C27925513   1.657   1.636   6.283 -0.0693  0.5692 -0.6192
   38MOL   C28025514   1.727   1.518   6.328  0.3069 -0.0367 -0.6163
   38MOL   C28125515   1.874   1.496   6.304  0.3125 -0.4614  0.6063
   38MOL   O28225516   1.918   1.393   6.251 -0.4449 -0.6493 -0.5915
   38MOL   C28325517   1.969   1.590   6.373 -0.0727 -0.3905  0.1133
   38MOL   C28425518   2.107   1.578   6.341 -0.8120  0.0385 -0.1083
   38MOL   C28525519   2.203   1.662   6.399  0.0222 -0.3230  0.3534
   38MOL   C28625520   2.168   1.766   6.490 -0.7581  0.2622  0.1797
   38MOL   O28725521   2.263   1.852   6.536 -0.1434 -0.6630  0.0172
   38MOL   C28825522   2.290   1.956   6.449  0.0162  0.2380  0.2047
   38MOL   C28925523   2.375   1.942   6.332 -0.8482 -0.4867  0.3117
   38MOL   C29025524   2.415   2.059   6.264  0.3327 -0.3740 -0.3917
   38MOL   C29125525   2.368   2.188   6.306  0.2745  0.1150 -0.2949
   38MOL   C29225526   2.280   2.197   6.412 -0.2534 -0.4810  0.1197
   38MOL   C29325527   2.250   2.086   6.485  0.0515 -0.5224 -0.1063
   38MOL   C29425528   2.030   1.783   6.522 -0.3246 -0.1845  0.2749
   38MOL   C29525529   1.930   1.697   6.466  0.3408 -0.2175  0.2411
   38MOL   H29625530   1.706   1.319   6.410 -1.6220 -1.1273  0.7842
   38MOL   H29725531   1.452   1.351   6.445  1.3562 -1.6661 -1.4983
   38MOL   H29825532   1.463   1.726   6.256 -0.7696 -1.4110 -1.3214
   38MOL   H29925533   1.706   1.713   6.225  0.2749  0.2862 -0.7032
   38MOL   H30025534   2.143   1.502   6.272 -3.5750 -2.3551  0.9876
   38MOL   H30125535   2.309   1.660   6.376 -0.0166 -1.4529  0.2661
   38MOL   H30225536   2.414   1.844   6.309 -2.2999 -0.9837 -0.0306
   38MOL   H30325537   2.486   2.058   6.183  1.7028 -0.5898  0.7768
   38MOL   H30425538   2.246   2.289   6.456  3.6058  1.6044 -0.9714
   38MOL   H30525539   2.187   2.089   6.572 -1.4814  1.1586 -1.2327
   38MOL   H30625540   1.984   1.857   6.585  2.7323  0.2098  2.1445
   38MOL   H30725541   1.827   1.713   6.494  0.7937  0.8116  1.3904
   38MOL   C30825542   2.608   2.528   6.457 -0.0821 -0.4436  0.0440
   38MOL   C30925543   2.580   2.419   6.367 -0.1319  0.2492 -0.5278
   38MOL   C31025544   2.450   2.405   6.312 -0.2104  0.1049  0.0750
   38MOL   O31125545   2.412   2.296   6.239 -0.2569  0.0532  0.2972
   38MOL   C31225546   2.354   2.499   6.343 -0.3788  0.7338 -0.1009
   38MOL   C31325547   2.377   2.607   6.433 -0.1924  0.3162 -0.4209
   38MOL   C31425548   2.509   2.623   6.482 -0.3320 -0.2819 -0.1749
   38MOL   C31525549   2.544   2.747   6.566  0.3402 -0.1022  0.3145
   38MOL   O31625550   2.609   2.727   6.668  0.4559 -0.0778  0.4792
   38MOL   C31725551   2.497   2.882   6.521  0.2177 -0.8180  0.5780
   38MOL   C31825552   2.501   2.990   6.611 -0.8192 -0.3588 -0.4478
   38MOL   C31925553   2.457   3.116   6.569 -0.0472 -0.1900 -0.1011
   38MOL   C32025554   2.409   3.137   6.438 -0.3383 -0.0175 -0.9797
   38MOL   O32125555   2.356   3.261   6.410  0.1427  0.1485  0.3651
   38MOL   C32225556   2.354   3.308   6.282  0.2255  0.7333 -0.3572
   38MOL   C32325557   2.476   3.360   6.225  0.1908  0.5192  0.3630
   38MOL   C32425558   2.479   3.405   6.092 -0.6077  0.1923 -0.0684
   38MOL   C32525559   2.369   3.389   6.015 -0.6420  0.6003  0.2987
   38MOL   C32625560   2.246   3.348   6.065  0.2674 -0.3561 -0.5051
   38MOL   C32725561   2.234   3.315   6.203  0.4965 -0.4583 -0.0731
   38MOL   C32825562   2.411   3.026   6.348 -0.3812 -0.1758 -0.4929
   38MOL   C32925563   2.450   2.899   6.387 -0.2464 -0.0974 -0.0971
   38MOL   H33025564   2.707   2.537   6.498  0.3861 -2.7220 -0.5041
   38MOL   H33125565   2.649   2.336   6.365  0.4076  0.7129 -1.2775
   38MOL   H33225566   2.255   2.486   6.302 -1.1879 -0.5826  2.1281
   38MOL   H33325567   2.298   2.678   6.450  0.2997  0.4186  1.5530
   38MOL   H33425568   2.532   2.984   6.715 -4.1425 -0.3577  0.5970
   38MOL   H33525569   2.449   3.207   6.627 -0.2487  1.6437 -2.9061
   38MOL   H33625570   2.571   3.369   6.276 -0.4795  0.6310  1.6250
   38MOL   H33725571   2.574   3.438   6.053  0.2831 -1.3630  0.7153
   38MOL   H33825572   2.153   3.345   6.009  1.1456 -2.3443 -1.9050
   38MOL   H33925573   2.136   3.289   6.240  0.3829  0.6730  0.4565
   38MOL   H34025574   2.377   3.045   6.248  1.3788 -0.3360 -1.1429
   38MOL   H34125575   2.433   2.817   6.319  1.4070  0.8675 -1.7088
   38MOL   C34225576   2.501   3.167   5.666  0.3999 -0.0796 -0.3315
   38MOL   C34325577   2.408   3.245   5.742 -0.5667  0.2686 -0.1319
   38MOL   C34425578   2.450   3.366   5.793  0.2270  0.2312  0.3726
   38MOL   O34525579   2.372   3.433   5.882 -0.4515 -0.5651 -0.7475
   38MOL   C34625580   2.577   3.420   5.755 -0.1708 -0.0038 -0.5790
   38MOL   C34725581   2.666   3.345   5.672  0.4756  0.1362 -0.2350
   38MOL   C34825582   2.624   3.216   5.627  0.5248  0.1672 -0.3902
   38MOL   C34925583   2.721   3.127   5.550 -0.0579 -0.6920 -0.5900
   38MOL   O35025584   2.837   3.111   5.586  0.0423 -0.3953  0.7579
   38MOL   C35125585   2.665   3.067   5.424  0.4426 -0.0002 -0.2051
   38MOL   C35225586   2.561   3.136   5.352 -0.7885 -0.2045 -0.2434
   38MOL   C35325587   2.509   3.079   5.235 -0.7754  0.3499  0.0224
   38MOL   C35425588   2.561   2.951   5.188 -0.7717  0.8149  0.0577
   38MOL   O35525589   2.514   2.899   5.072  0.4075 -0.1538  0.3135
   38MOL   C35625590   2.598   2.907   4.958  0.5105 -0.3492 -0.6260
   38MOL   C35725591   2.686   3.019   4.945 -0.4943 -0.0808 -0.4133
   38MOL   C35825592   2.772   3.025   4.835 -0.2635 -0.1870  0.0597
   38MOL   C35925593   2.760   2.928   4.734 -0.6463 -0.2392  0.2325
   38MOL   C36025594   2.664   2.824   4.746  0.0333 -0.1430  0.2727
   38MOL   C36125595   2.586   2.806   4.860  0.3940 -0.0044 -0.1393
   38MOL   C36225596   2.670   2.885   5.260  0.0811 -0.4716 -1.2676
   38MOL   C36325597   2.721   2.943   5.381  0.1340  0.5955 -0.8565
   38MOL   H36425598   2.454   3.072   5.644 -3.9945  1.6951  0.6527
   38MOL   H36525599   2.314   3.200   5.771 -0.8584  1.1223  0.2528
   38MOL   H36625600   2.612   3.517   5.786  1.1009 -0.5310 -0.3613
   38MOL   H36725601   2.762   3.373   5.633 -0.1620  1.9721 -0.5474
   38MOL   H36825602   2.516   3.229   5.386  0.0261 -0.2087  0.8840
   38MOL   H36925603   2.434   3.130   5.177 -0.2091 -0.7740 -1.7516
   38MOL   H37025604   2.695   3.097   5.018  0.1840 -2.8640  2.5696
   38MOL   H37125605   2.836   3.108   4.813 -0.1193  0.0275  1.2716
   38MOL   H37225606   2.652   2.757   4.662  0.6698 -1.6442  1.3671
   38MOL   H37325607   2.509   2.731   4.868 -0.8245  1.0051 -2.0189
   38MOL   H37425608   2.701   2.789   5.223  2.5470  0.3889 -1.4761
   38MOL   H37525609   2.802   2.899   5.437 -2.0509 -0.9912  1.1521
   38MOL   C37625610   3.117   2.780   4.459 -0.3372 -0.4370  0.4125
   38MOL   C37725611   3.005   2.855   4.488  0.1482  0.0345 -0.9225
   38MOL   C37825612   2.939   2.848   4.608 -0.5613 -0.4612 -0.0925
   38MOL   O37925613   2.842   2.939   4.625  0.3560  0.3107 -0.2022
   38MOL   C38025614   2.974   2.751   4.704 -0.2478  0.6000 -0.0058
   38MOL   C38125615   3.094   2.676   4.681  0.0483 -0.2953 -0.1432
   38MOL   C38225616   3.168   2.688   4.557  0.0941 -0.1723  0.4204
   38MOL   C38325617   3.294   2.608   4.541  0.7785 -0.2247  0.7960
   38MOL   O38425618   3.373   2.597   4.631  0.2722 -0.3973  0.4102
   38MOL   C38525619   3.316   2.540   4.410 -0.8259  0.2726 -0.1284
   38MOL   C38625620   3.206   2.477   4.344 -0.6770 -0.1597 -0.7853
   38MOL   C38725621   3.229   2.422   4.219 -0.4687 -0.4340 -0.1589
   38MOL   C38825622   3.355   2.440   4.156  0.1862 -0.5335  0.9483
   38MOL   O38925623   3.375   2.394   4.028  0.2644  0.0113 -0.7014
   38MOL   C39025624   3.480   2.312   4.000  0.2479 -0.1137 -0.2151
   38MOL   C39125625   3.604   2.367   3.969 -0.1860 -0.2453  0.2921
   38MOL   C39225626   3.708   2.283   3.917  0.2803  0.4067 -0.0497
   38MOL   C39325627   3.690   2.145   3.903 -0.9278 -0.7062  0.0675
   38MOL   C39425628   3.566   2.090   3.933  0.3996 -0.2847 -0.1465
   38MOL   C39525629   3.462   2.176   3.986 -0.1800  0.2677  0.2707
   38MOL   C39625630   3.464   2.492   4.232 -0.7900  0.3261 -0.0874
   38MOL   C39725631   3.445   2.548   4.357  0.3743 -0.0764 -0.0844
   38MOL   H39825632   3.174   2.802   4.370  0.4497 -1.3831  0.6728
   38MOL   H39925633   2.979   2.931   4.415 -3.3264 -1.1436 -1.0280
   38MOL   H40025634   2.920   2.737   4.797 -2.3399  0.4075 -1.2140
   38MOL   H40125635   3.122   2.597   4.750  0.6240  0.0436  0.0224
   38MOL   H40225636   3.117   2.469   4.404  0.8062  0.4292  1.5702
   38MOL   H40325637   3.144   2.384   4.163 -0.1124 -0.1460 -0.9070
   38MOL   H40425638   3.621   2.474   3.974  0.3623 -0.4300  2.7880
   38MOL   H40525639   3.808   2.316   3.894 -0.1391  1.4818 -0.3492
   38MOL   H40625640   3.540   1.985   3.922 -1.1923  0.0965 -0.0983
   38MOL   H40725641   3.369   2.131   4.017  0.7337 -1.0978  1.0830
   38MOL   H40825642   3.556   2.501   4.177 -0.3457  1.3244  0.8065
   38MOL   H40925643   3.520   2.614   4.397 -0.8064  1.3265 -0.1600
   38MOL   C41025644   4.126   2.173   4.013  0.5125 -0.1653 -0.0962
   38MOL   C41125645   4.026   2.146   3.924  0.2515  0.0717 -0.6959
   38MOL   C41225646   3.907   2.080   3.960  0.5096 -0.3344  0.2325
   38MOL   O41325647   3.797   2.065   3.876 -0.1742  0.0657  0.1437
   38MOL   C41425648   3.901   2.022   4.088 -0.0689 -0.2196 -0.4184
   38MOL   C41525649   4.000   2.042   4.180  0.0424 -0.5268 -0.7505
   38MOL   C41625650   4.113   2.122   4.150 -0.2687  0.2597 -0.0978
   38MOL   C41725651   4.209   2.151   4.258  0.0929 -0.6038  0.2137
   38MOL   O41825652   4.216   2.080   4.362 -0.5668 -0.1713 -0.4887
   38MOL   C41925653   4.289   2.277   4.257 -0.5500  0.1700 -0.1359
   38MOL   C42025654   4.245   2.392   4.190  0.1156 -0.3574 -0.8569
   38MOL   C42125655   4.315   2.511   4.199  0.4702  0.2565  0.0677
   38MOL   C42225656   4.436   2.516   4.270 -0.4462  0.5979  0.4598
   38MOL   O42325657   4.499   2.635   4.292  0.0456 -0.2670 -0.5530
   38MOL   C42425658   4.597   2.674   4.206  0.1571  0.1830 -0.0151
   38MOL   C42525659   4.693   2.579   4.165 -0.4162 -0.7240  0.0089
   38MOL   C42625660   4.796   2.613   4.073  0.1842 -0.0080  0.2408
   38MOL   C42725661   4.807   2.752   4.030 -0.2522 -0.4205 -0.2205
   38MOL   C42825662   4.708   2.850   4.071 -0.3752 -0.9589  0.9770
   38MOL   C42925663   4.608   2.808   4.160  0.3631 -0.2542  0.2965
   38MOL   C43025664   4.478   2.402   4.341  0.5049 -0.9510  0.3829
   38MOL   C43125665   4.409   2.282   4.330  0.2835 -0.2418  0.2838
   38MOL   H43225666   4.211   2.236   3.989  0.2210  0.5462  0.6921
   38MOL   H43325667   4.027   2.189   3.825 -0.9019 -0.4732 -0.9428
   38MOL   H43425668   3.809   1.971   4.115 -0.0403 -0.8505 -1.4539
   38MOL   H43525669   4.002   1.997   4.278 -0.4381 -0.4773 -0.7193
   38MOL   H43625670   4.147   2.393   4.145  0.1583 -1.3028 -0.9821
   38MOL   H43725671   4.279   2.597   4.145 -1.9220 -0.0048  1.1747
   38MOL   H43825672   4.703   2.481   4.209  1.1159 -0.6823 -0.2380
   38MOL   H43925673   4.863   2.542   4.027 -0.5693 -0.0093 -0.8939
   38MOL   H44025674   4.694   2.946   4.024  0.4023 -1.5366 -0.4748
   38MOL   H44125675   4.519   2.860   4.193 -0.6294 -1.6931 -0.0678
   38MOL   H44225676   4.567   2.402   4.401  1.7446 -1.3106 -1.4159
   38MOL   H44325677   4.446   2.192   4.379 -2.2501 -0.7486  1.3420
   38MOL   C44425678   5.220   2.687   4.125  1.2026  0.0253  0.4008
   38MOL   C44525679   5.094   2.743   4.097  0.3809  0.4685 -0.1352
   38MOL   C44625680   5.040   2.736   3.967  0.1780 -0.2767 -0.2874
   38MOL   O44725681   4.910   2.789   3.945 -0.1020 -0.1961  0.2597
   38MOL   C44825682   5.119   2.691   3.864  0.2791  0.3637 -0.5073
   38MOL   C44925683   5.247   2.638   3.895  0.6267  0.4319  0.1097
   38MOL   C45025684   5.295   2.631   4.026  0.5711 -0.0465 -0.3491
   38MOL   C45125685   5.421   2.561   4.065  0.0047 -0.1117  0.5731
   38MOL   O45225686   5.510   2.560   3.978 -0.2224  0.3668  0.1555
   38MOL   C45325687   5.425   2.487   4.194  0.2393  0.2833  0.0719
   38MOL   C45425688   5.547   2.493   4.261 -0.6474  0.0398  0.3382
   38MOL   C45525689   5.570   2.426   4.384 -0.2167 -0.3054  0.6207
   38MOL   C45625690   5.460   2.378   4.452  0.5747  0.3082 -0.1769
   38MOL   O45725691   5.483   2.342   4.581 -0.1487 -0.6205  0.0882
   38MOL   C45825692   5.383   2.283   4.656 -0.0259  0.8423  0.5004
   38MOL   C45925693   5.395   2.148   4.695 -0.3789 -0.2030  0.1700
   38MOL   C46025694   5.297   2.083   4.776  0.4460 -0.4858 -0.3355
   38MOL   C46125695   5.194   2.158   4.832  0.3362  0.0051 -0.0025
   38MOL   C46225696   5.177   2.295   4.794  0.1017 -0.5532 -0.4431
   38MOL   C46325697   5.273   2.359   4.708 -0.0622  0.3692 -0.4218
   38MOL   C46425698   5.333   2.374   4.386 -1.3871 -0.2895 -0.1269
   38MOL   C46525699   5.318   2.431   4.261  0.1095  0.5738 -0.2207
   38MOL   H46625700   5.265   2.688   4.223  0.6520 -0.2858  0.6587
   38MOL   H46725701   5.025   2.774   4.174 -2.2141 -2.1263 -1.3089
   38MOL   H46825702   5.076   2.690   3.765  1.0465 -0.0838 -0.8458
   38MOL   H46925703   5.314   2.590   3.825 -1.3967 -0.6234 -1.1170
   38MOL   H47025704   5.633   2.540   4.217 -0.4054  0.0896  0.8671
   38MOL   H47125705   5.670   2.420   4.424  0.9348 -1.8052 -2.3105
   38MOL   H47225706   5.487   2.096   4.670 -1.2104 -0.7777 -1.7569
   38MOL   H47325707   5.316   1.982   4.807  2.5747 -0.6390 -2.0786
   38MOL   H47425708   5.079   2.337   4.815  0.3018  0.1310 -0.8640
   38MOL   H47525709   5.261   2.464   4.686 -0.3402  0.5495  0.5336
   38MOL   H47625710   5.246   2.330   4.433 -0.0712 -2.0451  0.7110
   38MOL   H47725711   5.221   2.438   4.214  1.5377  2.4873 -2.9885
   38MOL   C47825712   4.924   1.794   4.845 -0.3581 -0.4332 -0.6473
   38MOL   C47925713   5.032   1.883   4.870  0.3495 -0.0067 -0.0565
   38MOL   C48025714   5.009   2.021   4.887  0.1946  0.5992  0.6295
   38MOL   O48125715   5.114   2.095   4.926  0.4813  0.0322  0.2637
   38MOL   C48225716   4.882   2.076   4.888 -0.6729 -0.1628  0.2404
   38MOL   C48325717   4.773   1.991   4.859 -0.2489  0.6485 -0.1828
   38MOL   C48425718   4.794   1.853   4.844  0.0575  0.3303  0.5399
   38MOL   C48525719   4.681   1.756   4.819  0.0341  0.7936 -0.7033
   38MOL   O48625720   4.694   1.637   4.842  0.1748  0.1221 -0.4080
   38MOL   C48725721   4.557   1.804   4.773  0.2288 -1.0037 -0.2591
   38MOL   C48825722   4.441   1.770   4.843  0.1946  0.0122  0.1654
   38MOL   C48925723   4.313   1.815   4.795  0.5120  0.0543  0.0442
   38MOL   C49025724   4.305   1.893   4.672  0.4470 -0.0147  0.1296
   38MOL   O49125725   4.182   1.930   4.620  0.0155  0.3183  0.3604
   38MOL   C49225726   4.110   1.844   4.546  0.1928 -0.1366 -0.0498
   38MOL   C49325727   4.169   1.783   4.436 -0.5036  0.9180  0.0789
   38MOL   C49425728   4.101   1.684   4.361 -0.6990  0.1966 -0.3192
   38MOL   C49525729   3.976   1.644   4.412  0.2187  0.5382  0.2549
   38MOL   C49625730   3.912   1.704   4.522  0.0597 -0.6013  1.0587
   38MOL   C49725731   3.985   1.803   4.592  0.5437  0.1872  0.7472
   38MOL   C49825732   4.424   1.916   4.598 -0.2043 -0.4965 -0.0869
   38MOL   C49925733   4.553   1.874   4.650 -0.3646  0.2932  0.5301
   38MOL   H50025734   4.939   1.688   4.847  1.4452 -0.1786  1.2323
   38MOL   H50125735   5.136   1.856   4.882  0.7689  1.1571 -0.9105
   38MOL   H50225736   4.874   2.181   4.910 -3.8985 -0.2150 -0.4633
   38MOL   H50325737   4.676   2.039   4.847 -0.8920 -0.4565  0.5254
   38MOL   H50425738   4.446   1.730   4.943  1.0627 -0.9183 -0.2315
   38MOL   H50525739   4.240   1.790   4.871  0.2793  2.7096  0.7311
   38MOL   H50625740   4.266   1.807   4.395  0.7381 -2.1402  1.0972
   38MOL   H50725741   4.150   1.630   4.282  0.7662  1.2594 -0.1553
   38MOL   H50825742   3.812   1.677   4.553 -0.6222 -0.8353 -1.1887
   38MOL   H50925743   3.935   1.841   4.680 -1.3449  2.0577 -1.0748
   38MOL   H51025744   4.420   1.966   4.502  0.7391 -0.1959  0.0205
   38MOL   H51125745   4.639   1.894   4.588  0.1187 -0.7049  0.8687
   38MOL   C51225746   3.900   1.198   4.520  0.0697  1.0360 -0.6076
   38MOL   C51325747   3.858   1.323   4.466 -0.9683 -0.7291  0.0847
   38MOL   C51425748   3.956   1.413   4.411 -0.3224  0.3838  0.0644
   38MOL   O51525749   3.912   1.531   4.357  0.4793 -0.3198  0.2602
   38MOL   C51625750   4.088   1.376   4.397 -1.0496 -0.2187 -0.6354
   38MOL   C51725751   4.130   1.253   4.446  0.1968 -0.0445 -0.4108
   38MOL   C51825752   4.039   1.161   4.512 -0.2054  0.7757  0.4341
   38MOL   C51925753   4.083   1.017   4.542 -0.3616  0.0575  0.3190
   38MOL   O52025754   4.196   1.006   4.593  0.4393  0.3686 -0.0701
   38MOL   C52125755   3.987   0.900   4.526  0.1765 -0.1945 -0.2268
   38MOL   C52225756   3.896   0.894   4.415  0.8684 -0.5587  0.0147
   38MOL   C52325757   3.800   0.794   4.413 -0.2898 -0.0831  0.2101
   38MOL   C52425758   3.810   0.689   4.507  0.3483  0.3176  0.1681
   38MOL   O52525759   3.723   0.585   4.500 -0.4367  0.4427  0.5061
   38MOL   C52625760   3.599   0.602   4.542  0.0491  0.1004 -0.0159
   38MOL   C52725761   3.569   0.637   4.674 -0.9041  0.1178  0.2045
   38MOL   C52825762   3.436   0.638   4.719  0.3139  0.1964  0.0460
   38MOL   C52925763   3.329   0.618   4.628 -0.9540  0.2478  0.4377
   38MOL   C53025764   3.350   0.583   4.495  0.1058 -0.1507 -0.2564
   38MOL   C53125765   3.485   0.579   4.455 -0.6861 -0.2632  0.1337
   38MOL   C53225766   3.902   0.685   4.611 -0.2815 -0.2822 -0.0121
   38MOL   C53325767   3.983   0.798   4.625  1.4580 -0.8310  0.1557
   38MOL   H53425768   3.827   1.131   4.564 -1.3044  1.3957 -2.3051
   38MOL   H53525769   3.759   1.365   4.472 -1.1743 -1.1102 -0.6690
   38MOL   H53625770   4.162   1.438   4.348  2.5476 -3.3458  0.5691
   38MOL   H53725771   4.234   1.227   4.435  0.4580  0.8615 -0.1094
   38MOL   H53825772   3.882   0.969   4.339  0.3666 -2.4085 -1.7460
   38MOL   H53925773   3.721   0.790   4.340  0.3186 -1.7121 -0.3775
   38MOL   H54025774   3.648   0.654   4.745  2.0244 -0.9976 -2.7095
   38MOL   H54125775   3.412   0.666   4.820 -2.3747  2.2541 -1.1009
   38MOL   H54225776   3.264   0.571   4.431 -0.8896  0.3714  0.9598
   38MOL   H54325777   3.509   0.552   4.353  0.9494  0.4674  0.3075
   38MOL   H54425778   3.894   0.609   4.687 -0.2806 -0.5115 -0.2400
   38MOL   H54525779   4.043   0.801   4.716 -0.3181 -0.1563  1.3237
   38MOL   C54625780   2.869   0.741   4.564 -0.2249 -0.0460  0.4677
   38MOL   C54725781   2.973   0.665   4.612 -0.7292 -0.7678 -0.3971
   38MOL   C54825782   3.108   0.701   4.608 -0.0977  0.0726 -0.2650
   38MOL   O54925783   3.203   0.629   4.675  0.1195 -0.1863  0.2911
   38MOL   C55025784   3.138   0.829   4.556 -0.7155  0.1644 -0.5604
   38MOL   C55125785   3.034   0.910   4.501  0.1305 -0.1616 -0.1974
   38MOL   C55225786   2.899   0.865   4.507  0.1569  0.2357 -0.3455
   38MOL   C55325787   2.786   0.942   4.440  0.5418  0.1474 -0.5506
   38MOL   O55425788   2.810   1.033   4.357  0.8048 -0.0107 -0.2129
   38MOL   C55525789   2.644   0.913   4.479  0.8398 -0.2333 -0.1929
   38MOL   C55625790   2.598   0.915   4.615  0.4666 -0.2066 -0.2582
   38MOL   C55725791   2.463   0.886   4.641  0.2533 -0.3962 -0.3339
   38MOL   C55825792   2.379   0.839   4.538 -0.3623  0.4644  0.1678
   38MOL   O55925793   2.251   0.800   4.564  0.2137  0.1015  0.8490
   38MOL   C56025794   2.188   0.692   4.507  0.1105  0.2442  0.0080
   38MOL   C56125795   2.254   0.567   4.507  0.3624 -0.5547  0.4652
   38MOL   C56225796   2.197   0.454   4.442  0.8027 -0.0330  0.6857
   38MOL   C56325797   2.071   0.467   4.373  0.1811 -0.3269  0.2898
   38MOL   C56425798   2.003   0.589   4.377 -0.0793 -0.3375  0.3466
   38MOL   C56525799   2.062   0.699   4.444 -0.3812  0.5671  0.1541
   38MOL   C56625800   2.418   0.829   4.406 -0.0955 -1.1796 -0.0759
   38MOL   C56725801   2.551   0.868   4.381 -0.2763 -0.8096 -0.1972
   38MOL   H56825802   2.767   0.706   4.572 -0.2273 -0.2006 -0.2692
   38MOL   H56925803   2.942   0.573   4.659 -0.5549  0.1828  1.6318
   38MOL   H57025804   3.242   0.861   4.555 -0.8737  0.6744 -0.7710
   38MOL   H57125805   3.062   1.004   4.455 -0.8545  0.1220 -0.2272
   38MOL   H57225806   2.663   0.934   4.698 -0.2895 -0.7783  0.4744
   38MOL   H57325807   2.434   0.880   4.745 -1.8148  1.7553 -0.7530
   38MOL   H57425808   2.353   0.557   4.548  0.3142 -0.3063  0.6432
   38MOL   H57525809   2.247   0.359   4.452 -0.1205 -0.3664  2.2394
   38MOL   H57625810   1.909   0.603   4.325  0.2000 -0.3730 -0.1748
   38MOL   H57725811   2.015   0.797   4.443 -1.0133  0.2696 -2.0829
   38MOL   H57825812   2.348   0.794   4.332 -0.5602 -2.1649  0.8234
   38MOL   H57925813   2.579   0.875   4.277  2.2783 -0.2245  0.4959
   38MOL   C58025814   1.678   0.361   4.164  0.1699  0.4403 -0.9849
   38MOL   C58125815   1.811   0.396   4.189  0.1318  0.3134  0.5391
   38MOL   C58225816   1.893   0.330   4.280  0.2392  0.1814  0.0887
   38MOL   O58325817   2.020   0.360   4.300 -0.0503  0.0433  0.1750
   38MOL   C58425818   1.844   0.222   4.354  0.2020 -0.3069  0.5830
   38MOL   C58525819   1.711   0.180   4.327 -0.7770 -0.7721  0.4268
   38MOL   C58625820   1.627   0.249   4.235  0.6763  0.6799  0.1875
   38MOL   C58725821   1.483   0.197   4.211 -0.3568  0.1979 -0.3280
   38MOL   O58825822   1.445   0.088   4.238 -0.9073  0.2762  0.2102
   38MOL   C58925823   1.393   0.287   4.148  0.1433  0.8035  0.2966
   38MOL   C59025824   1.367   0.258   4.012  0.3019 -0.4732  0.3599
   38MOL   C59125825   1.281   0.341   3.937  0.3953  0.2158 -0.0361
   38MOL   C59225826   1.211   0.440   4.000 -0.2119  0.0462 -0.1440
   38MOL   O59325827   1.115   0.506   3.919  0.4097  0.3603  0.2879
   38MOL   C59425828   1.119   0.640   3.952 -0.0670  0.2408 -0.1280
   38MOL   C59525829   1.243   0.706   3.947 -0.4428 -0.3361  0.6950
   38MOL   C59625830   1.258   0.844   3.981 -0.1404  1.0252 -0.1287
   38MOL   C59725831   1.136   0.914   4.016 -0.1457 -0.1148  0.4951
   38MOL   C59825832   1.013   0.846   4.020  0.3386 -0.3519  0.1540
   38MOL   C59925833   1.002   0.713   3.995  0.5652 -0.4873  0.1854
   38MOL   C60025834   1.229   0.465   4.136  0.1856  0.1007 -0.2289
   38MOL   C60125835   1.323   0.391   4.212  0.2132 -0.1385 -1.3312
   38MOL   H60225836   1.614   0.403   4.088 -0.4159  0.6319 -0.3897
   38MOL   H60325837   1.856   0.475   4.131  0.0567 -1.4321 -1.9565
   38MOL   H60425838   1.904   0.180   4.434  0.9000  0.7040  0.5881
   38MOL   H60525839   1.688   0.086   4.375  0.3314 -1.3860 -0.2246
   38MOL   H60625840   1.413   0.174   3.961  0.2291  0.2099 -0.8438
   38MOL   H60725841   1.263   0.312   3.835  1.2514 -3.3018  0.7345
   38MOL   H60825842   1.335   0.655   3.924 -0.1905  0.3202  0.2381
   38MOL   H60925843   1.359   0.880   3.967  0.7860 -1.7478 -0.8710
   38MOL   H61025844   0.925   0.907   4.040  1.4931  0.7450  2.0499
   38MOL   H61125845   0.905   0.666   3.987 -0.5937  1.4561  2.2887
   38MOL   H61225846   1.184   0.550   4.186 -0.0377 -0.2123  0.1052
   38MOL   H61325847   1.348   0.409   4.315 -1.5016 -0.0109 -0.9219
   38MOL   C61425848   1.251   1.247   3.747  0.3266  0.0352 -0.4529
   38MOL   C61525849   1.176   1.148   3.821 -0.0220 -0.2650 -0.3020
   38MOL   C61625850   1.211   1.133   3.962 -0.1521  0.1513  0.3940
   38MOL   O61725851   1.138   1.050   4.044  0.1800  0.4210 -0.4010
   38MOL   C61825852   1.319   1.210   4.013 -0.5804  0.0577 -0.3312
   38MOL   C61925853   1.390   1.308   3.942  0.1495  0.0719 -0.8004
   38MOL   C62025854   1.353   1.329   3.807 -0.0815 -0.6503 -0.0324
   38MOL   C62125855   1.419   1.432   3.719 -0.6963 -0.5791  0.2300
   38MOL   O62225856   1.361   1.504   3.635 -0.4606  0.2122  0.3675
   38MOL   C62325857   1.569   1.446   3.734 -0.5289 -0.0142  0.4304
   38MOL   C62425858   1.652   1.333   3.742 -0.1470 -0.4637 -0.0235
   38MOL   C62525859   1.789   1.347   3.773 -0.6616 -0.5861  0.0086
   38MOL   C62625860   1.845   1.477   3.792  0.1176  0.5109  0.0016
   38MOL   O62725861   1.976   1.483   3.816  0.0356 -0.1889  0.1216
   38MOL   C62825862   2.047   1.573   3.742  0.0801 -0.0839  0.5355
   38MOL   C62925863   2.134   1.665   3.806 -0.1345 -0.1768 -0.5980
   38MOL   C63025864   2.190   1.770   3.739  0.0746 -0.3091 -1.0575
   38MOL   C63125865   2.193   1.773   3.595  0.2869 -0.0526  0.0881
   38MOL   C63225866   2.110   1.678   3.531 -0.3522 -0.5679 -0.0195
   38MOL   C63325867   2.033   1.584   3.599 -0.1720 -0.8775  0.0598
   38MOL   C63425868   1.768   1.588   3.781 -0.2235  0.4908 -0.1631
   38MOL   C63525869   1.628   1.576   3.747 -0.0340 -0.1771 -0.5529
   38MOL   H63625870   1.218   1.263   3.646  1.5184  0.1675 -0.8252
   38MOL   H63725871   1.087   1.103   3.779 -1.3838 -0.0903  2.3178
   38MOL   H63825872   1.345   1.193   4.117  1.5691  3.7278 -0.1919
   38MOL   H63925873   1.470   1.361   3.992 -0.0161  1.7085 -2.2140
   38MOL   H64025874   1.620   1.233   3.716  2.8598 -1.4170 -0.1691
   38MOL   H64125875   1.850   1.258   3.777  0.1630 -0.0791 -1.2385
   38MOL   H64225876   2.134   1.663   3.914 -2.1741  3.3193 -0.4539
   38MOL   H64325877   2.245   1.844   3.796 -1.8553 -0.9835  1.7745
   38MOL   H64425878   2.105   1.681   3.423 -0.2259  0.8675  0.0140
   38MOL   H64525879   1.964   1.515   3.552  2.8271 -3.1432 -1.1923
   38MOL   H64625880   1.816   1.683   3.797 -2.1496  1.5392 -0.4126
   38MOL   H64725881   1.572   1.668   3.736  1.6364  1.0371  0.6913
   38MOL   C64825882   2.582   1.969   3.392  0.2724  0.5092 -0.5910
   38MOL   C64925883   2.458   1.980   3.461 -0.3808 -0.1264  0.2892
   38MOL   C65025884   2.382   1.867   3.493  0.1741  0.3972  0.6692
   38MOL   O65125885   2.252   1.878   3.533  0.4934 -0.1009  0.1459
   38MOL   C65225886   2.437   1.739   3.457 -0.1189 -0.1107  0.1105
   38MOL   C65325887   2.559   1.722   3.389  0.3700  0.7701  0.3477
   38MOL   C65425888   2.635   1.841   3.367  0.4777 -0.7305  0.1311
   38MOL   C65525889   2.766   1.828   3.285 -0.4889 -0.1525 -0.1914
   38MOL   O65625890   2.778   1.742   3.200 -0.0489 -0.1781 -0.4784
   38MOL   C65725891   2.875   1.925   3.316 -0.6705  0.7297  0.2532
   38MOL   C65825892   2.894   1.992   3.439  0.3366  0.4318 -0.1344
   38MOL   C65925893   2.986   2.099   3.452 -0.0093  0.0951  0.2142
   38MOL   C66025894   3.056   2.139   3.341  0.2750 -0.2304 -0.2632
   38MOL   O66125895   3.134   2.251   3.344  0.0731 -0.5286 -0.0832
   38MOL   C66225896   3.247   2.245   3.421 -0.0170  0.1053 -0.2623
   38MOL   C66325897   3.238   2.262   3.562 -0.8433 -0.2537  0.1344
   38MOL   C66425898   3.354   2.250   3.642 -0.3405 -0.6464  0.5930
   38MOL   C66525899   3.477   2.209   3.581  0.1168  0.0316 -0.9184
   38MOL   C66625900   3.486   2.199   3.442 -0.1170 -0.1249 -0.4803
   38MOL   C66725901   3.367   2.198   3.366 -1.0768  0.2843 -0.7793
   38MOL   C66825902   3.046   2.073   3.220 -0.2086 -0.6542 -0.0456
   38MOL   C66925903   2.956   1.967   3.204 -0.3284  0.5246 -0.2394
   38MOL   H67025904   2.641   2.054   3.361  1.4512 -0.5704 -1.3621
   38MOL   H67125905   2.427   2.081   3.483 -1.3401  0.1590 -2.1120
   38MOL   H67225906   2.374   1.654   3.479 -3.4699  1.4977 -2.7906
   38MOL   H67325907   2.597   1.628   3.354 -0.4929  0.8491 -0.8382
   38MOL   H67425908   2.849   1.963   3.533  1.0694 -0.5494 -0.0684
   38MOL   H67525909   2.994   2.156   3.543  2.0432 -1.1223  0.8247
   38MOL   H67625910   3.141   2.287   3.601 -1.6496 -1.7883 -0.8584
   38MOL   H67725911   3.342   2.253   3.749  0.2214 -0.2379  0.6463
   38MOL   H67825912   3.581   2.178   3.396  1.7151  2.6271  1.8807
   38MOL   H67925913   3.372   2.157   3.266 -1.0706 -1.1342 -0.2091
   38MOL   H68025914   3.094   2.120   3.135  0.7518  1.9262  1.8273
   38MOL   H68125915   2.934   1.918   3.111 -1.4984 -0.1719  0.3855
   38MOL   H68225916   3.566   2.205   3.643 -0.7647  1.5046  0.4745
   39MOL     C125917   3.950   3.888   0.500  0.4619 -0.2499  0.0017
   39MOL     C225918   4.079   3.886   0.434 -0.2442 -0.4413  0.3834
   39MOL     C325919   4.100   3.975   0.327  0.2830 -0.5183 -0.2566
   39MOL     O425920   4.228   3.974   0.272 -0.4567  0.0997 -0.2848
   39MOL     C525921   3.999   4.073   0.297  0.2449 -0.5897  0.1157
   39MOL     C625922   3.873   4.073   0.367 -0.2661 -0.5588  1.2073
   39MOL     C725923   3.851   3.981   0.471 -0.2079 -0.5815 -0.2578
   39MOL     C825924   3.713   3.970   0.545  0.2052  0.2328  0.1697
   39MOL     O925925   3.652   3.863   0.549  0.4209 -0.4685 -0.2853
   39MOL    C1025926   3.658   4.095   0.607  0.5952  0.1980 -0.1813
   39MOL    C1125927   3.745   4.206   0.630 -0.1138  0.0130 -0.1811
   39MOL    C1225928   3.700   4.311   0.706  0.7121 -0.2186 -0.0029
   39MOL    C1325929   3.570   4.312   0.762 -0.1195  0.4740 -1.2603
   39MOL    O1425930   3.517   4.414   0.838  0.2884 -0.1122  0.2948
   39MOL    C1525931   3.587   4.461   0.952 -0.0413  0.1472 -0.2291
   39MOL    C1625932   3.600   4.597   0.971 -0.1933  0.4440  0.0900
   39MOL    C1725933   3.690   4.647   1.068 -0.5398 -0.0013 -0.1138
   39MOL    C1825934   3.748   4.558   1.161  0.3436  0.8380 -0.7951
   39MOL    C1925935   3.724   4.420   1.147  0.0444 -0.0892 -0.2954
   39MOL    C2025936   3.651   4.374   1.037  0.3028  0.3297  0.1523
   39MOL    C2125937   3.481   4.211   0.737  0.0836 -0.0893 -0.5706
   39MOL    C2225938   3.524   4.100   0.663  0.3786  0.3049  0.7907
   39MOL    H2325939   3.936   3.820   0.583 -2.4080 -0.6297 -0.7690
   39MOL    H2425940   4.147   3.812   0.473  1.1342 -0.0774 -1.2949
   39MOL    H2525941   4.015   4.146   0.219  1.3144 -0.8650  0.0623
   39MOL    H2625942   3.790   4.138   0.344 -0.8052 -1.6806 -0.1163
   39MOL    H2725943   3.849   4.213   0.601 -0.3174 -2.3903 -1.6752
   39MOL    H2825944   3.768   4.395   0.703  0.6053 -0.1261  0.1773
   39MOL    H2925945   3.570   4.665   0.893 -2.7249 -0.8723 -0.1489
   39MOL    H3025946   3.703   4.753   1.083 -0.1096 -0.2066  1.0021
   39MOL    H3125947   3.770   4.348   1.212 -2.6460 -1.5328  0.0698
   39MOL    H3225948   3.627   4.270   1.018  1.6362 -0.6315  3.2920
   39MOL    H3325949   3.384   4.204   0.785  1.3756 -1.0718  1.9691
   39MOL    H3425950   3.464   4.013   0.640  1.0962 -0.3093  1.2481
   39MOL    H3525951   4.291   3.904   0.281  1.4790  1.8012 -0.1397
   39MOL    C3625952   3.631   4.790   1.529  0.7105 -0.4538 -0.5205
   39MOL    C3725953   3.702   4.769   1.413 -0.3709 -0.4941  0.3717
   39MOL    C3825954   3.741   4.638   1.384 -0.3016 -0.4713  0.6470
   39MOL    O3925955   3.819   4.606   1.272  0.0942 -0.0268  0.5095
   39MOL    C4025956   3.702   4.532   1.466  0.0604 -0.4424 -0.4639
   39MOL    C4125957   3.629   4.557   1.583 -0.5336 -0.3340 -0.0218
   39MOL    C4225958   3.598   4.688   1.615  0.7404  0.0897  0.2894
   39MOL    C4325959   3.510   4.715   1.741  0.1602  0.6391  0.2586
   39MOL    O4425960   3.465   4.825   1.760 -0.1855 -0.1613  0.2354
   39MOL    C4525961   3.486   4.599   1.832  0.6968  0.2899  0.4388
   39MOL    C4625962   3.354   4.553   1.845  0.1047  0.7067  0.3013
   39MOL    C4725963   3.317   4.447   1.934 -0.5865 -0.4793 -0.2400
   39MOL    C4825964   3.419   4.391   2.016  0.3079 -1.6918  0.6514
   39MOL    O4925965   3.390   4.292   2.110  0.7368 -0.0368  0.8788
   39MOL    C5025966   3.357   4.169   2.058  0.2452  0.1532  0.6534
   39MOL    C5125967   3.452   4.089   1.992  0.2175 -0.4788  0.1289
   39MOL    C5225968   3.420   3.958   1.943 -0.2907 -0.4178 -0.6578
   39MOL    C5325969   3.283   3.914   1.955  0.1178 -0.7391 -0.0857
   39MOL    C5425970   3.185   3.994   2.013 -0.5392  0.4985  0.4915
   39MOL    C5525971   3.225   4.121   2.065 -0.4711 -0.6069 -0.1094
   39MOL    C5625972   3.552   4.440   2.007 -0.3192 -0.1707  0.4703
   39MOL    C5725973   3.583   4.544   1.921 -0.3045  0.4113 -0.2485
   39MOL    H5825974   3.591   4.889   1.546 -2.7439 -1.7510 -0.7072
   39MOL    H5925975   3.731   4.859   1.361 -0.3414 -0.7308 -0.0271
   39MOL    H6025976   3.728   4.430   1.442  2.7279  0.0527  0.1761
   39MOL    H6125977   3.598   4.472   1.643  2.3375 -1.6979 -0.3798
   39MOL    H6225978   3.274   4.587   1.781 -0.7650 -1.0607  0.4121
   39MOL    H6325979   3.215   4.419   1.956 -1.1789  1.5870 -0.2313
   39MOL    H6425980   3.555   4.122   1.987  0.4925 -0.9925  2.0108
   39MOL    H6525981   3.494   3.905   1.885  1.1843  2.7780 -1.8326
   39MOL    H6625982   3.084   3.958   2.024 -0.5623  0.7644  1.1666
   39MOL    H6725983   3.159   4.187   2.120 -1.2832 -0.3646 -1.3741
   39MOL    H6825984   3.633   4.403   2.069  0.9469  0.7253 -0.6240
   39MOL    H6925985   3.679   4.592   1.912  0.6230 -1.4980 -0.5836
   39MOL    C7025986   3.257   3.567   2.178  0.3885  0.3931 -0.4449
   39MOL    C7125987   3.279   3.675   2.099  0.3170 -0.8383 -0.8223
   39MOL    C7225988   3.235   3.679   1.964 -0.2546 -0.7181  0.4044
   39MOL    O7325989   3.256   3.798   1.895 -0.0546  0.1017  0.7180
   39MOL    C7425990   3.170   3.562   1.911 -0.0009 -0.1402 -0.4779
   39MOL    C7525991   3.169   3.446   1.988  1.0515 -0.0952 -0.0268
   39MOL    C7625992   3.208   3.448   2.123  0.2724  0.7548  0.5785
   39MOL    C7725993   3.210   3.326   2.216  0.5298  0.2639  0.0474
   39MOL    O7825994   3.182   3.219   2.168  0.1128  0.0909  0.3665
   39MOL    C7925995   3.226   3.340   2.361  0.2764  0.4471 -0.6119
   39MOL    C8025996   3.143   3.426   2.440 -0.3342 -0.5128  0.0727
   39MOL    C8125997   3.157   3.424   2.580 -0.2700  0.1546 -0.6468
   39MOL    C8225998   3.255   3.344   2.641 -0.4283 -0.1666 -0.1835
   39MOL    O8325999   3.262   3.329   2.774 -0.0625  0.3519  0.0139
   39MOL    C8426000   3.308   3.433   2.850 -0.2761  0.0614  0.7008
   39MOL    C8526001   3.431   3.494   2.825 -0.3150  0.0344 -0.0822
   39MOL    C8626002   3.463   3.605   2.903 -0.1068 -0.6348 -0.5718
   39MOL    C8726003   3.381   3.637   3.019  0.1355  0.8883 -0.5968
   39MOL    C8826004   3.262   3.567   3.048  0.4772  0.3239 -0.0069
   39MOL    C8926005   3.220   3.472   2.957  1.1010  0.2582  0.5327
   39MOL    C9026006   3.330   3.248   2.565 -0.0654  0.4771  0.6449
   39MOL    C9126007   3.311   3.247   2.426 -0.3232 -0.0882 -0.2463
   39MOL    H9226008   3.305   3.566   2.275  1.0791 -1.1665 -0.7868
   39MOL    H9326009   3.338   3.752   2.144  2.5055 -0.9292 -3.3645
   39MOL    H9426010   3.128   3.566   1.812  0.8133 -0.4531 -0.8438
   39MOL    H9526011   3.127   3.356   1.946 -0.9805  1.9856 -2.7324
   39MOL    H9626012   3.070   3.490   2.394  0.9771  0.6605 -0.4327
   39MOL    H9726013   3.102   3.489   2.647  0.3447 -1.2415  1.2769
   39MOL    H9826014   3.489   3.467   2.738  0.9857 -0.8750  1.0336
   39MOL    H9926015   3.559   3.653   2.886  0.2133 -0.6117  1.1781
   39MOL   H10026016   3.200   3.584   3.135 -0.8319  0.1550 -0.8935
   39MOL   H10126017   3.127   3.417   2.961 -0.5345  2.7758 -1.7147
   39MOL   H10226018   3.419   3.204   2.607 -0.1356  1.0748  1.4262
   39MOL   H10326019   3.378   3.186   2.366  0.6439  0.2887  0.4402
   39MOL   C10426020   3.809   3.745   3.148  0.5305 -0.4938 -0.2480
   39MOL   C10526021   3.672   3.771   3.112 -0.5596 -0.7692  0.0011
   39MOL   C10626022   3.566   3.689   3.150  0.0004 -0.1196  0.6228
   39MOL   O10726023   3.438   3.714   3.120  0.0880 -0.1928  0.2735
   39MOL   C10826024   3.599   3.572   3.220 -0.1861 -0.3488 -0.1113
   39MOL   C10926025   3.729   3.548   3.264 -0.7886  0.2675 -0.0153
   39MOL   C11026026   3.839   3.635   3.234  0.0339  0.0265 -0.7089
   39MOL   C11126027   3.979   3.607   3.288 -0.1177  0.1058 -0.4553
   39MOL   O11226028   4.007   3.497   3.322  0.1389  0.5196  0.8983
   39MOL   C11326029   4.074   3.716   3.322  0.3821  0.0795  0.2746
   39MOL   C11426030   4.210   3.694   3.301 -0.5697  0.2530  1.0156
   39MOL   C11526031   4.301   3.794   3.331 -0.1877  0.3881 -0.9149
   39MOL   C11626032   4.257   3.913   3.387  0.0079  0.0267 -0.2712
   39MOL   O11726033   4.347   3.998   3.437 -0.0264  0.4271 -0.5670
   39MOL   C11826034   4.417   4.081   3.352  0.1625 -0.1096 -0.2840
   39MOL   C11926035   4.355   4.190   3.294 -0.3974 -0.5734 -0.1064
   39MOL   C12026036   4.424   4.277   3.212  0.4686  0.1487 -0.0673
   39MOL   C12126037   4.560   4.254   3.184  0.0943 -0.1404  0.2125
   39MOL   C12226038   4.616   4.135   3.222  0.0981 -0.2765 -0.2054
   39MOL   C12326039   4.546   4.051   3.310  0.3299  0.1455  0.6272
   39MOL   C12426040   4.121   3.939   3.403  0.8084  0.0875 -0.2159
   39MOL   C12526041   4.029   3.844   3.371 -0.0609  0.6480 -0.3239
   39MOL   H12626042   3.883   3.812   3.104 -0.1142 -0.2518 -0.9759
   39MOL   H12726043   3.645   3.856   3.052  3.2432 -0.3042 -1.2092
   39MOL   H12826044   3.526   3.504   3.262  0.9202 -1.2167  0.4347
   39MOL   H12926045   3.747   3.454   3.314  0.7852 -0.3159 -1.6308
   39MOL   H13026046   4.258   3.604   3.266 -0.0821  1.0092 -0.3129
   39MOL   H13126047   4.406   3.771   3.335 -0.1812  0.6685  1.8697
   39MOL   H13226048   4.252   4.208   3.318 -0.0360 -1.8761  2.6263
   39MOL   H13326049   4.362   4.360   3.180 -1.3146 -0.6356  1.2466
   39MOL   H13426050   4.717   4.111   3.191 -0.7149 -4.2681 -0.0587
   39MOL   H13526051   4.592   3.957   3.336 -1.5614 -1.0030 -0.1333
   39MOL   H13626052   4.087   4.034   3.442 -0.9290 -0.5871 -0.0467
   39MOL   H13726053   3.925   3.872   3.385 -0.2989 -0.0851 -0.5720
   39MOL   C13826054   4.872   4.429   3.359  0.0715  0.2040  0.8282
   39MOL   C13926055   4.747   4.410   3.298 -0.1431  0.4732  0.0192
   39MOL   C14026056   4.739   4.386   3.161 -0.1503  0.2001 -0.2102
   39MOL   O14126057   4.620   4.347   3.105  0.2886 -0.5995  0.1345
   39MOL   C14226058   4.850   4.374   3.086  0.1151  0.2421  0.1045
   39MOL   C14326059   4.978   4.400   3.146  0.3661 -0.4192  0.3389
   39MOL   C14426060   4.995   4.429   3.283 -0.9875  0.0100 -0.6124
   39MOL   C14526061   5.120   4.462   3.359 -0.2285  0.1706  0.1837
   39MOL   O14626062   5.110   4.522   3.465  0.8603  0.2012 -0.4399
   39MOL   C14726063   5.258   4.424   3.307 -0.5377  0.0215  0.3089
   39MOL   C14826064   5.367   4.506   3.342 -0.4038 -0.2893 -0.2243
   39MOL   C14926065   5.498   4.482   3.287 -0.0775  0.2525 -0.7394
   39MOL   C15026066   5.518   4.378   3.199 -0.5975  0.3889 -0.1970
   39MOL   O15126067   5.644   4.361   3.149 -0.2448  0.3041  0.3049
   39MOL   C15226068   5.673   4.273   3.051 -0.0493  0.3553  0.1503
   39MOL   C15326069   5.695   4.316   2.920  0.3795 -0.1156  0.1843
   39MOL   C15426070   5.736   4.221   2.823  0.6194 -0.0055 -0.0584
   39MOL   C15526071   5.753   4.083   2.849  0.6207  0.1546  0.4505
   39MOL   C15626072   5.712   4.037   2.978  0.0965 -0.2446 -0.2503
   39MOL   C15726073   5.684   4.132   3.076 -0.2724  0.4917 -0.3406
   39MOL   C15826074   5.406   4.299   3.159 -0.5670 -0.0753 -0.0122
   39MOL   C15926075   5.281   4.317   3.222 -0.2092 -0.0346  0.2678
   39MOL   H16026076   4.867   4.440   3.467 -0.6418  0.3132  0.7879
   39MOL   H16126077   4.659   4.408   3.361 -1.6743 -2.0205 -2.0746
   39MOL   H16226078   4.831   4.346   2.983 -2.9078 -0.0506  0.6951
   39MOL   H16326079   5.067   4.401   3.085  0.5824  0.1163  0.6553
   39MOL   H16426080   5.342   4.574   3.422 -1.4171 -0.7351 -0.1636
   39MOL   H16526081   5.580   4.546   3.316  0.5579 -0.0506 -1.8570
   39MOL   H16626082   5.673   4.419   2.896 -0.6605 -0.4345 -0.2990
   39MOL   H16726083   5.748   4.259   2.723  0.3678  1.0429  0.3046
   39MOL   H16826084   5.719   3.930   2.993  1.2843 -0.3575 -1.4665
   39MOL   H16926085   5.661   4.093   3.174  0.3619 -0.6114 -0.6174
   39MOL   H17026086   5.408   4.210   3.097 -0.3110 -0.3111  0.3343
   39MOL   H17126087   5.202   4.245   3.206 -0.8650  0.7077  0.0985
   39MOL   C17226088   6.109   3.818   2.853 -1.0397 -0.4076 -0.3120
   39MOL   C17326089   6.023   3.917   2.803 -0.9071 -0.2103 -0.3285
   39MOL   C17426090   5.889   3.893   2.792  0.5162 -0.2593 -0.0626
   39MOL   O17526091   5.797   3.992   2.757 -0.3212  0.4832 -0.0013
   39MOL   C17626092   5.838   3.760   2.819  0.6168 -0.1965 -0.2591
   39MOL   C17726093   5.922   3.660   2.876 -0.0985  0.4226  0.1194
   39MOL   C17826094   6.060   3.692   2.894  0.1939  0.1773  0.7242
   39MOL   C17926095   6.153   3.592   2.952  0.2544  0.1228 -0.5702
   39MOL   O18026096   6.142   3.471   2.922 -0.1708  0.3728  0.0963
   39MOL   C18126097   6.266   3.644   3.041 -0.0261  0.0983  0.3339
   39MOL   C18226098   6.255   3.764   3.116 -0.4516 -0.4516 -0.2076
   39MOL   C18326099   6.366   3.812   3.189 -0.0273 -0.1362  0.1142
   39MOL   C18426100   6.489   3.739   3.191  0.1499 -0.6636  0.2542
   39MOL   O18526101   6.595   3.795   3.257  0.0311  0.3893  0.1385
   39MOL   C18626102   6.589   3.799   3.394  0.2856 -0.0253 -0.6415
   39MOL   C18726103   6.491   3.730   3.472  0.0671  0.7003  0.1975
   39MOL   C18826104   6.495   3.732   3.617 -0.2077  0.3013  0.4652
   39MOL   C18926105   6.589   3.820   3.681 -0.6196  0.9218 -0.3301
   39MOL   C19026106   6.685   3.889   3.602  0.2207 -0.2433 -0.7267
   39MOL   C19126107   6.688   3.870   3.467 -0.0129  0.4646 -0.0039
   39MOL   C19226108   6.497   3.621   3.112  0.1950 -0.3801  0.4691
   39MOL   C19326109   6.389   3.573   3.039 -0.1591 -0.3408 -0.4198
   39MOL   H19426110   6.211   3.845   2.872 -1.3284  0.3331  0.2244
   39MOL   H19526111   6.055   4.019   2.789 -1.7291  0.2170  0.8157
   39MOL   H19626112   5.737   3.732   2.795  0.6817 -1.2930  0.6701
   39MOL   H19726113   5.876   3.563   2.889 -2.0395  0.7079 -3.9129
   39MOL   H19826114   6.163   3.818   3.131 -0.2380 -0.1740  0.1317
   39MOL   H19926115   6.366   3.896   3.258 -2.2094 -1.4063  1.7245
   39MOL   H20026116   6.419   3.673   3.416 -0.2503  0.1099  1.2102
   39MOL   H20126117   6.426   3.674   3.677  0.6350 -0.5204  0.6319
   39MOL   H20226118   6.757   3.951   3.653 -0.7839 -0.0273  0.4619
   39MOL   H20326119   6.763   3.908   3.399  0.9567 -0.2835  0.6281
   39MOL   H20426120   6.588   3.563   3.113  1.2947  1.3295  0.5442
   39MOL   H20526121   6.396   3.479   2.985  2.3249 -1.3614  1.5938
   39MOL   C20626122   6.929   3.727   3.936  0.9155  0.8974  0.7257
   39MOL   C20726123   6.824   3.804   3.883  0.0618  0.5165  0.7816
   39MOL   C20826124   6.690   3.749   3.872  0.9026 -0.4759  0.4212
   39MOL   O20926125   6.592   3.827   3.816  0.0547  0.4954  0.1366
   39MOL   C21026126   6.670   3.615   3.915  0.2419 -0.4528  0.6658
   39MOL   C21126127   6.779   3.545   3.977  0.9307 -0.2240 -0.1231
   39MOL   C21226128   6.907   3.603   3.993 -0.1199  0.3090  0.2787
   39MOL   C21326129   7.024   3.520   4.050  0.0699 -0.1552 -0.2264
   39MOL   O21426130   7.015   3.396   4.050 -0.2634  0.1361  0.1101
   39MOL   C21526131   7.141   3.582   4.116 -0.0082  0.0785 -0.0252
   39MOL   C21626132   7.257   3.505   4.126 -0.5263  0.0270  0.5389
   39MOL   C21726133   7.372   3.566   4.181  0.1882 -1.1078  0.3436
   39MOL   C21826134   7.373   3.698   4.229 -0.6658 -0.1586  0.3151
   39MOL   O21926135   7.489   3.756   4.280 -0.3687 -0.4960 -0.2219
   39MOL   C22026136   7.527   3.727   4.407 -0.0673 -0.4038  0.0923
   39MOL   C22126137   7.443   3.662   4.499  0.2317  0.0713 -0.1263
   39MOL   C22226138   7.483   3.635   4.633 -0.1971 -0.5285  0.3040
   39MOL   C22326139   7.614   3.679   4.675 -0.2673  0.2819  0.2071
   39MOL   C22426140   7.702   3.732   4.576  0.2357  0.1789  0.0866
   39MOL   C22526141   7.662   3.757   4.446  0.6728  0.9294 -0.1385
   39MOL   C22626142   7.252   3.768   4.228  0.5945 -0.4133  0.4287
   39MOL   C22726143   7.140   3.715   4.169 -0.1948 -0.1453  0.8217
   39MOL   H22826144   7.027   3.772   3.939  1.2712  0.3460 -1.6841
   39MOL   H22926145   6.850   3.902   3.846 -2.0419  0.3064 -1.4406
   39MOL   H23026146   6.575   3.567   3.894  0.5584 -1.0612  0.6159
   39MOL   H23126147   6.771   3.446   4.019  3.5945 -0.3833  0.1103
   39MOL   H23226148   7.264   3.409   4.077 -0.7064 -0.0330  0.6296
   39MOL   H23326149   7.466   3.514   4.168  0.7586 -0.1068  0.4476
   39MOL   H23426150   7.341   3.636   4.474  0.6143 -1.7778  0.1404
   39MOL   H23526151   7.416   3.593   4.707  0.2702  0.3200  1.2226
   39MOL   H23626152   7.802   3.765   4.600 -0.3082  0.8650  1.4808
   39MOL   H23726153   7.729   3.793   4.369  1.6997  1.2678  0.8829
   39MOL   H23826154   7.256   3.865   4.275  1.4119 -0.8155  1.1910
   39MOL   H23926155   7.049   3.774   4.172  0.6065  1.1044  1.1483
   39MOL   C24026156   7.969   3.516   4.864 -0.4666 -0.0457 -0.4857
   39MOL   C24126157   7.832   3.527   4.831 -0.5771 -0.5876  0.2626
   39MOL   C24226158   7.773   3.654   4.853  0.5696  0.3465 -0.9906
   39MOL   O24326159   7.644   3.675   4.810 -0.3616 -0.9409 -0.1834
   39MOL   C24426160   7.842   3.758   4.916 -0.3935  0.4845  0.0455
   39MOL   C24526161   7.978   3.741   4.951 -0.1991 -0.0159  0.0656
   39MOL   C24626162   8.040   3.624   4.924 -0.0168 -0.4438  0.0267
   39MOL   C24726163   8.179   3.599   4.977  0.4383 -0.8694  0.6395
   39MOL   O24826164   8.215   3.669   5.068 -0.4731  0.1224  0.4437
   39MOL   C24926165   8.281   3.515   4.904 -0.6764 -0.7554 -0.2101
   39MOL   C25026166   8.276   3.503   4.764  0.4254  0.3735  0.2325
   39MOL   C25126167   0.075   3.447   4.694  0.4221  0.1884  0.8372
   39MOL   C25226168   0.186   3.404   4.766 -1.0602 -0.7690  0.2755
   39MOL   O25326169   0.304   3.377   4.699  0.1762 -0.0105  0.0461
   39MOL   C25426170   0.356   3.253   4.699 -0.1336 -0.2470 -0.3955
   39MOL   C25526171   0.323   3.158   4.602  0.1696  0.1087  0.1228
   39MOL   C25626172   0.361   3.025   4.629  0.7549 -0.4065  0.6554
   39MOL   C25726173   0.444   2.986   4.736  0.5080  0.2770  0.2598
   39MOL   C25826174   0.486   3.085   4.829 -0.1227  0.6713  0.3111
   39MOL   C25926175   0.443   3.218   4.804  0.4118  0.3107  0.2659
   39MOL   C26026176   0.185   3.398   4.904 -0.7682 -0.3926  0.0873
   39MOL   C26126177   0.077   3.458   4.975  0.3982  0.1126  0.6695
   39MOL   H26226178   8.018   3.420   4.851  0.6635  0.8858 -3.8005
   39MOL   H26326179   7.784   3.439   4.791 -0.6133 -0.5913  0.3162
   39MOL   H26426180   7.791   3.851   4.936  2.2182  1.7560  0.9993
   39MOL   H26526181   8.025   3.823   5.004 -0.2779  0.2753 -0.3213
   39MOL   H26626182   8.197   3.552   4.709 -0.0895 -0.4985  0.1938
   39MOL   H26726183   0.084   3.454   4.586  0.8755  0.2784  0.8780
   39MOL   H26826184   0.268   3.162   4.509 -0.5099  2.1076  0.5659
   39MOL   H26926185   0.329   2.941   4.569 -3.2979 -0.5165  2.8583
   39MOL   H27026186   0.548   3.060   4.914  0.1669 -0.2057 -0.1468
   39MOL   H27126187   0.478   3.295   4.871  0.7184 -0.0555  0.5255
   39MOL   H27226188   0.272   3.352   4.949 -0.1941 -0.7202 -1.3560
   39MOL   H27326189   0.087   3.472   5.082 -0.7576 -0.4315  0.8492
   39MOL   C27426190   0.581   2.752   5.077 -0.1949 -0.3893 -1.0515
   39MOL   C27526191   0.499   2.790   4.972 -0.9282  0.3200  0.1756
   39MOL   C27626192   0.555   2.817   4.846 -0.1811 -0.3633 -0.5908
   39MOL   O27726193   0.474   2.852   4.741  0.1158 -0.6800  0.4264
   39MOL   C27826194   0.694   2.806   4.834  0.6164  0.2414  0.3617
   39MOL   C27926195   0.775   2.767   4.942 -1.0558 -0.1306 -0.6920
   39MOL   C28026196   0.723   2.733   5.066 -0.3465  0.0576 -0.0730
   39MOL   C28126197   0.804   2.696   5.185  0.0674  0.3379 -0.0026
   39MOL   O28226198   0.844   2.578   5.201 -0.0335  0.6360 -0.2434
   39MOL   C28326199   0.846   2.807   5.275 -0.2001  0.0912 -0.1384
   39MOL   C28426200   0.790   2.936   5.262 -0.1944 -0.1973 -0.1524
   39MOL   C28526201   0.816   3.031   5.364 -0.3180 -0.5771  0.3636
   39MOL   C28626202   0.900   3.006   5.471 -0.7538  0.5172  0.5234
   39MOL   O28726203   0.923   3.099   5.569 -0.4509 -0.1125  0.2799
   39MOL   C28826204   0.814   3.145   5.633 -0.2927  0.3983  0.6848
   39MOL   C28926205   0.766   3.081   5.748 -0.0604 -0.6387  0.0169
   39MOL   C29026206   0.652   3.132   5.815  0.3500  0.0658 -0.5176
   39MOL   C29126207   0.592   3.247   5.768 -0.1769  0.2889  0.8513
   39MOL   C29226208   0.637   3.305   5.644  0.2994 -0.1656 -0.3970
   39MOL   C29326209   0.753   3.259   5.576 -0.0576 -0.0160 -0.5424
   39MOL   C29426210   0.959   2.876   5.485 -0.5526 -0.0982  0.2365
   39MOL   C29526211   0.924   2.779   5.390 -0.1673 -0.2177  0.2654
   39MOL   H29626212   0.534   2.727   5.171  3.0645  0.3063  0.8599
   39MOL   H29726213   0.392   2.778   4.981 -0.8855  0.6868  1.1705
   39MOL   H29826214   0.743   2.830   4.741  1.6567 -1.1934  0.5332
   39MOL   H29926215   0.880   2.765   4.916 -0.8698 -2.6141  0.0957
   39MOL   H30026216   0.733   2.962   5.175 -0.1534  0.5267  0.0349
   39MOL   H30126217   0.789   3.135   5.351  1.0855 -0.2413 -0.0727
   39MOL   H30226218   0.820   2.996   5.785 -0.8475 -1.3859 -0.5306
   39MOL   H30326219   0.615   3.095   5.909 -0.6039  1.0312 -0.4993
   39MOL   H30426220   0.597   3.397   5.604  0.5585  0.0309 -0.2106
   39MOL   H30526221   0.796   3.314   5.493 -2.8204  1.9992 -0.6924
   39MOL   H30626222   1.022   2.845   5.567  0.6531 -0.9065 -0.9785
   39MOL   H30726223   0.983   2.690   5.409  4.0271  2.4388  0.1032
   39MOL   C30826224   0.481   3.277   6.201  0.2320  0.2359  0.2464
   39MOL   C30926225   0.466   3.240   6.064  0.4734 -0.0423  0.1001
   39MOL   C31026226   0.504   3.328   5.965 -0.3142 -0.2459  0.5088
   39MOL   O31126227   0.484   3.303   5.829 -0.3981 -0.1896  0.0994
   39MOL   C31226228   0.577   3.441   6.000  0.0422 -0.1728  0.2683
   39MOL   C31326229   0.595   3.477   6.132  0.3544 -0.1830 -0.1287
   39MOL   C31426230   0.536   3.398   6.237 -0.4491  0.0687  1.1256
   39MOL   C31526231   0.567   3.429   6.379 -0.1381  0.3575  0.5440
   39MOL   O31626232   0.638   3.359   6.451 -0.0671  0.6090  0.4415
   39MOL   C31726233   0.508   3.557   6.431 -1.0022 -1.0296  0.6078
   39MOL   C31826234   0.579   3.639   6.524  0.6121 -1.3017  0.0327
   39MOL   C31926235   0.529   3.768   6.557  0.0491  0.7085 -0.4350
   39MOL   C32026236   0.401   3.804   6.507  0.2089 -0.2530  0.7971
   39MOL   O32126237   0.347   3.929   6.538  0.2204  0.1387 -0.0213
   39MOL   C32226238   0.218   3.939   6.585  1.2243 -0.5020  0.3030
   39MOL   C32326239   0.142   4.055   6.556  0.1452  0.4906  0.4569
   39MOL   C32426240   0.008   4.066   6.592  0.4048  0.1679  0.1362
   39MOL   C32526241   8.267   3.963   6.669  1.0183 -0.4514 -0.3349
   39MOL   C32626242   0.028   3.849   6.699 -0.3441  0.1281 -0.1190
   39MOL   C32726243   0.155   3.834   6.657 -0.2523  0.0982  0.3166
   39MOL   C32826244   0.331   3.728   6.414  0.2675 -0.0553 -0.7227
   39MOL   C32926245   0.386   3.605   6.380 -0.4343 -0.4904 -0.7477
   39MOL   H33026246   0.450   3.200   6.269  2.1638 -1.3192 -0.6063
   39MOL   H33126247   0.424   3.146   6.032  0.2565  0.5992 -1.5643
   39MOL   H33226248   0.621   3.504   5.924  0.0125  1.6198  1.7084
   39MOL   H33326249   0.648   3.570   6.146  1.8428 -1.0095 -0.2364
   39MOL   H33426250   0.681   3.617   6.549  1.0634 -0.2581 -0.8034
   39MOL   H33526251   0.582   3.832   6.626  0.4759 -0.9090  0.7733
   39MOL   H33626252   0.195   4.135   6.507  1.2870 -0.7925 -0.4182
   39MOL   H33726253   8.265   4.158   6.583 -0.2315 -0.4026 -2.0341
   39MOL   H33826254   8.288   3.771   6.752 -1.1575  0.8778  0.1834
   39MOL   H33926255   0.198   3.740   6.691 -1.7284 -0.1455  1.5872
   39MOL   H34026256   0.235   3.765   6.381 -0.8645 -2.8441 -0.7080
   39MOL   H34126257   0.325   3.553   6.307  0.3472 -1.1203 -0.9560
   39MOL   C34226258   7.921   3.749   6.504  0.3451 -0.5747  0.2004
   39MOL   C34326259   8.015   3.786   6.602  0.3624  1.1182 -0.4804
   39MOL   C34426260   8.038   3.923   6.634  0.0749  0.2349  0.6766
   39MOL   O34526261   8.137   3.952   6.718  0.4678 -0.0999  0.2364
   39MOL   C34626262   7.965   4.024   6.571  0.3066 -0.1317  0.5060
   39MOL   C34726263   7.871   3.984   6.477  0.0134 -0.0309 -0.0678
   39MOL   C34826264   7.847   3.849   6.440 -0.0614 -0.9217 -0.1474
   39MOL   C34926265   7.757   3.821   6.329 -0.8044  0.3701  0.1448
   39MOL   O35026266   7.651   3.882   6.317 -0.2994  0.3533 -0.3885
   39MOL   C35126267   7.793   3.706   6.237  0.8665  0.0497  0.1792
   39MOL   C35226268   7.694   3.604   6.213 -0.5691  0.3446  0.3647
   39MOL   C35326269   7.730   3.489   6.129  0.0611 -0.3860 -0.0144
   39MOL   C35426270   7.861   3.485   6.072 -0.1091 -0.5538 -0.5046
   39MOL   O35526271   7.894   3.379   5.996 -0.6247 -0.0904  0.5105
   39MOL   C35626272   7.894   3.259   6.062  0.4260  0.1559  0.0659
   39MOL   C35726273   7.815   3.156   6.011 -0.8703  0.1612 -0.5133
   39MOL   C35826274   7.810   3.034   6.079  0.0090  0.4955  0.1683
   39MOL   C35926275   7.867   3.017   6.202 -0.2587 -0.6049  0.3103
   39MOL   C36026276   7.933   3.124   6.262 -0.4508 -1.3797 -0.5435
   39MOL   C36126277   7.943   3.248   6.191  0.2734 -0.0737 -0.0693
   39MOL   C36226278   7.956   3.586   6.103  0.5465 -1.0360  1.3922
   39MOL   C36326279   7.919   3.694   6.175 -0.2765  0.4844  0.1832
   39MOL   H36426280   7.901   3.644   6.491 -3.8555  0.2093 -0.3955
   39MOL   H36526281   8.076   3.713   6.652  1.4731  1.9778 -0.5595
   39MOL   H36626282   7.964   4.126   6.606  1.1509 -0.2155  0.7780
   39MOL   H36726283   7.799   4.058   6.444 -2.7794 -1.6797  2.0326
   39MOL   H36826284   7.592   3.612   6.246 -0.6012 -0.6004  0.5101
   39MOL   H36926285   7.655   3.415   6.106 -0.9388  0.9932 -1.2644
   39MOL   H37026286   7.785   3.153   5.908  0.4233  0.0380 -0.8943
   39MOL   H37126287   7.757   2.952   6.032 -0.8083  1.6755 -0.9886
   39MOL   H37226288   7.968   3.114   6.364 -0.6400  0.2346 -0.3061
   39MOL   H37326289   7.991   3.328   6.245  3.7049 -3.4126  2.0842
   39MOL   H37426290   8.059   3.577   6.070  0.2243  2.1588 -0.7801
   39MOL   H37526291   7.998   3.766   6.192  0.9085 -1.1924  1.9995
   39MOL   C37626292   7.544   2.884   6.448  0.0032 -0.1732  0.2303
   39MOL   C37726293   7.639   2.915   6.348 -0.3989 -0.4250  0.6071
   39MOL   C37826294   7.774   2.869   6.364  0.3158  0.2716  0.0678
   39MOL   O37926295   7.870   2.900   6.269 -0.2120  0.2977  0.0708
   39MOL   C38026296   7.800   2.779   6.475  0.4174  0.4143 -0.2092
   39MOL   C38126297   7.697   2.748   6.568 -0.2189  0.2257 -0.6908
   39MOL   C38226298   7.572   2.801   6.555  0.2682  0.6066 -0.0536
   39MOL   C38326299   7.468   2.782   6.663  0.1614 -0.3288  0.2901
   39MOL   O38426300   7.478   2.841   6.771  0.4986  0.3117  0.1553
   39MOL   C38526301   7.354   2.690   6.643 -0.4521 -0.6359  0.3249
   39MOL   C38626302   7.245   2.679   6.734 -0.4354  0.4469  0.4429
   39MOL   C38726303   7.129   2.603   6.704  0.5422  1.0526  0.0660
   39MOL   C38826304   7.122   2.540   6.582  0.2543  0.2936 -0.5376
   39MOL   O38926305   7.017   2.466   6.553 -0.3154 -0.3402 -0.2339
   39MOL   C39026306   6.919   2.528   6.482 -0.3047 -0.1474 -0.6056
   39MOL   C39126307   6.888   2.465   6.358  0.4247  0.3744  0.0550
   39MOL   C39226308   6.783   2.518   6.281  0.4392 -0.6641 -0.8649
   39MOL   C39326309   6.714   2.631   6.332  0.4375  0.2657  0.1131
   39MOL   C39426310   6.737   2.689   6.457  0.3781  0.3776  1.1338
   39MOL   C39526311   6.842   2.631   6.539  0.4983 -0.1767  0.2367
   39MOL   C39626312   7.236   2.541   6.493  0.3498 -0.1437 -0.3785
   39MOL   C39726313   7.348   2.617   6.519  0.0539  0.4047  0.8065
   39MOL   H39826314   7.446   2.929   6.452  0.2605  0.4100 -0.0220
   39MOL   H39926315   7.614   2.984   6.270 -0.0474 -0.6477  0.2993
   39MOL   H40026316   7.898   2.735   6.487  0.3988  0.6124  0.6542
   39MOL   H40126317   7.719   2.673   6.642 -2.2441  0.1841 -0.1070
   39MOL   H40226318   7.246   2.723   6.832 -1.4187 -0.5382  0.9045
   39MOL   H40326319   7.043   2.590   6.768 -0.7448  0.7105 -1.6972
   39MOL   H40426320   6.947   2.391   6.307  3.9406  3.5694 -0.7460
   39MOL   H40526321   6.759   2.477   6.184 -0.4926 -3.1466  0.3623
   39MOL   H40626322   6.676   2.775   6.481  0.6032  1.1561 -0.9675
   39MOL   H40726323   6.863   2.683   6.631  2.4084 -0.8552  0.1998
   39MOL   H40826324   7.231   2.491   6.397 -1.3555 -0.9917  0.1203
   39MOL   H40926325   7.428   2.632   6.447  1.2170 -3.4836  1.1563
   39MOL   C41026326   6.512   2.954   6.040  0.3728  0.6094 -0.5341
   39MOL   C41126327   6.512   2.841   6.123  0.1112 -0.9080 -0.0036
   39MOL   C41226328   6.630   2.787   6.176 -0.6665  0.3788 -0.4342
   39MOL   O41326329   6.611   2.675   6.253 -0.2399  0.5568 -0.3880
   39MOL   C41426330   6.756   2.844   6.144 -0.2542 -0.2702  0.0645
   39MOL   C41526331   6.753   2.956   6.048 -0.7603  0.7416  0.3222
   39MOL   C41626332   6.628   3.012   5.996 -0.2766 -0.2420  0.1693
   39MOL   C41726333   6.626   3.106   5.878  0.1262 -0.0742  0.2631
   39MOL   O41826334   6.718   3.091   5.792 -0.2177  0.0841  0.5350
   39MOL   C41926335   6.508   3.196   5.861 -0.1046 -0.1379  0.8446
   39MOL   C42026336   6.471   3.236   5.727 -0.4050  1.3830  0.3395
   39MOL   C42126337   6.378   3.336   5.709 -0.1383 -0.2276 -0.3124
   39MOL   C42226338   6.313   3.398   5.815 -0.1894  0.1340  0.2817
   39MOL   O42326339   6.228   3.507   5.788  1.0909  0.3280 -0.1388
   39MOL   C42426340   6.099   3.471   5.800  0.2909 -0.0490  0.5240
   39MOL   C42526341   6.021   3.414   5.696  0.3456 -0.3495 -0.5694
   39MOL   C42626342   5.886   3.385   5.712 -0.2688 -0.2058  0.2756
   39MOL   C42726343   5.816   3.441   5.821  0.0136 -0.0450  0.5472
   39MOL   C42826344   5.899   3.488   5.928  0.7233  0.6088  0.1166
   39MOL   C42926345   6.040   3.488   5.922 -0.3841 -0.7972  0.0857
   39MOL   C43026346   6.338   3.353   5.944 -0.0738  0.1509 -1.0283
   39MOL   C43126347   6.440   3.254   5.968  0.3260 -0.7920  0.1909
   39MOL   H43226348   6.416   2.991   6.006  0.9940  2.2361 -0.5781
   39MOL   H43326349   6.414   2.802   6.146 -1.4225  1.5410 -2.1316
   39MOL   H43426350   6.853   2.806   6.173 -1.4395 -1.6057  2.4069
   39MOL   H43526351   6.848   2.990   6.008 -0.8353 -0.0743 -0.5525
   39MOL   H43626352   6.510   3.187   5.639 -1.0744  0.1963  0.6782
   39MOL   H43726353   6.351   3.373   5.611 -0.7847 -0.0646 -0.0739
   39MOL   H43826354   6.065   3.397   5.599  0.2797 -2.0642 -0.3207
   39MOL   H43926355   5.824   3.343   5.634  0.6082  0.5130 -0.8021
   39MOL   H44026356   5.853   3.518   6.022  0.3846 -2.0353  0.8256
   39MOL   H44126357   6.099   3.529   6.003  0.4660 -2.4124  0.3064
   39MOL   H44226358   6.290   3.395   6.031  1.0609  0.2304 -0.4286
   39MOL   H44326359   6.469   3.230   6.069  2.0436  0.2686 -0.0474
   39MOL   C44426360   5.652   3.187   6.091 -0.2407 -0.0844 -0.0009
   39MOL   C44526361   5.690   3.250   5.975 -0.5510  0.4059  0.4114
   39MOL   C44626362   5.628   3.369   5.932 -0.6648  0.2055  0.1796
   39MOL   O44726363   5.681   3.436   5.822  0.8378  0.1441 -0.4774
   39MOL   C44826364   5.515   3.420   5.995  0.6099  0.9193  0.3189
   39MOL   C44926365   5.471   3.357   6.115 -0.0051 -1.2471  0.5834
   39MOL   C45026366   5.540   3.241   6.167  0.3735  0.0977  0.3988
   39MOL   C45126367   5.492   3.177   6.289 -0.2724 -0.1237 -0.7257
   39MOL   O45226368   5.539   3.211   6.398  0.0523 -0.3344  0.0544
   39MOL   C45326369   5.378   3.080   6.272 -0.0944 -0.5688 -0.4110
   39MOL   C45426370   5.347   2.995   6.377  0.1370 -0.4418 -0.2047
   39MOL   C45526371   5.245   2.901   6.361 -0.4122  0.1678  0.4335
   39MOL   C45626372   5.184   2.881   6.237 -0.1973  0.1475  0.1437
   39MOL   O45726373   5.104   2.777   6.214  0.2523 -0.1903  0.2691
   39MOL   C45826374   5.021   2.725   6.312 -0.0534 -0.7558  0.1146
   39MOL   C45926375   4.892   2.776   6.328 -0.0275  0.0225 -0.3597
   39MOL   C46026376   4.801   2.720   6.417 -0.4190  0.0995 -0.0662
   39MOL   C46126377   4.845   2.612   6.505  0.3351  0.4529 -0.6333
   39MOL   C46226378   4.981   2.565   6.495 -0.3932 -0.1045 -0.8314
   39MOL   C46326379   5.066   2.624   6.399 -0.4576 -0.4541 -0.3681
   39MOL   C46426380   5.223   2.960   6.129 -0.3438  0.5120  0.0343
   39MOL   C46526381   5.312   3.066   6.148 -1.0441  0.7015  0.1497
   39MOL   H46626382   5.716   3.105   6.122 -0.9317 -0.6565 -0.0518
   39MOL   H46726383   5.781   3.216   5.927 -0.3358 -2.4416  2.7196
   39MOL   H46826384   5.463   3.509   5.963 -1.8780 -0.3881  0.6062
   39MOL   H46926385   5.388   3.400   6.168  0.0680  2.7641 -2.3231
   39MOL   H47026386   5.400   3.001   6.471  0.7927 -1.8303 -0.4663
   39MOL   H47126387   5.229   2.843   6.451  0.4600  1.4358  1.4360
   39MOL   H47226388   4.862   2.856   6.262  1.1687  1.6213  0.9926
   39MOL   H47326389   4.698   2.753   6.423 -0.7977 -1.0981  0.0422
   39MOL   H47426390   5.014   2.491   6.566 -0.1999 -0.5956 -1.4297
   39MOL   H47526391   5.166   2.586   6.385 -0.0854 -0.0321  1.0755
   39MOL   H47626392   5.183   2.937   6.031 -0.4603 -0.0164  0.2048
   39MOL   H47726393   5.340   3.129   6.065  3.8670 -1.8776 -0.3456
   39MOL   C47826394   4.728   2.802   6.871 -0.1900 -1.1647  0.0875
   39MOL   C47926395   4.735   2.752   6.736 -0.4328 -0.2341  0.0026
   39MOL   C48026396   4.751   2.615   6.719 -0.4106 -0.0101 -0.0200
   39MOL   O48126397   4.752   2.558   6.594 -0.0375 -0.1607 -0.2835
   39MOL   C48226398   4.768   2.526   6.825  0.3565  0.1164 -0.3725
   39MOL   C48326399   4.756   2.575   6.956 -0.1560  0.5754 -0.4103
   39MOL   C48426400   4.736   2.714   6.979 -0.6064 -0.0564 -0.3976
   39MOL   C48526401   4.727   2.751   7.123  0.1597  0.2426 -0.6656
   39MOL   O48626402   4.701   2.676   7.219  0.3548 -0.0589 -0.1147
   39MOL   C48726403   4.755   2.890   7.151 -0.1230  0.2946  0.1684
   39MOL   C48826404   4.660   2.965   7.231 -0.0740 -0.4588  0.3917
   39MOL   C48926405   4.697   3.092   7.274 -0.1051  0.0699  0.3270
   39MOL   C49026406   4.825   3.146   7.245 -0.1397  0.7406 -0.6139
   39MOL   O49126407   4.864   3.271   7.297  0.2498 -0.2500 -0.0771
   39MOL   C49226408   4.954   3.358   7.231 -0.3365  0.3593  0.2505
   39MOL   C49326409   5.080   3.381   7.284 -0.5115 -0.1504  0.3208
   39MOL   C49426410   5.173   3.465   7.212 -0.1435 -0.2693 -0.3421
   39MOL   C49526411   5.130   3.530   7.093 -0.2112  0.0931  0.8421
   39MOL   C49626412   4.996   3.514   7.050  0.2137 -0.4087  0.1475
   39MOL   C49726413   4.908   3.428   7.120 -0.3953 -0.1655  0.6956
   39MOL   C49826414   4.910   3.077   7.158 -0.3658 -0.2780  0.6177
   39MOL   C49926415   4.874   2.949   7.113  0.4430  0.2496 -0.1518
   39MOL   H50026416   4.701   2.906   6.877  0.4452 -0.9153 -1.1865
   39MOL   H50126417   4.714   2.808   6.646 -0.8154 -1.2033 -0.5141
   39MOL   H50226418   4.771   2.420   6.804 -0.7084  0.0776 -0.3303
   39MOL   H50326419   4.750   2.507   7.040  0.4508 -0.1509 -0.9567
   39MOL   H50426420   4.570   2.920   7.271  0.8392 -3.0492 -0.3695
   39MOL   H50526421   4.630   3.135   7.347 -0.2317  1.4495 -0.5649
   39MOL   H50626422   5.101   3.334   7.379  0.3250 -1.6477 -0.5735
   39MOL   H50726423   5.276   3.478   7.240 -0.3608  0.3994  0.1694
   39MOL   H50826424   4.959   3.568   6.964  1.9698  1.5394  0.5765
   39MOL   H50926425   4.806   3.421   7.086 -0.0932 -0.9837 -0.0527
   39MOL   H51026426   5.001   3.110   7.111 -1.4410 -0.9083 -1.9918
   39MOL   H51126427   4.941   2.896   7.046 -1.9393 -2.1715 -0.7295
   39MOL   C51226428   5.135   3.948   6.967  0.2547  0.4178  0.2391
   39MOL   C51326429   5.134   3.822   7.025  0.7303  0.0433  0.2829
   39MOL   C51426430   5.209   3.718   6.965 -0.6019  0.5619  0.3211
   39MOL   O51526431   5.224   3.593   7.019 -0.6034 -0.4548  0.1816
   39MOL   C51626432   5.284   3.743   6.850  0.1871 -0.0942 -0.1845
   39MOL   C51726433   5.281   3.873   6.788 -0.3950  0.1199 -0.3115
   39MOL   C51826434   5.201   3.974   6.848  0.2587 -0.0133  0.3255
   39MOL   C51926435   5.199   4.108   6.789  0.2871 -0.8761  0.0584
   39MOL   O52026436   5.200   4.208   6.852 -0.2159  0.2078  0.3879
   39MOL   C52126437   5.204   4.125   6.643 -0.3172 -0.2713  0.2700
   39MOL   C52226438   5.120   4.047   6.557 -0.1192  0.4380 -0.1844
   39MOL   C52326439   5.120   4.068   6.417  0.2079 -0.0360  0.2047
   39MOL   C52426440   5.217   4.155   6.358  0.2319 -0.2449  0.5823
   39MOL   O52526441   5.214   4.169   6.219 -0.2033  0.0567  0.2958
   39MOL   C52626442   5.118   4.245   6.166  0.6426 -0.8106 -0.1860
   39MOL   C52726443   5.112   4.384   6.201  0.4047  0.2149  0.3784
   39MOL   C52826444   5.013   4.468   6.130 -0.2476  0.1194  0.1723
   39MOL   C52926445   4.918   4.402   6.045 -0.4855  0.1150  0.7224
   39MOL   C53026446   4.915   4.260   6.030  1.1203 -0.3125 -0.2039
   39MOL   C53126447   5.023   4.184   6.083 -0.7151 -0.0574 -0.0397
   39MOL   C53226448   5.312   4.226   6.442  0.7516  0.5046  0.3693
   39MOL   C53326449   5.309   4.204   6.585 -0.3491 -0.1634  0.4423
   39MOL   H53426450   5.081   4.031   7.010  1.1302  0.6054  1.0061
   39MOL   H53526451   5.093   3.799   7.122 -0.5066 -0.0500 -0.2606
   39MOL   H53626452   5.344   3.670   6.797  1.0340  0.5685 -0.1543
   39MOL   H53726453   5.344   3.884   6.701 -0.0686 -1.9446 -0.3742
   39MOL   H53826454   5.037   3.987   6.592  0.8671 -0.7269  0.1655
   39MOL   H53926455   5.053   4.022   6.346 -0.3231  1.1031 -0.0409
   39MOL   H54026456   5.184   4.430   6.266 -0.8136  0.6398  1.4410
   39MOL   H54126457   5.007   4.575   6.145  2.5883  0.1382  1.6016
   39MOL   H54226458   4.835   4.207   5.980  0.3395 -1.5379  2.2614
   39MOL   H54326459   5.020   4.078   6.065  1.3963 -0.4322  1.5700
   39MOL   H54426460   5.388   4.287   6.395  0.2719  2.5644  2.1789
   39MOL   H54526461   5.387   4.254   6.641 -0.6374 -1.2217  1.8279
   39MOL   C54626462   4.764   4.383   5.647  1.0121  0.0127 -0.0137
   39MOL   C54726463   4.828   4.421   5.759  0.3096  0.7460  0.3059
   39MOL   C54826464   4.753   4.441   5.880 -0.0792  0.0911  0.0386
   39MOL   O54926465   4.806   4.473   5.999 -0.1403 -0.3283 -0.0095
   39MOL   C55026466   4.615   4.428   5.881  0.4336  0.1560  0.3174
   39MOL   C55126467   4.555   4.379   5.763  0.2311  0.1469  0.3621
   39MOL   C55226468   4.627   4.352   5.647 -0.2196 -0.4668 -1.3479
   39MOL   C55326469   4.563   4.307   5.523 -0.9748 -0.0556 -0.0276
   39MOL   O55426470   4.459   4.362   5.483  0.1484  0.1379 -0.3016
   39MOL   C55526471   4.625   4.189   5.461 -0.2541  0.6880  1.1561
   39MOL   C55626472   4.674   4.078   5.534 -0.9587 -0.6287 -0.1846
   39MOL   C55726473   4.716   3.967   5.459  0.3370  0.3222  0.1556
   39MOL   C55826474   4.717   3.961   5.320 -0.5050 -0.0388  0.2167
   39MOL   O55926475   4.760   3.842   5.255 -0.0437 -0.2414  0.1796
   39MOL   C56026476   4.853   3.847   5.147 -0.3212 -0.5255  0.7423
   39MOL   C56126477   4.961   3.940   5.151  0.0780  0.2204 -0.2180
   39MOL   C56226478   5.059   3.946   5.054  0.1458  0.1146  0.4445
   39MOL   C56326479   5.056   3.853   4.951 -0.5481 -0.1324  0.1996
   39MOL   C56426480   4.949   3.763   4.941  0.1066 -0.4567  0.0381
   39MOL   C56526481   4.845   3.762   5.039 -0.6027  0.3429  0.3869
   39MOL   C56626482   4.666   4.065   5.246 -0.4263 -0.1883  0.2714
   39MOL   C56726483   4.621   4.186   5.315  0.0643  0.4449  0.0647
   39MOL   H56826484   4.831   4.371   5.563  3.5547 -0.0646  1.9936
   39MOL   H56926485   4.934   4.442   5.763  0.5682 -0.5358  0.4527
   39MOL   H57026486   4.568   4.448   5.976 -1.7621 -0.6728 -0.5557
   39MOL   H57126487   4.450   4.355   5.770 -0.1538  1.3754 -0.9434
   39MOL   H57226488   4.677   4.086   5.642  1.9694  0.1624 -0.2892
   39MOL   H57326489   4.756   3.885   5.517  0.5787  0.6813  0.5036
   39MOL   H57426490   4.973   4.009   5.233  1.9278 -0.7085  0.3310
   39MOL   H57526491   5.135   4.021   5.071 -0.6578  0.9564  0.3722
   39MOL   H57626492   4.940   3.703   4.852  1.3612 -0.4617 -0.0979
   39MOL   H57726493   4.756   3.702   5.027 -1.1553  1.3088 -0.4539
   39MOL   H57826494   4.661   4.056   5.138 -0.2176  0.6878  0.1836
   39MOL   H57926495   4.588   4.275   5.264  0.7201  0.7459  0.1517
   39MOL   C58026496   5.409   3.625   4.802 -0.3305 -0.4335  0.6134
   39MOL   C58126497   5.284   3.691   4.792 -0.0216  0.7172  0.3585
   39MOL   C58226498   5.261   3.803   4.861  0.1258  0.3815  0.0329
   39MOL   O58326499   5.140   3.859   4.847 -0.1838 -0.2612 -0.1315
   39MOL   C58426500   5.354   3.854   4.950  0.1658  0.2859  0.3512
   39MOL   C58526501   5.479   3.796   4.951  0.6592  0.6202  0.1962
   39MOL   C58626502   5.517   3.685   4.872 -0.0773  0.0601 -1.2009
   39MOL   C58726503   5.652   3.625   4.871 -0.8255  0.2204 -0.2179
   39MOL   O58826504   5.685   3.521   4.815  0.6116 -0.1459  0.4042
   39MOL   C58926505   5.754   3.698   4.949  0.2120  0.3428 -0.4883
   39MOL   C59026506   5.821   3.634   5.056 -0.1965  0.1076  0.0437
   39MOL   C59126507   5.908   3.719   5.129 -0.4551  0.4210 -0.8417
   39MOL   C59226508   5.936   3.854   5.099 -0.2190  0.3430  0.6661
   39MOL   O59326509   6.008   3.922   5.192  0.2472 -0.6425  0.1740
   39MOL   C59426510   6.131   3.964   5.151  0.0620 -0.0543 -0.5063
   39MOL   C59526511   6.205   3.926   5.037 -0.2988  0.1884 -0.7741
   39MOL   C59626512   6.325   3.972   5.005 -0.9248  0.1019 -0.1331
   39MOL   C59726513   6.389   4.068   5.088  0.0704  0.2992 -0.6030
   39MOL   C59826514   6.330   4.104   5.213 -0.4738  0.3202  0.3584
   39MOL   C59926515   6.200   4.054   5.241  0.0599  0.1412 -0.2249
   39MOL   C60026516   5.872   3.910   4.983 -0.2311 -0.1362 -0.3414
   39MOL   C60126517   5.777   3.831   4.914 -0.1892  0.3153 -0.1753
   39MOL   H60226518   5.438   3.538   4.745  0.4800  0.0460  0.2940
   39MOL   H60326519   5.216   3.649   4.718  0.0685  1.5277 -0.1972
   39MOL   H60426520   5.333   3.949   4.997  0.2971 -0.7610  2.6072
   39MOL   H60526521   5.549   3.822   5.029  1.2400 -0.5040  0.0581
   39MOL   H60626522   5.799   3.534   5.091 -0.3032  0.2372  0.3509
   39MOL   H60726523   5.951   3.683   5.221  1.3895 -0.4561 -2.0108
   39MOL   H60826524   6.167   3.840   4.985 -0.4873  0.4815 -1.1200
   39MOL   H60926525   6.379   3.940   4.916 -1.8990  0.8118 -0.9815
   39MOL   H61026526   6.364   4.172   5.289  0.2483  0.8752 -0.4458
   39MOL   H61126527   6.158   4.074   5.339 -0.2904 -2.8283  0.2937
   39MOL   H61226528   5.903   4.008   4.948  1.0353 -0.2045  0.5877
   39MOL   H61326529   5.734   3.868   4.823 -0.5831  2.1472  0.7240
   39MOL   C61426530   6.561   4.456   5.146  0.0416 -0.3780  0.3222
   39MOL   C61526531   6.559   4.319   5.158  0.0683 -0.7332  0.3514
   39MOL   C61626532   6.517   4.243   5.047  0.3551 -0.2609  0.3280
   39MOL   O61726533   6.512   4.108   5.055 -0.0075  0.7615  0.0942
   39MOL   C61826534   6.475   4.313   4.929 -0.3248 -0.3183  0.1849
   39MOL   C61926535   6.476   4.452   4.920 -0.1792 -0.3519  0.3390
   39MOL   C62026536   6.520   4.530   5.029  0.1498  0.3105 -0.3782
   39MOL   C62126537   6.514   4.677   5.030  0.3688 -0.0988 -0.7695
   39MOL   O62226538   6.425   4.743   4.982  0.2524 -0.9690  0.5661
   39MOL   C62326539   6.625   4.742   5.109 -0.3652  0.2487  1.3192
   39MOL   C62426540   6.752   4.682   5.089 -0.0518  0.3576 -0.5257
   39MOL   C62526541   6.861   4.745   5.152  0.3005 -0.4014  0.5662
   39MOL   C62626542   6.843   4.865   5.236  0.8527 -0.1457 -0.4757
   39MOL   O62726543   6.946   4.933   5.299  0.5285 -0.2532 -0.0862
   39MOL   C62826544   6.956   4.922   5.438 -0.5072  0.0511  0.3939
   39MOL   C62926545   6.925   5.027   5.528  0.6260  0.1783 -0.0452
   39MOL   C63026546   6.944   5.005   5.662  0.4226  0.3415  0.0251
   39MOL   C63126547   6.978   4.875   5.710  0.7279  0.1528 -0.1466
   39MOL   C63226548   6.996   4.768   5.623 -0.0207  0.1224 -0.6678
   39MOL   C63326549   6.988   4.793   5.485 -0.8430 -0.4996 -0.3342
   39MOL   C63426550   6.710   4.918   5.247  0.0489 -0.7429 -0.4490
   39MOL   C63526551   6.602   4.862   5.185 -0.1508  0.1803 -0.2418
   39MOL   H63626552   6.581   4.507   5.240 -1.0585  1.7948 -0.5753
   39MOL   H63726553   6.594   4.269   5.247  1.5747 -2.5406 -1.2209
   39MOL   H63826554   6.440   4.246   4.852 -1.8413 -0.1613  0.7071
   39MOL   H63926555   6.436   4.506   4.835 -3.8375 -1.5982  1.1730
   39MOL   H64026556   6.762   4.600   5.020  1.4480  0.6356 -0.6506
   39MOL   H64126557   6.954   4.694   5.128  1.8784  2.3793  0.6447
   39MOL   H64226558   6.882   5.123   5.500 -1.0151 -0.9739 -1.6256
   39MOL   H64326559   6.928   5.083   5.735 -1.6404 -0.7539  0.7828
   39MOL   H64426560   7.027   4.669   5.653  1.1166  0.0105 -2.1733
   39MOL   H64526561   7.006   4.718   5.409  0.3777  0.9145 -1.4594
   39MOL   H64626562   6.685   5.009   5.300 -2.0849  0.1419 -2.8877
   39MOL   H64726563   6.506   4.911   5.184 -0.4525 -0.3422  1.9104
   39MOL   C64826564   6.732   4.632   5.970 -0.2461  0.4088 -0.6053
   39MOL   C64926565   6.794   4.740   5.901 -0.4889  0.0042 -0.5736
   39MOL   C65026566   6.935   4.748   5.909 -0.2940 -0.7894 -0.2561
   39MOL   O65126567   7.009   4.849   5.843  0.2936  0.2273 -0.8017
   39MOL   C65226568   7.006   4.653   5.984 -0.2651  0.3056  0.0265
   39MOL   C65326569   6.942   4.546   6.045  0.1154  0.5126 -0.5823
   39MOL   C65426570   6.799   4.540   6.050  0.3739 -0.5260 -0.8916
   39MOL   C65526571   6.727   4.421   6.115  0.1604  0.2659 -0.4472
   39MOL   O65626572   6.795   4.342   6.174 -0.0859  0.2944 -0.4145
   39MOL   C65726573   6.570   4.402   6.103 -0.5989 -0.4966  0.5268
   39MOL   C65826574   6.522   4.289   6.037 -0.0769 -0.4327 -0.5495
   39MOL   C65926575   6.379   4.270   6.021  0.3160  0.0022 -0.2308
   39MOL   C66026576   6.290   4.366   6.068 -0.4091 -0.6359 -0.0248
   39MOL   O66126577   6.154   4.349   6.052 -0.5110  0.2835 -0.1057
   39MOL   C66226578   6.090   4.420   5.958 -0.0886  0.3646 -0.4305
   39MOL   C66326579   5.988   4.507   6.001  0.0979 -0.5154 -0.2135
   39MOL   C66426580   5.905   4.574   5.907 -0.2608 -0.1349  1.2471
   39MOL   C66526581   5.932   4.557   5.774  0.3621 -0.1793 -0.1109
   39MOL   C66626582   6.036   4.472   5.733 -0.0169  0.1897  0.2375
   39MOL   C66726583   6.114   4.398   5.828  0.0662 -0.6064  0.8442
   39MOL   C66826584   6.346   4.480   6.136  0.3452 -0.3428  0.1406
   39MOL   C66926585   6.484   4.503   6.155 -0.1887  0.2379 -0.3536
   39MOL   H67026586   6.625   4.630   5.957 -0.2376  1.3576 -0.8889
   39MOL   H67126587   6.739   4.808   5.837 -1.1566  0.3313  0.3364
   39MOL   H67226588   7.111   4.665   6.004 -0.7723  2.7285  1.4176
   39MOL   H67326589   7.002   4.482   6.108  1.2212  3.5319  1.5061
   39MOL   H67426590   6.584   4.207   6.003 -0.3987 -1.0554  0.3615
   39MOL   H67526591   6.345   4.178   5.976  1.4508 -1.6404  2.1421
   39MOL   H67626592   5.972   4.516   6.108 -1.2491  1.2140 -0.5356
   39MOL   H67726593   5.837   4.650   5.941 -0.6847  0.2916 -0.5347
   39MOL   H67826594   6.052   4.447   5.630 -2.8365 -0.6969 -0.0239
   39MOL   H67926595   6.191   4.330   5.793 -0.5947 -0.9073 -0.0343
   39MOL   H68026596   6.286   4.562   6.173  0.5925  0.6094 -1.5176
   39MOL   H68126597   6.517   4.594   6.202 -3.2131  0.4247  1.5277
   39MOL   H68226598   5.864   4.600   5.702 -2.5347 -1.3945  1.7994
   40MOL     C126599   5.894   3.251   1.861  0.3861 -0.0543 -0.8537
   40MOL     C226600   5.854   3.329   1.969  0.5192  0.5683 -0.3207
   40MOL     C326601   5.913   3.302   2.097  0.2158 -0.7919  0.2895
   40MOL     O426602   5.870   3.366   2.205  0.0893  0.0536 -0.2340
   40MOL     C526603   6.009   3.203   2.111 -0.5008 -0.7795  0.1881
   40MOL     C626604   6.041   3.119   2.004 -0.2255  0.2090  0.3144
   40MOL     C726605   5.987   3.143   1.880  0.1147 -0.7112  0.3283
   40MOL     C826606   6.022   3.057   1.762 -0.5179  0.5528  0.1730
   40MOL     O926607   6.029   3.108   1.651 -0.4658  0.1486 -0.4593
   40MOL    C1026608   6.041   2.909   1.789  0.1737 -0.2868  0.6529
   40MOL    C1126609   5.960   2.823   1.861  0.3692  0.6502 -0.3151
   40MOL    C1226610   5.976   2.682   1.868  0.1682  0.0475 -0.1263
   40MOL    C1326611   6.086   2.621   1.798  0.0198  0.3455 -0.7652
   40MOL    O1426612   6.122   2.492   1.819 -0.0356 -0.4061  0.1979
   40MOL    C1526613   6.226   2.467   1.908  0.0669 -0.4890  0.2460
   40MOL    C1626614   6.257   2.549   2.019  0.5702 -0.4667 -0.2416
   40MOL    C1726615   6.362   2.508   2.108  0.3001 -0.1945 -0.7022
   40MOL    C1826616   6.429   2.386   2.105  0.2067  0.4744 -0.1640
   40MOL    C1926617   6.400   2.308   1.992  0.4062  0.4283  0.0800
   40MOL    C2026618   6.300   2.351   1.895 -0.8021  0.1447 -0.1147
   40MOL    C2126619   6.166   2.710   1.721 -0.1336  0.2266  0.0052
   40MOL    C2226620   6.138   2.845   1.716  0.0189 -0.5406 -0.1851
   40MOL    H2326621   5.858   3.265   1.760 -2.3092  1.9245  0.3223
   40MOL    H2426622   5.772   3.398   1.962  1.3079  1.4839 -0.6702
   40MOL    H2526623   6.057   3.176   2.204 -0.4852 -2.4841 -0.2820
   40MOL    H2626624   6.112   3.039   2.018 -0.2659  0.4924  2.2350
   40MOL    H2726625   5.869   2.852   1.911  0.3843  2.3146 -1.2308
   40MOL    H2826626   5.910   2.617   1.924  0.0309  0.1551 -0.1633
   40MOL    H2926627   6.201   2.638   2.041  2.5409  1.3389 -2.2580
   40MOL    H3026628   6.375   2.563   2.200 -1.0155 -1.4749  0.2699
   40MOL    H3126629   6.459   2.220   1.972 -0.5016 -0.7646  2.4670
   40MOL    H3226630   6.281   2.290   1.807  0.8127  0.5882 -0.7916
   40MOL    H3326631   6.249   2.691   1.654  0.7050 -1.6646  1.5210
   40MOL    H3426632   6.205   2.910   1.661  0.4419 -1.3153 -0.5952
   40MOL    H3526633   5.867   3.458   2.182  1.2190  0.0307 -0.5156
   40MOL    C3626634   6.841   2.177   2.102  0.2031  0.1828  0.1901
   40MOL    C3726635   6.742   2.277   2.125  0.9336 -0.0905 -0.2175
   40MOL    C3826636   6.615   2.254   2.182  0.0744 -0.5628  0.1310
   40MOL    O3926637   6.521   2.353   2.202  0.0591 -0.3015  0.2072
   40MOL    C4026638   6.588   2.117   2.216  0.2152  0.1036 -0.4449
   40MOL    C4126639   6.691   2.016   2.201 -0.0338  0.3229 -0.3027
   40MOL    C4226640   6.816   2.047   2.151  0.2174  0.3728  0.1173
   40MOL    C4326641   6.915   1.936   2.150 -0.0397  0.3785  0.5366
   40MOL    O4426642   6.915   1.850   2.243 -0.2621 -0.5112  0.0684
   40MOL    C4526643   7.017   1.944   2.041 -0.0324  1.4674 -0.2304
   40MOL    C4626644   6.989   1.997   1.912  0.2398 -0.2007 -0.2995
   40MOL    C4726645   7.095   2.017   1.818 -0.6893  0.3740  0.0955
   40MOL    C4826646   7.228   1.977   1.846 -0.1072 -0.0429  0.1159
   40MOL    O4926647   7.327   2.007   1.753 -0.4198  0.3210  0.1258
   40MOL    C5026648   7.406   1.903   1.702 -0.1226 -0.3365 -0.2912
   40MOL    C5126649   7.392   1.765   1.734 -0.4261  0.0529  0.5576
   40MOL    C5226650   7.465   1.662   1.664  0.2290  0.0654 -0.0894
   40MOL    C5326651   7.545   1.696   1.557  0.0010  0.2945 -0.1791
   40MOL    C5426652   7.561   1.831   1.530 -0.2712  0.1267 -0.1556
   40MOL    C5526653   7.492   1.938   1.595  0.1396 -0.0333 -0.4587
   40MOL    C5626654   7.251   1.918   1.969  0.4118  0.1420  0.1070
   40MOL    C5726655   7.148   1.894   2.067  0.3642 -0.7363 -0.3302
   40MOL    H5826656   6.939   2.209   2.069  0.3461  0.7222  1.1120
   40MOL    H5926657   6.767   2.378   2.098  1.0963 -0.4051 -1.2824
   40MOL    H6026658   6.490   2.091   2.254  0.4274  0.6549  0.5012
   40MOL    H6126659   6.674   1.924   2.254  1.6132 -0.2367 -0.7141
   40MOL    H6226660   6.883   2.007   1.891  0.2361  0.0903 -0.1414
   40MOL    H6326661   7.074   2.059   1.721 -2.2411 -2.5657 -0.9058
   40MOL    H6426662   7.314   1.744   1.805 -1.5029  2.2659  0.0736
   40MOL    H6526663   7.458   1.557   1.688  1.1949  0.1549  0.6076
   40MOL    H6626664   7.630   1.860   1.453  0.9350 -1.5686  0.2574
   40MOL    H6726665   7.521   2.038   1.565  0.7067  0.2851  1.0724
   40MOL    H6826666   7.353   1.890   1.991  0.8953  0.0488 -2.0787
   40MOL    H6926667   7.183   1.858   2.163  0.8509 -1.5437 -0.7984
   40MOL    C7026668   7.480   1.318   1.289 -0.3802  0.6250  0.0432
   40MOL    C7126669   7.525   1.394   1.400  0.3323 -0.9761 -0.3269
   40MOL    C7226670   7.567   1.529   1.391 -0.2078 -0.0853 -0.0151
   40MOL    O7326671   7.621   1.597   1.495 -0.9452  0.5441  0.0227
   40MOL    C7426672   7.560   1.589   1.264 -0.5619 -0.2006  0.2594
   40MOL    C7526673   7.510   1.517   1.153 -0.7837 -0.5120  0.3226
   40MOL    C7626674   7.484   1.379   1.159  0.0772  0.2750  0.0129
   40MOL    C7726675   7.444   1.307   1.036 -0.9607 -0.2240  0.4174
   40MOL    O7826676   7.481   1.192   1.010  0.1125 -0.6826 -0.3947
   40MOL    C7926677   7.381   1.382   0.921 -0.1978  0.3357 -0.0746
   40MOL    C8026678   7.413   1.346   0.788  0.4209 -0.4070  0.4408
   40MOL    C8126679   7.344   1.400   0.677  0.1967  0.1749  0.0700
   40MOL    C8226680   7.243   1.504   0.703  0.0503  0.0639 -0.0899
   40MOL    O8326681   7.162   1.559   0.603 -0.3379  0.3997  0.0520
   40MOL    C8426682   7.227   1.619   0.505  0.4078  0.4695  0.1931
   40MOL    C8526683   7.202   1.575   0.372 -0.3472  0.0089  0.2907
   40MOL    C8626684   7.234   1.659   0.268 -0.1946  0.4116  0.4098
   40MOL    C8726685   7.308   1.779   0.289 -0.2445  0.2473 -0.7844
   40MOL    C8826686   7.340   1.819   0.424 -0.2151 -0.2099 -0.3829
   40MOL    C8926687   7.293   1.740   0.527 -0.3241 -0.2015  0.2701
   40MOL    C9026688   7.207   1.538   0.837 -0.2652  0.5653  0.8814
   40MOL    C9126689   7.279   1.481   0.944 -1.0852  0.3940  0.5221
   40MOL    H9226690   7.465   1.212   1.299  1.0106  0.5614  1.5694
   40MOL    H9326691   7.538   1.343   1.495  0.2031  0.2627  0.3644
   40MOL    H9426692   7.595   1.691   1.258  2.4278 -1.1941  0.3496
   40MOL    H9526693   7.502   1.575   1.062 -3.3057  1.2138  1.5920
   40MOL    H9626694   7.490   1.275   0.762  1.1922  0.3778  0.5629
   40MOL    H9726695   7.380   1.370   0.579  0.6248 -0.3252  0.3786
   40MOL    H9826696   7.155   1.480   0.350  1.7236 -0.9500 -0.0882
   40MOL    H9926697   7.217   1.632   0.165  2.8099 -1.0479  0.2530
   40MOL   H10026698   7.401   1.906   0.444 -0.7139 -0.0520  0.4791
   40MOL   H10126699   7.325   1.771   0.625  1.0144  0.4480 -0.3631
   40MOL   H10226700   7.133   1.613   0.860  0.2701  1.2797  0.3280
   40MOL   H10326701   7.251   1.512   1.043  0.0240 -1.6680  1.5139
   40MOL   C10426702   7.215   2.049   8.226  0.3440  0.1933 -0.2468
   40MOL   C10526703   7.286   1.953   8.299  0.0947 -0.4366  0.5930
   40MOL   C10626704   7.262   1.941   0.126  0.4798  0.7244  0.7602
   40MOL   O10726705   7.351   1.862   0.192 -0.4422  0.3429 -0.1585
   40MOL   C10826706   7.162   2.017   0.189  0.0966 -0.1052  0.0702
   40MOL   C10926707   7.085   2.099   0.107 -1.3352 -0.4139  0.2829
   40MOL   C11026708   7.109   2.125   8.284 -0.1121  1.0059  0.0549
   40MOL   C11126709   7.021   2.213   8.200 -1.0458 -0.2696 -0.2936
   40MOL   O11226710   6.990   2.330   8.236 -0.3654  0.7138  0.1115
   40MOL   C11326711   6.973   2.163   8.067 -0.7863  0.2819  0.7353
   40MOL   C11426712   6.941   2.029   8.029  0.4278  0.5101 -0.1181
   40MOL   C11526713   6.900   1.995   7.895 -0.4391 -0.3606 -0.1606
   40MOL   C11626714   6.867   2.096   7.803  0.1767  0.0797  0.5436
   40MOL   O11726715   6.803   2.071   7.682  0.0266  0.2940  0.0186
   40MOL   C11826716   6.891   2.033   7.583 -0.3298  0.4468  0.9800
   40MOL   C11926717   6.963   2.135   7.515 -0.0766 -0.4362 -0.4485
   40MOL   C12026718   7.060   2.095   7.423 -0.2096  0.4611 -0.2626
   40MOL   C12126719   7.087   1.956   7.399 -0.1460 -0.0444  0.1174
   40MOL   C12226720   7.013   1.860   7.465  0.2278 -0.0260  0.8347
   40MOL   C12326721   6.915   1.900   7.557 -0.0158  0.0929  0.0669
   40MOL   C12426722   6.895   2.228   7.840  0.7552  0.3041  0.2311
   40MOL   C12526723   6.941   2.263   7.968  0.8732 -0.4855 -0.4481
   40MOL   H12626724   7.241   2.063   8.122  1.4436  0.3977  0.0492
   40MOL   H12726725   7.362   1.895   8.249 -0.1487 -0.1181 -0.1593
   40MOL   H12826726   7.142   1.995   0.293 -1.2415  0.6334 -0.0254
   40MOL   H12926727   6.997   2.144   0.152 -1.2190  0.6039 -0.5227
   40MOL   H13026728   6.951   1.945   8.097  0.1238  2.1930  2.0382
   40MOL   H13126729   6.883   1.893   7.864 -0.5293 -0.1871 -0.7013
   40MOL   H13226730   6.934   2.236   7.539 -0.1640 -0.4650 -0.4333
   40MOL   H13326731   7.116   2.163   7.360  0.9536 -0.6577 -0.4555
   40MOL   H13426732   7.036   1.758   7.440  2.4052  0.3215  1.3102
   40MOL   H13526733   6.852   1.826   7.605 -0.9851  0.5229 -0.5451
   40MOL   H13626734   6.875   2.298   7.760 -0.7786 -0.2715  0.0824
   40MOL   H13726735   6.971   2.365   7.982  0.1933 -0.1154 -1.6028
   40MOL   C13826736   7.244   1.722   7.009 -0.0790 -0.0821 -0.3084
   40MOL   C13926737   7.266   1.802   7.123 -0.1592 -0.4752 -0.6946
   40MOL   C14026738   7.161   1.860   7.190  0.0272  0.5434 -0.0795
   40MOL   O14126739   7.181   1.928   7.308 -0.0375  0.0129  0.2496
   40MOL   C14226740   7.029   1.847   7.140 -0.1950  0.2594 -0.8949
   40MOL   C14326741   7.009   1.784   7.023  0.5130 -0.5586  0.8754
   40MOL   C14426742   7.113   1.716   6.949 -0.0610 -0.5366 -0.0888
   40MOL   C14526743   7.084   1.642   6.817  0.8855 -0.6175 -0.0386
   40MOL   O14626744   7.169   1.635   6.728  0.0924  0.3211  0.2977
   40MOL   C14726745   6.963   1.561   6.810  0.1711 -0.1389 -0.2359
   40MOL   C14826746   6.925   1.508   6.685 -0.5538 -0.3893 -0.6279
   40MOL   C14926747   6.818   1.418   6.674  1.1012 -0.3646  0.0949
   40MOL   C15026748   6.745   1.379   6.792 -1.0657  0.6633 -0.5370
   40MOL   O15126749   6.648   1.287   6.777 -0.1248  0.2841 -0.0512
   40MOL   C15226750   6.527   1.324   6.834 -0.3078  0.0359  0.1189
   40MOL   C15326751   6.450   1.428   6.786  0.3056 -0.0139 -0.3438
   40MOL   C15426752   6.323   1.459   6.848 -0.3130  0.4946 -0.9884
   40MOL   C15526753   6.267   1.382   6.951 -0.2013  0.5606  0.1343
   40MOL   C15626754   6.346   1.279   7.005 -0.3682  0.0705  0.5757
   40MOL   C15726755   6.475   1.252   6.945  0.1286  0.4414  0.1584
   40MOL   C15826756   6.787   1.425   6.919 -0.2066  0.0669  0.1181
   40MOL   C15926757   6.889   1.520   6.926 -0.6564  0.0130  0.1944
   40MOL   H16026758   7.320   1.663   6.960  0.3164  0.0142  0.1906
   40MOL   H16126759   7.367   1.802   7.160 -0.7667  0.6341  1.0547
   40MOL   H16226760   6.949   1.903   7.187  0.6535 -0.3125  1.3062
   40MOL   H16326761   6.911   1.785   6.979  0.2404 -0.3625  1.4763
   40MOL   H16426762   6.988   1.535   6.601 -0.7925  1.6899 -0.1645
   40MOL   H16526763   6.792   1.379   6.577  0.3607 -0.4594  0.3302
   40MOL   H16626764   6.491   1.485   6.704 -0.8612  0.8786 -0.3193
   40MOL   H16726765   6.261   1.537   6.807 -0.5465  0.3586 -0.8957
   40MOL   H16826766   6.303   1.215   7.082  0.4707 -2.8314 -1.2712
   40MOL   H16926767   6.543   1.181   6.989 -0.6538  0.0935  0.8317
   40MOL   H17026768   6.730   1.385   7.002 -0.9317 -1.3299 -1.0316
   40MOL   H17126769   6.922   1.546   7.025 -1.8949 -1.6615  1.0722
   40MOL   C17226770   5.995   1.567   7.294 -0.2204 -0.2151 -0.6515
   40MOL   C17326771   6.019   1.472   7.192 -0.0979 -0.0804 -0.2687
   40MOL   C17426772   6.106   1.495   7.088  0.4094 -0.7388 -0.0025
   40MOL   O17526773   6.136   1.396   7.001 -0.2210  0.3122  0.2153
   40MOL   C17626774   6.165   1.627   7.077 -0.3043 -0.0675 -0.0344
   40MOL   C17726775   6.137   1.725   7.170  0.3776 -0.2117 -0.0318
   40MOL   C17826776   6.049   1.703   7.281  0.0009 -0.5851  0.3195
   40MOL   C17926777   6.006   1.811   7.375 -0.0526 -0.1070 -0.2366
   40MOL   O18026778   5.954   1.913   7.332 -0.3144  0.1224  0.6697
   40MOL   C18126779   6.018   1.778   7.525 -0.0635 -0.6002  0.0690
   40MOL   C18226780   5.939   1.852   7.618  0.5904  0.7018  0.0424
   40MOL   C18326781   5.945   1.817   7.757  0.3206  0.4467  0.0040
   40MOL   C18426782   6.021   1.710   7.802 -0.2447 -0.2842  0.1755
   40MOL   O18526783   6.013   1.668   7.931  0.3619  0.4775  0.4734
   40MOL   C18626784   5.921   1.566   7.954  0.5344  0.6800  0.1255
   40MOL   C18726785   5.879   1.476   7.856 -0.6574 -0.0283 -0.3643
   40MOL   C18826786   5.797   1.366   7.880 -0.1394  0.1008  0.1906
   40MOL   C18926787   5.762   1.339   8.013 -0.0128  0.2678  0.4655
   40MOL   C19026788   5.786   1.435   8.105 -0.4588  0.2128 -0.2529
   40MOL   C19126789   5.875   1.545   8.084 -0.0970 -0.4439  0.0724
   40MOL   C19226790   6.113   1.654   7.718  1.1040  0.2740  0.8559
   40MOL   C19326791   6.114   1.686   7.579 -0.2902  0.0105 -0.2501
   40MOL   H19426792   5.945   1.532   7.383  2.5133 -0.2222  0.9622
   40MOL   H19526793   5.979   1.373   7.205 -0.3238 -0.3930 -3.1431
   40MOL   H19626794   6.215   1.655   6.986  0.6454 -0.4726  0.3606
   40MOL   H19726795   6.173   1.827   7.157  1.6033 -0.8946 -2.2271
   40MOL   H19826796   5.872   1.926   7.578  2.2899  2.6102  0.6388
   40MOL   H19926797   5.882   1.872   7.826  0.8252  2.1211 -0.8453
   40MOL   H20026798   5.907   1.491   7.752 -0.2946 -2.0492 -0.5795
   40MOL   H20126799   5.797   1.293   7.801  0.1853 -0.0274  0.3114
   40MOL   H20226800   5.745   1.421   8.204 -3.2102 -0.6833 -1.4616
   40MOL   H20326801   5.907   1.616   8.159  3.4710 -2.4538  0.5310
   40MOL   H20426802   6.170   1.571   7.756 -0.7291 -0.5538  1.8532
   40MOL   H20526803   6.178   1.633   7.510  2.3268  2.5253  0.1612
   40MOL   C20626804   5.723   0.937   7.808  1.5934 -0.2044  0.1901
   40MOL   C20726805   5.678   1.054   7.874 -0.3973 -0.3009 -0.1413
   40MOL   C20826806   5.751   1.105   7.983  0.8299  0.3553 -0.4460
   40MOL   O20926807   5.707   1.217   8.051  0.0812  0.0113  0.2271
   40MOL   C21026808   5.865   1.037   8.033 -0.8575 -0.4716 -0.1303
   40MOL   C21126809   5.912   0.927   7.969 -0.5545 -0.3907  1.0717
   40MOL   C21226810   5.842   0.867   7.858 -0.2127  0.3918 -0.2243
   40MOL   C21326811   5.890   0.746   7.783  0.3439 -0.0207  0.9760
   40MOL   O21426812   5.824   0.694   7.693  0.2151  0.0163  0.6491
   40MOL   C21526813   6.023   0.692   7.825  0.2839 -0.6324 -0.7504
   40MOL   C21626814   6.131   0.785   7.807 -0.6353  0.1034  0.8854
   40MOL   C21726815   6.262   0.743   7.849  0.3816 -0.1963  0.2778
   40MOL   C21826816   6.279   0.610   7.902 -0.0489  0.0740 -0.1909
   40MOL   O21926817   6.401   0.554   7.927  0.1640 -0.1342  0.5282
   40MOL   C22026818   6.433   0.450   8.007 -0.1414 -0.2295 -0.2413
   40MOL   C22126819   6.487   0.333   7.946 -0.9221  0.7233  0.1636
   40MOL   C22226820   6.493   0.220   8.030 -0.5595 -0.4010 -0.0620
   40MOL   C22326821   6.457   0.215   8.167 -0.1311 -0.8103 -0.3808
   40MOL   C22426822   6.409   0.330   8.224  0.5211  0.3287 -0.3591
   40MOL   C22526823   6.403   0.449   8.147  0.1240 -0.6450  0.0157
   40MOL   C22626824   6.166   0.529   7.919 -0.6060  0.0111  0.8964
   40MOL   C22726825   6.036   0.562   7.877 -0.4518  0.3692 -0.4835
   40MOL   H22826826   5.677   0.903   7.717 -2.6015  0.5145  1.9617
   40MOL   H22926827   5.589   1.109   7.848 -0.2083 -0.1356 -0.4342
   40MOL   H23026828   5.911   1.084   8.118 -0.6028  0.8831 -0.9972
   40MOL   H23126829   5.999   0.872   8.003  1.0968  2.0142  0.8578
   40MOL   H23226830   6.115   0.881   7.760  0.5957  1.1098  2.4596
   40MOL   H23326831   6.346   0.806   7.824  0.2683 -1.4252 -3.5655
   40MOL   H23426832   6.509   0.323   7.841  0.9577  0.1180  0.6040
   40MOL   H23526833   6.545   0.138   7.982  0.8977  1.6328 -2.0806
   40MOL   H23626834   6.394   0.331   0.018  2.1323  2.1945 -0.1252
   40MOL   H23726835   6.360   0.540   8.186  1.1094  0.0524 -0.4895
   40MOL   H23826836   6.180   0.430   7.958 -1.4249 -0.0369  1.0783
   40MOL   H23926837   5.955   0.491   7.881  0.0931 -0.1973  0.9575
   40MOL   C24026838   6.178   8.211   8.148  0.1219 -0.3517  0.3714
   40MOL   C24126839   6.258   0.012   8.167  0.0755  0.0496 -0.2246
   40MOL   C24226840   6.393   8.310   8.215  0.6297 -0.1364 -0.6318
   40MOL   O24326841   6.474   0.102   8.240 -0.5581  0.0075 -0.1103
   40MOL   C24426842   6.440   8.177   8.244  0.1805  0.0686 -0.4894
   40MOL   C24526843   6.353   8.066   8.232 -0.1977  0.4135 -0.4366
   40MOL   C24626844   6.226   8.080   8.177  0.3677 -0.5663 -0.2312
   40MOL   C24726845   6.144   7.956   8.155 -0.2404  0.2902  1.0909
   40MOL   O24826846   6.107   7.922   8.045  0.0550 -0.0194  0.3420
   40MOL   C24926847   6.118   7.873   8.277  0.3295 -0.8004 -0.0559
   40MOL   C25026848   6.088   7.737   8.263 -0.3990 -0.2401 -0.0660
   40MOL   C25126849   6.050   7.662   0.063 -0.6289 -0.4087  0.4551
   40MOL   C25226850   6.049   7.720   0.191  0.2171 -0.2083  0.2868
   40MOL   O25326851   6.027   7.643   0.300 -0.1807 -0.2763 -0.3143
   40MOL   C25426852   6.144   7.607   0.361 -0.3966 -0.2963  0.0952
   40MOL   C25526853   6.205   7.481   0.346  0.0638  0.0369  0.2580
   40MOL   C25626854   6.327   7.448   0.410 -0.2870 -0.9320  0.1194
   40MOL   C25726855   6.386   7.539   0.500  0.8109  0.6819 -0.7159
   40MOL   C25826856   6.320   7.662   0.526  0.0196 -0.2766  0.3251
   40MOL   C25926857   6.202   7.693   0.458 -0.4923 -0.1563 -0.3719
   40MOL   C26026858   6.072   7.860   0.206  0.0707  0.5751 -0.2369
   40MOL   C26126859   6.115   7.935   0.094  0.3616 -0.2288  0.9815
   40MOL   H26226860   6.079   8.228   8.109  1.0471 -1.3495 -2.5251
   40MOL   H26326861   6.214   0.110   8.154  2.4310  0.9199 -2.0203
   40MOL   H26426862   6.541   8.153   8.273  0.6240  0.7507 -1.4362
   40MOL   H26526863   6.389   7.972   8.270  0.0143  1.2024  1.3664
   40MOL   H26626864   6.091   7.688   8.167 -2.4436  2.2194 -1.4490
   40MOL   H26726865   6.021   7.559   0.056 -0.9061 -0.2629 -0.5608
   40MOL   H26826866   6.156   7.404   0.288  4.0551 -2.6209  0.2802
   40MOL   H26926867   6.374   7.352   0.400  4.1912  1.0517  0.9396
   40MOL   H27026868   6.360   7.733   0.595  0.0665  0.9612 -0.9550
   40MOL   H27126869   6.161   7.789   0.487  0.3818 -0.0766  0.6477
   40MOL   H27226870   6.072   7.911   0.301 -0.7547  2.5220 -1.2508
   40MOL   H27326871   6.152   8.035   0.111  0.1827  0.0268 -0.0899
   40MOL   C27426872   6.775   7.745   0.498 -0.0769  0.5352  0.3946
   40MOL   C27526873   6.670   7.680   0.558  0.3154  1.1182 -0.9266
   40MOL   C27626874   6.608   7.571   0.499 -0.2410  0.0363  0.1407
   40MOL   O27726875   6.507   7.513   0.561  0.3549 -0.1867  0.2996
   40MOL   C27826876   6.657   7.521   0.375  0.6997  0.0531 -0.3916
   40MOL   C27926877   6.764   7.590   0.314  0.9417  0.3638  1.0665
   40MOL   C28026878   6.826   7.703   0.370  0.5477 -0.0748  0.4173
   40MOL   C28126879   6.944   7.767   0.306 -0.3188 -0.8897 -0.3090
   40MOL   O28226880   6.988   7.869   0.361 -0.1593 -0.2887 -0.2082
   40MOL   C28326881   7.006   7.734   0.174 -0.7252 -0.3949 -0.4237
   40MOL   C28426882   7.037   7.828   0.076 -0.2788  0.2091  0.3122
   40MOL   C28526883   7.090   7.789   8.267  0.4330 -0.0640 -0.1259
   40MOL   C28626884   7.141   7.657   8.250  0.1310 -1.0803  0.0404
   40MOL   O28726885   7.217   7.634   8.136  0.5609  0.3407 -0.2745
   40MOL   C28826886   7.338   7.690   8.121 -0.8010 -0.2623 -0.1046
   40MOL   C28926887   7.451   7.620   8.145  0.0609  0.2817  0.5621
   40MOL   C29026888   7.581   7.666   8.107  0.0420  1.0221 -0.3250
   40MOL   C29126889   7.596   7.789   8.034  0.2688 -0.2278 -0.3116
   40MOL   C29226890   7.473   7.863   8.013  0.0037  0.3704 -0.6965
   40MOL   C29326891   7.349   7.817   8.050  0.4970  0.0510 -0.9212
   40MOL   C29426892   7.111   7.565   0.036  0.4323  0.6650  0.7643
   40MOL   C29526893   7.046   7.601   0.154 -0.2076  0.2126 -0.7444
   40MOL   H29626894   6.816   7.833   0.546  0.0848  0.5506  0.2284
   40MOL   H29726895   6.619   7.721   0.644  2.5549 -0.1800  1.0444
   40MOL   H29826896   6.603   7.441   0.325  3.2542 -0.9147 -1.6942
   40MOL   H29926897   6.790   7.552   0.217  0.3642 -1.7330  1.7011
   40MOL   H30026898   7.009   7.931   0.096 -2.3251 -0.3810  0.5504
   40MOL   H30126899   7.097   7.860   8.185 -3.5415 -1.0043 -1.3895
   40MOL   H30226900   7.439   7.527   8.199 -2.1090  1.5017  2.2513
   40MOL   H30326901   7.664   7.601   8.130 -0.3149  0.7541  0.2250
   40MOL   H30426902   7.470   7.954   7.956 -1.2597  2.3177  2.3379
   40MOL   H30526903   7.260   7.873   8.025 -0.3749 -1.1664 -0.6120
   40MOL   H30626904   7.147   7.464   0.023  1.1996  0.8215  1.6276
   40MOL   H30726905   7.033   7.523   0.227 -1.0865  0.0105 -1.1060
   40MOL   C30826906   8.010   7.621   8.069  0.0937  0.5008  0.3889
   40MOL   C30926907   7.893   7.666   7.999 -0.5109 -0.3306 -0.5980
   40MOL   C31026908   7.830   7.787   8.045 -0.2941  0.1425  0.5611
   40MOL   O31126909   7.717   7.834   7.994  0.4487 -0.0116  0.0904
   40MOL   C31226910   7.904   7.868   8.137  0.2532 -0.0987 -0.2566
   40MOL   C31326911   8.027   7.821   8.190 -0.2307 -0.1389  0.3346
   40MOL   C31426912   8.077   7.695   8.163  0.3158 -0.3787 -0.3750
   40MOL   C31526913   8.200   7.635   8.224 -0.3109 -0.1121  0.4708
   40MOL   O31626914   8.272   7.559   8.154 -0.4042 -0.2075  0.4873
   40MOL   C31726915   8.241   7.676   0.046  0.3328 -0.2932  0.1444
   40MOL   C31826916   0.059   7.695   0.085  0.3227 -0.4021  0.5571
   40MOL   C31926917   0.087   7.731   0.217  0.0246 -0.6189 -0.3517
   40MOL   C32026918   8.296   7.747   0.306  0.1322  0.3147 -0.8527
   40MOL   O32126919   0.019   7.780   0.434 -0.0170 -0.0909  0.3498
   40MOL   C32226920   8.293   7.701   0.536 -0.0276 -0.5872  0.4788
   40MOL   C32326921   8.269   7.763   0.661  0.1789  0.3698  0.0001
   40MOL   C32426922   8.223   7.680   0.769  0.4951 -0.1794  0.2428
   40MOL   C32526923   8.199   7.548   0.749 -0.6353  0.1789 -0.5224
   40MOL   C32626924   8.225   7.488   0.628  0.5512 -0.3297 -0.2193
   40MOL   C32726925   8.273   7.566   0.522  0.1852 -0.2660 -0.6183
   40MOL   C32826926   8.165   7.721   0.271 -0.0799  0.5713 -0.1853
   40MOL   C32926927   8.140   7.684   0.142  0.4459 -0.0392 -1.0527
   40MOL   H33026928   8.033   7.517   8.053 -1.4657  0.3516 -0.9486
   40MOL   H33126929   7.851   7.598   7.927  0.3159 -1.5828  0.0915
   40MOL   H33226930   7.861   7.960   8.173 -1.0424 -0.7564 -0.1186
   40MOL   H33326931   8.077   7.882   8.264  2.7874 -0.8170 -1.0600
   40MOL   H33426932   0.140   7.688   0.014 -0.6777  0.5393 -0.6838
   40MOL   H33526933   0.185   7.766   0.246 -0.4326  1.8020 -1.5065
   40MOL   H33626934   8.288   7.868   0.676 -0.3864  0.1176  2.7327
   40MOL   H33726935   8.197   7.722   0.865 -1.6740  0.1945 -0.4753
   40MOL   H33826936   8.222   7.382   0.611  0.7795 -1.1176  4.1788
   40MOL   H33926937   8.306   7.510   0.436 -0.7041  1.2302 -1.9659
   40MOL   H34026938   8.088   7.725   0.347 -0.8525 -1.5308 -0.8264
   40MOL   H34126939   8.040   7.663   0.110  0.3658 -0.5935 -0.4498
   40MOL   C34226940   8.213   7.106   0.854 -0.4616 -0.3051 -0.4258
   40MOL   C34326941   8.251   7.246   0.848  0.0969  0.1090 -0.0312
   40MOL   C34426942   8.145   7.339   0.854 -0.4966  0.3347  0.0046
   40MOL   O34526943   8.166   7.475   0.862  0.2383  0.2485  0.7808
   40MOL   C34626944   8.016   7.299   0.881 -0.7482 -0.1548  0.4132
   40MOL   C34726945   7.983   7.163   0.874 -0.6017  0.6744 -0.2885
   40MOL   C34826946   8.077   7.054   0.863  0.2964 -0.4537  0.0176
   40MOL   C34926947   8.042   6.913   0.861  0.0162  0.6540 -0.2604
   40MOL   O35026948   7.958   6.863   0.931  0.1649  1.1868 -0.2377
   40MOL   C35126949   8.109   6.833   0.749 -0.1996 -0.6685 -0.1411
   40MOL   C35226950   8.125   6.697   0.758  0.5114 -0.1452  0.6150
   40MOL   C35326951   8.193   6.616   0.665  0.7080  0.0674 -0.2538
   40MOL   C35426952   8.237   6.685   0.549  0.1941 -0.1401  0.6987
   40MOL   O35526953   8.292   6.610   0.452  0.3759  0.5885  0.6402
   40MOL   C35626954   0.115   6.629   0.424 -0.1631 -0.1327 -0.3398
   40MOL   C35726955   0.157   6.712   0.322 -0.2002 -0.3132 -0.0824
   40MOL   C35826956   0.296   6.716   0.291  0.0722  0.0206 -0.3534
   40MOL   C35926957   0.385   6.631   0.359  0.0868  0.0479  0.3791
   40MOL   C36026958   0.341   6.553   0.464 -0.9049 -0.6524  0.1716
   40MOL   C36126959   0.206   6.547   0.496 -0.0788  0.2917  0.7431
   40MOL   C36226960   8.224   6.826   0.532  0.3397  0.4587  0.1789
   40MOL   C36326961   8.156   6.899   0.631 -0.1043  0.2579  0.6800
   40MOL   H36426962   8.292   7.033   0.846 -0.2522 -0.3071  1.3843
   40MOL   H36526963   0.039   7.279   0.832  0.2731  0.1033  1.0181
   40MOL   H36626964   7.935   7.369   0.897  0.6154  1.6470 -0.3213
   40MOL   H36726965   7.877   7.139   0.873  0.2774 -3.6311  1.5018
   40MOL   H36826966   8.088   6.646   0.846  0.9008 -0.8723  0.3553
   40MOL   H36926967   8.201   6.510   0.682  2.9315 -0.0147 -1.6667
   40MOL   H37026968   0.083   6.764   0.264  0.0940  1.0044  0.6928
   40MOL   H37126969   0.336   6.782   0.215  1.0897  0.3060  0.4225
   40MOL   H37226970   0.412   6.488   0.513  1.0579  0.7503 -0.7289
   40MOL   H37326971   0.164   6.484   0.573  0.9919 -0.8153  0.4505
   40MOL   H37426972   8.259   6.877   0.444  1.3121  0.8031  0.7586
   40MOL   H37526973   8.134   7.004   0.620 -1.0721 -0.0739 -0.6711
   40MOL   C37626974   0.764   6.884   0.263  0.9098 -0.7130  0.1969
   40MOL   C37726975   0.674   6.784   0.239 -0.0589  0.6143 -0.9105
   40MOL   C37826976   0.602   6.731   0.352 -0.5545  0.0742 -0.0088
   40MOL   O37926977   0.519   6.617   0.331  0.2735 -0.1450  0.5117
   40MOL   C38026978   0.626   6.777   0.480 -0.6419  0.4797  0.5570
   40MOL   C38126979   0.715   6.885   0.497  0.6384 -0.2618  0.5093
   40MOL   C38226980   0.791   6.937   0.391  0.6642  0.6361  0.6305
   40MOL   C38326981   0.893   7.048   0.404 -0.7375  0.8187 -0.1313
   40MOL   O38426982   0.989   7.052   0.327 -0.0931  0.3787  0.4629
   40MOL   C38526983   0.874   7.153   0.508 -0.4385 -0.5677  0.3743
   40MOL   C38626984   0.986   7.223   0.554  0.0895 -0.0136 -0.8921
   40MOL   C38726985   0.973   7.323   0.651  0.7344 -0.7599 -0.4974
   40MOL   C38826986   0.841   7.351   0.705 -0.8223  0.2071 -0.0690
   40MOL   O38926987   0.834   7.450   0.803 -0.1076 -0.3734 -0.0378
   40MOL   C39026988   0.850   7.580   0.767 -0.3676 -0.0724 -0.4170
   40MOL   C39126989   0.812   7.634   0.640 -0.2952  0.1044 -1.2059
   40MOL   C39226990   0.842   7.769   0.607 -0.3291 -0.2790 -0.1206
   40MOL   C39326991   0.884   7.859   0.704 -0.3723  0.6408 -0.4653
   40MOL   C39426992   0.911   7.807   0.829 -0.1121 -0.0662  0.1149
   40MOL   C39526993   0.905   7.673   0.858  0.1245 -0.7996 -0.1092
   40MOL   C39626994   0.721   7.297   0.644  0.6163 -0.0237 -0.7128
   40MOL   C39726995   0.746   7.194   0.550 -0.0387  0.6496 -0.3690
   40MOL   H39826996   0.824   6.925   0.183  0.9100  0.6582  0.8846
   40MOL   H39926997   0.668   6.747   0.137  1.4049  0.9556 -1.1375
   40MOL   H40026998   0.568   6.747   0.566 -0.5570  1.2615  0.8963
   40MOL   H40126999   0.715   6.922   0.599  0.2075  0.2298  0.3257
   40MOL   H40227000   1.081   7.195   0.510  1.0802 -0.3848  1.3739
   40MOL   H40327001   1.065   7.373   0.676  0.4331 -0.4469 -0.0022
   40MOL   H40427002   0.765   7.578   0.560 -1.2116 -0.8308 -0.0401
   40MOL   H40527003   0.823   7.805   0.507 -3.0453  0.3393  0.5675
   40MOL   H40627004   0.934   7.877   0.909  2.4997 -1.7817  0.9080
   40MOL   H40727005   0.917   7.639   0.959 -2.7171  2.6738  1.5140
   40MOL   H40827006   0.623   7.331   0.671  2.1145  2.9389  1.2533
   40MOL   H40927007   0.660   7.142   0.511 -0.4917  1.1576 -0.0658
   40MOL   C41027008   0.658   8.163   0.474 -0.6931  0.7818 -0.6126
   40MOL   C41127009   0.723   8.120   0.594  0.3375  0.4494 -0.1995
   40MOL   C41227010   0.845   8.058   0.577 -0.0450  0.5135 -0.1430
   40MOL   O41327011   0.910   7.988   0.680  0.0120 -0.6628 -0.8319
   40MOL   C41427012   0.908   8.045   0.451  0.4324 -0.0258  0.3804
   40MOL   C41527013   0.837   8.088   0.334 -0.5338 -0.1926 -0.1093
   40MOL   C41627014   0.711   8.141   0.351 -0.8128  0.2434  0.4818
   40MOL   C41727015   0.634   8.185   0.227  0.0009  0.2161 -0.2106
   40MOL   O41827016   0.693   8.221   0.128 -0.0543 -0.2128  0.3487
   40MOL   C41927017   0.487   8.194   0.233 -0.0728 -0.4407  0.2222
   40MOL   C42027018   0.409   8.088   0.285  0.2746  0.3908  0.7384
   40MOL   C42127019   0.268   8.109   0.304 -0.0918  0.1985  0.4461
   40MOL   C42227020   0.200   8.224   0.263  0.0059 -0.2168 -0.9866
   40MOL   O42327021   0.066   8.239   0.269  0.1740 -0.1538  0.4524
   40MOL   C42427022   0.019   0.034   0.347  1.0945  0.5856 -0.7775
   40MOL   C42527023   0.082   0.067   0.469  0.4767  0.3292  0.1953
   40MOL   C42627024   0.032   0.159   0.559  1.0747 -0.0831  0.2340
   40MOL   C42727025   8.225   0.224   0.530 -0.2279  0.0380 -0.3557
   40MOL   C42827026   8.157   0.190   0.409 -0.2741  0.4632 -0.1933
   40MOL   C42927027   8.204   0.092   0.320 -0.4422 -0.8823 -0.2234
   40MOL   C43027028   0.282   0.016   0.206 -0.1948  0.0018 -0.6587
   40MOL   C43127029   0.422   0.002   0.195 -0.5870 -0.8007 -1.0302
   40MOL   H43227030   0.565   8.218   0.484 -1.0255 -0.1185  1.4448
   40MOL   H43327031   0.668   8.115   0.686  0.8221 -0.4964  0.0441
   40MOL   H43427032   1.011   8.013   0.445  1.0215  1.6772  1.2207
   40MOL   H43527033   0.886   8.063   0.241 -1.4315 -1.7682 -0.1687
   40MOL   H43627034   0.462   8.001   0.320  2.1201  1.4260  0.5814
   40MOL   H43727035   0.212   8.032   0.355 -0.3283 -0.7490 -1.2303
   40MOL   H43827036   0.178   0.025   0.498  0.1444 -0.4869  0.1138
   40MOL   H43927037   0.083   0.181   0.652  2.5872 -1.2145 -0.3216
   40MOL   H44027038   8.058   0.229   0.391 -1.1824 -1.2515  1.0232
   40MOL   H44127039   8.150   0.061   0.231 -1.6151  1.6545 -0.4263
   40MOL   H44227040   0.227   0.103   0.174  0.9044  0.3705 -1.5990
   40MOL   H44327041   0.471   0.088   0.152 -0.6523  0.9051  2.1856
   40MOL   C44427042   0.011   0.638   0.612 -0.3491  0.0938 -0.0026
   40MOL   C44527043   8.306   0.501   0.620  0.2994  0.7577 -0.0428
   40MOL   C44627044   8.182   0.443   0.593  0.0155  0.3160 -0.2911
   40MOL   O44727045   8.166   0.311   0.616 -0.0882  0.5039  0.4425
   40MOL   C44827046   8.081   0.529   0.536 -0.1466  0.0827  0.2526
   40MOL   C44927047   8.093   0.668   0.543 -0.7202  0.4381  0.1051
   40MOL   C45027048   8.213   0.724   0.582  0.1244  0.1129 -0.0840
   40MOL   C45127049   8.229   0.875   0.602  0.4392  0.1153  0.3127
   40MOL   O45227050   0.030   0.913   0.626  0.6038  0.3018 -1.2480
   40MOL   C45327051   8.116   0.974   0.587 -0.2950 -0.1877 -0.2676
   40MOL   C45427052   8.099   1.061   0.694  0.2308 -0.0728  0.3204
   40MOL   C45527053   7.987   1.145   0.697  0.3771 -1.0945 -0.5028
   40MOL   C45627054   7.891   1.140   0.596 -0.2800  0.1265 -0.7068
   40MOL   O45727055   7.776   1.216   0.607  0.2674  0.3013  0.3898
   40MOL   C45827056   7.756   1.318   0.520 -0.4316  0.2419  0.0216
   40MOL   C45927057   7.850   1.423   0.520 -0.3866  0.4104  0.0399
   40MOL   C46027058   7.835   1.532   0.427  0.3960  0.2567 -0.7597
   40MOL   C46127059   7.726   1.539   0.344 -0.5594 -0.0806 -0.0210
   40MOL   C46227060   7.626   1.436   0.347  0.1094  0.1202 -1.0331
   40MOL   C46327061   7.637   1.330   0.444  0.1250 -0.6002  0.2842
   40MOL   C46427062   7.906   1.050   0.492  0.1991  0.8914 -0.4860
   40MOL   C46527063   8.022   0.972   0.480 -0.0131 -0.0531 -0.3698
   40MOL   H46627064   0.109   0.671   0.643 -0.1236 -1.3591  0.8758
   40MOL   H46727065   0.079   0.440   0.645 -1.3552 -1.4514  0.3745
   40MOL   H46827066   7.985   0.482   0.519 -0.9018  1.2633  1.1375
   40MOL   H46927067   8.009   0.733   0.524 -0.5271  0.4572 -0.6856
   40MOL   H47027068   8.164   1.045   0.778 -0.7292  0.1232  1.1159
   40MOL   H47127069   7.984   1.218   0.776  0.7444 -1.4428 -0.1676
   40MOL   H47227070   7.945   1.425   0.572 -0.4304  1.4641  0.0895
   40MOL   H47327071   7.906   1.613   0.424 -1.4161  1.9313  0.4130
   40MOL   H47427072   7.544   1.440   0.276 -0.5941  2.7279 -0.1284
   40MOL   H47527073   7.560   1.255   0.446 -0.0289 -0.4423  0.3095
   40MOL   H47627074   7.828   1.038   0.417 -1.3514  0.0317  1.2228
   40MOL   H47727075   8.031   0.908   0.393 -2.6375  1.5054 -1.8508
   40MOL   C47827076   7.650   1.544   8.213 -0.2453  0.5235  0.1304
   40MOL   C47927077   7.623   1.580   0.032 -0.5353 -0.0428  0.3061
   40MOL   C48027078   7.729   1.593   0.125 -0.2464  1.1588  0.0292
   40MOL   O48127079   7.719   1.642   0.250  0.0898 -0.1029 -0.0826
   40MOL   C48227080   7.855   1.578   0.077 -0.0974  0.1714 -0.4024
   40MOL   C48327081   7.891   1.558   8.253 -0.0991 -0.1710  0.2566
   40MOL   C48427082   7.787   1.545   8.163  0.8695  0.5333 -0.6685
   40MOL   C48527083   7.816   1.528   8.024 -0.7622  0.1854  0.4695
   40MOL   O48627084   7.749   1.590   7.939 -0.2554 -0.2590  0.6119
   40MOL   C48727085   7.924   1.433   7.986  0.5469  0.0910  0.2994
   40MOL   C48827086   7.913   1.297   8.028 -0.0570  0.2045  0.5662
   40MOL   C48927087   8.013   1.199   8.003 -0.5863 -0.0194  0.1515
   40MOL   C49027088   8.132   1.236   7.938 -0.1588  0.1928  0.4684
   40MOL   O49127089   8.231   1.149   7.922  0.4561  0.1075  0.6134
   40MOL   C49227090   0.023   1.142   8.012  0.6475 -0.4479 -0.0086
   40MOL   C49327091   0.014   1.068   8.137 -0.8714 -0.5111  0.1459
   40MOL   C49427092   0.128   1.072   8.222  0.1358  0.9581  0.1361
   40MOL   C49527093   0.247   1.137   8.185 -1.0594 -0.1791 -0.5576
   40MOL   C49627094   0.251   1.202   8.058  0.2122 -0.1084  0.0836
   40MOL   C49727095   0.136   1.213   7.978 -0.9081 -0.0217  0.1962
   40MOL   C49827096   8.138   1.375   7.893  0.1496  0.7532 -0.1934
   40MOL   C49927097   8.033   1.470   7.907  0.4742 -0.3966  0.0566
   40MOL   H50027098   7.572   1.541   8.138  0.1041 -0.2243 -0.2094
   40MOL   H50127099   7.524   1.589   0.073 -0.5972  0.9134 -0.0171
   40MOL   H50227100   7.940   1.584   0.143  1.7792  2.6128 -2.9117
   40MOL   H50327101   7.995   1.543   8.228  0.0386 -3.5890  2.5260
   40MOL   H50427102   7.829   1.258   8.084 -0.0863  1.1372  1.1959
   40MOL   H50527103   7.994   1.101   8.043 -0.0160 -0.6208 -1.0268
   40MOL   H50627104   8.236   1.017   8.164 -2.0024  1.2732 -0.2050
   40MOL   H50727105   0.136   1.016   0.002  0.6974  0.1921 -0.3708
   40MOL   H50827106   0.337   1.259   8.026  0.8283 -0.0642  1.7559
   40MOL   H50927107   0.135   1.267   7.885  3.6087 -0.8712 -0.4578
   40MOL   H51027108   8.221   1.415   7.837  2.7577 -0.5504  2.6094
   40MOL   H51127109   8.042   1.570   7.868 -0.9062 -0.5405 -0.6576
   40MOL   C51227110   0.322   1.476   0.131 -0.6065 -0.1842 -0.1602
   40MOL   C51327111   0.335   1.388   0.021  0.2993 -0.0333 -0.3643
   40MOL   C51427112   0.350   1.246   0.049 -0.8213 -0.3580  0.2795
   40MOL   O51527113   0.360   1.153   8.266 -0.2884  0.0294  0.0695
   40MOL   C51627114   0.350   1.201   0.182 -0.8796 -0.6387  0.6101
   40MOL   C51727115   0.340   1.293   0.291 -0.3791 -0.0666 -0.2468
   40MOL   C51827116   0.331   1.432   0.263  0.5752  0.0498 -0.0219
   40MOL   C51927117   0.322   1.529   0.380  0.0303  0.0549  0.1351
   40MOL   O52027118   0.211   1.580   0.403 -0.6953 -0.0064 -0.2369
   40MOL   C52127119   0.446   1.546   0.457  0.1837  0.2021 -0.4063
   40MOL   C52227120   0.435   1.583   0.591 -0.9122 -0.1653  0.6673
   40MOL   C52327121   0.549   1.594   0.669  0.4006 -0.4906 -0.2557
   40MOL   C52427122   0.678   1.572   0.618  0.5859 -0.1834 -0.4272
   40MOL   O52527123   0.786   1.586   0.706  0.1720  0.0240 -0.0861
   40MOL   C52627124   0.788   1.698   0.776 -0.0121 -0.4376  0.1244
   40MOL   C52727125   0.777   1.826   0.718  0.3157 -0.5380  0.3431
   40MOL   C52827126   0.781   1.940   0.808 -0.1254 -0.5123 -0.0244
   40MOL   C52927127   0.823   1.921   0.947  0.3223  0.1174 -0.0394
   40MOL   C53027128   0.837   1.789   0.995 -0.8396  0.0923 -0.3322
   40MOL   C53127129   0.814   1.680   0.911  0.1736  0.6162 -0.1140
   40MOL   C53227130   0.696   1.533   0.484  0.2538  0.4500  0.8931
   40MOL   C53327131   0.577   1.531   0.404  0.6008 -0.2078  0.3091
   40MOL   H53427132   0.315   1.581   0.106 -0.9196  0.2981  1.8296
   40MOL   H53527133   0.334   1.416   8.229  1.7208 -1.6553 -0.8252
   40MOL   H53627134   0.345   1.096   0.205  1.2151 -0.4850  1.9412
   40MOL   H53727135   0.348   1.268   0.396  1.3844 -0.6709 -0.5107
   40MOL   H53827136   0.338   1.600   0.636 -1.5197 -0.6400 -0.4331
   40MOL   H53927137   0.527   1.631   0.768 -2.5419 -0.6748 -0.7917
   40MOL   H54027138   0.756   1.838   0.613 -2.3165  0.5519  0.9378
   40MOL   H54127139   0.750   2.038   0.776 -1.9006  0.0490  3.1819
   40MOL   H54227140   0.862   1.783   1.100  2.5541  0.8134 -1.0436
   40MOL   H54327141   0.822   1.581   0.954 -3.8144  1.1041  2.0861
   40MOL   H54427142   0.794   1.524   0.439 -1.1265 -1.1532 -1.9357
   40MOL   H54527143   0.592   1.508   0.300  1.9442  0.7798  0.2693
   40MOL   C54627144   1.157   2.172   1.006  0.7278  0.2199 -0.1837
   40MOL   C54727145   1.041   2.098   0.974 -0.7871 -0.3981 -0.6202
   40MOL   C54827146   0.934   2.098   1.060 -0.0731 -0.0409  0.0521
   40MOL   O54927147   0.821   2.024   1.039 -0.1501  0.1978  0.3043
   40MOL   C55027148   0.942   2.172   1.183 -0.0098 -0.6790  0.4452
   40MOL   C55127149   1.056   2.249   1.213  0.9583 -0.7158 -0.2612
   40MOL   C55227150   1.166   2.246   1.124  0.0611 -0.3573 -0.3287
   40MOL   C55327151   1.285   2.328   1.155 -0.6830 -0.1251 -1.3654
   40MOL   O55427152   1.326   2.403   1.069 -0.4152  0.5011 -0.0107
   40MOL   C55527153   1.338   2.329   1.293  0.1206  0.6443  0.3319
   40MOL   C55627154   1.404   2.447   1.331 -0.4344  0.1820 -0.2653
   40MOL   C55727155   1.482   2.451   1.448 -0.1889  0.6477 -0.0570
   40MOL   C55827156   1.480   2.341   1.535  0.8321  0.2847 -0.1294
   40MOL   O55927157   1.558   2.338   1.648 -0.0693  0.5607  0.4336
   40MOL   C56027158   1.542   2.434   1.742  0.0701  0.0760 -0.3106
   40MOL   C56127159   1.435   2.432   1.829 -0.3076 -0.1343  0.1561
   40MOL   C56227160   1.418   2.526   1.936  0.0684 -0.3370 -0.4293
   40MOL   C56327161   1.521   2.621   1.964 -0.3115  0.3532  0.1637
   40MOL   C56427162   1.633   2.628   1.875  0.6048  0.1580  0.1037
   40MOL   C56527163   1.641   2.538   1.762  0.3637 -0.0826 -0.1911
   40MOL   C56627164   1.400   2.229   1.505  0.5826  0.2651  0.0136
   40MOL   C56727165   1.335   2.217   1.382 -0.0728  0.3828  0.4388
   40MOL   H56827166   1.237   2.165   0.934 -0.5121 -3.3104 -1.3079
   40MOL   H56927167   1.039   2.053   0.876  0.6329  0.0650 -0.8698
   40MOL   H57027168   0.855   2.174   1.246 -2.2494 -1.8467 -2.4995
   40MOL   H57127169   1.063   2.319   1.296  1.3534  0.7246 -1.4827
   40MOL   H57227170   1.416   2.529   1.262  1.1520  0.1751 -0.0264
   40MOL   H57327171   1.520   2.549   1.475 -0.6929  0.6463  0.6847
   40MOL   H57427172   1.357   2.361   1.806  0.3010 -0.5796 -0.5383
   40MOL   H57527173   1.334   2.524   2.004  0.2294 -0.8694 -0.2457
   40MOL   H57627174   1.716   2.692   1.898  0.9074 -1.0011  2.4225
   40MOL   H57727175   1.724   2.533   1.693 -1.0563 -0.2009 -1.9346
   40MOL   H57827176   1.409   2.146   1.573 -1.2593 -1.3974 -1.7232
   40MOL   H57927177   1.272   2.133   1.356  0.6201  0.1539 -0.5056
   40MOL   C58027178   1.403   2.610   2.401  0.3240 -0.2227 -0.2335
   40MOL   C58127179   1.398   2.647   2.266  0.7018  0.1418  0.7018
   40MOL   C58227180   1.518   2.659   2.194 -0.2933  0.3352 -0.2862
   40MOL   O58327181   1.512   2.712   2.068 -0.7060  0.3937 -0.0371
   40MOL   C58427182   1.644   2.631   2.256  0.5363 -0.4850 -1.1075
   40MOL   C58527183   1.643   2.602   2.391 -0.3755  0.0009 -0.3974
   40MOL   C58627184   1.526   2.583   2.463 -0.6187  0.8253 -0.6130
   40MOL   C58727185   1.536   2.533   2.606  0.5121  0.5809  0.0792
   40MOL   O58827186   1.614   2.590   2.683 -0.0449  0.1229  0.0179
   40MOL   C58927187   1.453   2.421   2.643  1.0164 -0.0671  0.3383
   40MOL   C59027188   1.396   2.331   2.554  0.6371 -0.0081  0.1708
   40MOL   C59127189   1.331   2.217   2.597  0.4591 -0.2008  0.1585
   40MOL   C59227190   1.303   2.197   2.738 -0.4394  0.2013 -0.1259
   40MOL   O59327191   1.238   2.082   2.772 -0.2641  0.2606 -0.3966
   40MOL   C59427192   1.245   2.041   2.907  0.6339  0.4247 -0.6530
   40MOL   C59527193   1.369   2.007   2.961 -0.4969  1.3796 -0.7774
   40MOL   C59627194   1.377   1.956   3.093 -0.2631  0.7493  0.2868
   40MOL   C59727195   1.263   1.954   3.171  0.2631 -0.0169 -0.5163
   40MOL   C59827196   1.134   1.981   3.111  0.0790 -0.4713  0.5142
   40MOL   C59927197   1.123   2.017   2.973  0.2111  0.3708 -0.1651
   40MOL   C60027198   1.364   2.288   2.830 -0.6028  0.2508 -0.3518
   40MOL   C60127199   1.434   2.401   2.784 -0.1713  0.4348 -0.1929
   40MOL   H60227200   1.311   2.603   2.457  0.3306  2.3166  0.1465
   40MOL   H60327201   1.310   2.670   2.207  0.5707 -2.0383 -0.0288
   40MOL   H60427202   1.737   2.650   2.205  1.0960  0.6763  0.3156
   40MOL   H60527203   1.737   2.578   2.438  0.4757  0.7430 -1.6789
   40MOL   H60627204   1.403   2.346   2.447  0.9703 -1.2367  0.0091
   40MOL   H60727205   1.308   2.153   2.513 -2.6706  0.4938  0.4115
   40MOL   H60827206   1.450   2.027   2.893  0.2641 -2.4630 -1.1465
   40MOL   H60927207   1.473   1.946   3.140  0.5774  0.0147 -1.5529
   40MOL   H61027208   1.043   1.972   3.169 -0.0647  0.6692  0.4631
   40MOL   H61127209   1.024   2.037   2.936  0.9748  1.2487 -1.7873
   40MOL   H61227210   1.340   2.282   2.935 -0.6272 -0.5207 -0.3997
   40MOL   H61327211   1.481   2.465   2.857  0.7266 -1.1175  0.6253
   40MOL   C61427212   1.003   1.739   3.419  0.2023  0.1114 -0.2919
   40MOL   C61527213   1.106   1.786   3.335 -0.2245 -0.8863 -0.5382
   40MOL   C61627214   1.181   1.904   3.376  0.4938  0.0434 -0.4122
   40MOL   O61727215   1.293   1.945   3.304  0.7458 -0.0416  1.0410
   40MOL   C61827216   1.138   1.976   3.493 -0.0745  0.5950 -0.4602
   40MOL   C61927217   1.041   1.924   3.582 -0.0668 -0.7950  0.2905
   40MOL   C62027218   0.973   1.806   3.540  0.1716  0.3457  0.0357
   40MOL   C62127219   0.862   1.758   3.629 -0.2352  0.2491  0.9571
   40MOL   O62227220   0.779   1.837   3.666  0.1234 -0.4784  0.0168
   40MOL   C62327221   0.857   1.613   3.667  0.6182  0.3117  0.0437
   40MOL   C62427222   0.738   1.566   3.729 -0.7157 -0.2064  0.3799
   40MOL   C62527223   0.720   1.431   3.761 -0.0179  0.4801 -0.1545
   40MOL   C62627224   0.812   1.338   3.717 -0.1489  0.1192  0.2772
   40MOL   O62727225   0.799   1.208   3.736 -0.5981  0.3543  0.4205
   40MOL   C62827226   0.761   1.157   3.861  0.0376  0.0325  0.0359
   40MOL   C62927227   0.820   1.194   3.982  0.0310 -0.3798 -0.8162
   40MOL   C63027228   0.774   1.134   4.103 -0.2267 -0.3638  0.5481
   40MOL   C63127229   0.667   1.043   4.097  0.4286 -0.1550  0.3811
   40MOL   C63227230   0.622   0.995   3.974 -0.5735 -0.5209  0.0703
   40MOL   C63327231   0.666   1.054   3.860 -0.5465  0.3159  0.2213
   40MOL   C63427232   0.932   1.379   3.664 -0.2062  0.2781 -0.0641
   40MOL   C63527233   0.955   1.515   3.642 -0.0375 -0.0542  0.2403
   40MOL   H63627234   0.949   1.647   3.400 -1.5479  0.6393  2.0021
   40MOL   H63727235   1.140   1.728   3.250  0.6358  0.3161 -1.0278
   40MOL   H63827236   1.189   2.068   3.515  1.4346 -0.6414  1.3865
   40MOL   H63927237   1.019   1.980   3.672 -3.3578 -1.5001 -0.0359
   40MOL   H64027238   0.667   1.640   3.764 -0.6377  0.3086 -0.5367
   40MOL   H64127239   0.632   1.394   3.813  1.4247 -2.4159  0.3075
   40MOL   H64227240   0.900   1.266   3.983 -0.6030  0.3500 -1.2008
   40MOL   H64327241   0.810   1.159   4.202  1.9855 -1.1050 -0.0472
   40MOL   H64427242   0.549   0.915   3.970  0.2951 -1.3264  0.3656
   40MOL   H64527243   0.615   1.018   3.772 -3.7130  0.0366  2.0588
   40MOL   H64627244   0.996   1.299   3.631 -0.0814 -0.4803  1.9551
   40MOL   H64727245   1.053   1.540   3.604 -0.2605  0.5330  0.0452
   40MOL   C64827246   0.296   1.179   4.226 -0.1124 -0.1854 -0.1802
   40MOL   C64927247   0.411   1.115   4.171 -0.6824  0.0446  0.2395
   40MOL   C65027248   0.503   1.054   4.261 -0.3668 -0.3657 -0.6192
   40MOL   O65127249   0.615   0.993   4.210 -0.2636  0.2006  0.0013
   40MOL   C65227250   0.488   1.072   4.401  0.4702  0.6057 -0.2008
   40MOL   C65327251   0.377   1.149   4.450 -0.3217  0.3151  0.0133
   40MOL   C65427252   0.283   1.203   4.367  0.9406  0.1123  0.3261
   40MOL   C65527253   0.155   1.257   4.428 -0.4943  0.7645 -0.3152
   40MOL   O65627254   0.105   1.196   4.525 -0.1417 -0.0925 -0.0280
   40MOL   C65727255   0.085   1.369   4.362  0.1172  0.3593 -0.0658
   40MOL   C65827256   0.170   1.469   4.312 -0.9234 -1.4418  0.5518
   40MOL   C65927257   0.117   1.573   4.231  1.0370 -0.3561 -0.3154
   40MOL   C66027258   8.290   1.579   4.209 -0.8032 -0.3052 -0.2266
   40MOL   O66127259   8.247   1.693   4.147 -0.2723  0.2479  0.0944
   40MOL   C66227260   8.170   1.683   4.035 -0.5625  0.3049  0.2279
   40MOL   C66327261   8.231   1.668   3.909 -0.3102  0.6921  0.0375
   40MOL   C66427262   8.163   1.656   3.785  0.6864 -0.8856 -0.1583
   40MOL   C66527263   8.021   1.657   3.784 -0.0807 -0.7913  0.1003
   40MOL   C66627264   7.954   1.673   3.908  0.1080 -0.7372  0.2789
   40MOL   C66727265   8.031   1.692   4.030 -0.2063  0.5437  0.8188
   40MOL   C66827266   8.205   1.475   4.259 -0.0658 -0.4927 -0.3782
   40MOL   C66927267   8.259   1.365   4.330  0.9095 -0.8522  0.4833
   40MOL   H67027268   0.220   1.216   4.159 -0.2780 -0.3972 -0.1090
   40MOL   H67127269   0.426   1.120   4.064  3.1310 -0.5497  0.6726
   40MOL   H67227270   0.562   1.036   4.470 -0.7852 -1.4513  0.0974
   40MOL   H67327271   0.367   1.138   4.557 -1.4923 -0.8465 -0.2075
   40MOL   H67427272   0.275   1.480   4.338 -1.0078  0.0186  0.3382
   40MOL   H67527273   0.178   1.651   4.188 -0.1800  0.7492 -0.0372
   40MOL   H67627274   0.026   1.670   3.919 -0.2161  1.3768 -1.1000
   40MOL   H67727275   8.195   1.636   3.683 -1.9266 -0.6164 -1.0836
   40MOL   H67827276   7.846   1.672   3.907  0.1003 -1.7668 -3.0663
   40MOL   H67927277   7.975   1.716   4.119  0.6154  1.4624  1.0987
   40MOL   H68027278   8.099   1.480   4.243 -0.1053  1.1391  0.3393
   40MOL   H68127279   8.191   1.290   4.367  0.6797 -1.6522 -1.4995
   40MOL   H68227280   7.965   1.638   3.693 -0.6501  0.5736  0.1596
   41MOL     C127281   3.725   8.157   4.100  0.0923  0.4056 -0.2091
   41MOL     C227282   3.748   8.295   4.090  0.6917 -0.0084 -0.1951
   41MOL     C327283   3.869   0.033   4.031  0.1057  0.1959 -0.6362
   41MOL     O427284   3.874   0.169   4.006 -0.5642 -0.5609  0.7770
   41MOL     C527285   3.960   8.256   3.973  0.4446 -0.1922  0.5054
   41MOL     C627286   3.933   8.121   3.974 -0.1955 -0.4723  0.1656
   41MOL     C727287   3.818   8.067   4.048 -0.3928  0.5379  0.1920
   41MOL     C827288   3.803   7.922   4.053 -0.3258  0.2787  0.3903
   41MOL     O927289   3.848   7.848   3.963  0.8066  0.7043 -0.2222
   41MOL    C1027290   3.715   7.865   4.165 -0.0077  0.4265  0.1717
   41MOL    C1127291   3.622   7.761   4.138 -1.5727 -0.7062  0.3005
   41MOL    C1227292   3.540   7.710   4.244 -0.0913  1.7294  0.0098
   41MOL    C1327293   3.551   7.751   4.375 -0.4282 -0.0792  0.3153
   41MOL    O1427294   3.469   7.714   4.475 -0.3742  0.1172 -0.9872
   41MOL    C1527295   3.506   7.725   4.604  0.1980  0.0109  0.1253
   41MOL    C1627296   3.478   7.833   4.685  0.7437  0.0390 -0.3614
   41MOL    C1727297   3.523   7.835   4.817  0.6423 -0.4796 -0.2079
   41MOL    C1827298   3.591   7.730   4.882  0.4435 -0.6179 -0.2541
   41MOL    C1927299   3.628   7.624   4.795  0.0146 -0.3645  0.3937
   41MOL    C2027300   3.594   7.627   4.657 -0.1958 -0.1385 -0.0350
   41MOL    C2127301   3.634   7.867   4.394 -0.7481  0.2686  0.1376
   41MOL    C2227302   3.714   7.921   4.293 -0.3843  0.0623  0.3136
   41MOL    H2327303   3.635   8.116   4.142  0.9783 -0.8120  0.5438
   41MOL    H2427304   3.669   0.050   4.118  0.9493  0.4331 -0.5298
   41MOL    H2527305   4.049   8.294   3.925  0.7412 -3.1445 -1.3796
   41MOL    H2627306   4.001   8.056   3.922  1.3103  1.3719 -0.2026
   41MOL    H2727307   3.606   7.742   4.033  1.8440  2.3623 -0.8865
   41MOL    H2827308   3.467   7.633   4.226  0.7826  0.7456  0.5820
   41MOL    H2927309   3.404   7.901   4.646  1.0980  0.0114 -1.0896
   41MOL    H3027310   3.483   7.904   4.889  0.5340 -1.8112  1.0423
   41MOL    H3127311   3.684   7.539   4.830 -0.6382 -0.9839 -0.0466
   41MOL    H3227312   3.631   7.550   4.591 -2.1308 -1.1746  0.0738
   41MOL    H3327313   3.641   7.907   4.494  0.4255  0.7833 -0.1441
   41MOL    H3427314   3.762   8.016   4.312 -1.7009  0.6711  0.6987
   41MOL    H3527315   3.786   0.202   4.009  0.4579  2.2055  1.5317
   41MOL    C3627316   3.764   7.416   5.149  0.0144  0.2920  0.5019
   41MOL    C3727317   3.756   7.544   5.085 -0.2836  0.3341 -0.0048
   41MOL    C3827318   3.634   7.617   5.077  0.1948 -0.1184  0.1219
   41MOL    O3927319   3.623   7.741   5.018  0.1055 -0.4123  0.0776
   41MOL    C4027320   3.515   7.561   5.136  0.0543  0.5590 -0.0185
   41MOL    C4127321   3.525   7.436   5.195  0.2861  0.0162 -0.0516
   41MOL    C4227322   3.648   7.369   5.211 -0.3625  0.3052 -0.3822
   41MOL    C4327323   3.650   7.240   5.283  0.7612  0.0873 -0.2918
   41MOL    O4427324   3.572   7.150   5.253  0.2629 -0.0234 -0.0508
   41MOL    C4527325   3.761   7.222   5.389  0.0770 -0.6829  0.0044
   41MOL    C4627326   3.816   7.335   5.462 -0.0308 -0.4661 -0.0764
   41MOL    C4727327   3.917   7.316   5.557  0.0573  0.4434 -0.5978
   41MOL    C4827328   3.962   7.181   5.586  0.0708 -0.1390 -0.1001
   41MOL    O4927329   4.062   7.165   5.683  0.0832  0.4839  0.0222
   41MOL    C5027330   4.043   7.200   5.811  0.7496 -0.8393  0.4097
   41MOL    C5127331   4.147   7.264   5.875  0.8057  0.1372 -1.1456
   41MOL    C5227332   4.126   7.317   6.003  0.0733 -0.3178 -0.4698
   41MOL    C5327333   4.001   7.314   6.054 -0.5955  0.0557 -0.5915
   41MOL    C5427334   3.895   7.254   5.983  0.4933  0.6881  0.2687
   41MOL    C5527335   3.911   7.187   5.867 -0.0739 -0.1773 -0.0589
   41MOL    C5627336   3.914   7.072   5.511  0.3762  0.2786  0.2793
   41MOL    C5727337   3.808   7.095   5.416  0.2749  0.4519  0.2836
   41MOL    H5827338   3.867   7.385   5.157  0.6707  1.9876 -0.7463
   41MOL    H5927339   3.846   7.593   5.050  0.0752 -0.8445 -0.7762
   41MOL    H6027340   3.425   7.620   5.128  0.3062  1.4555  3.1756
   41MOL    H6127341   3.435   7.388   5.230 -0.4171  0.7966 -0.7715
   41MOL    H6227342   3.785   7.435   5.435 -1.0998 -1.0268 -0.9716
   41MOL    H6327343   3.963   7.397   5.611  0.6718  0.4240 -1.0876
   41MOL    H6427344   4.243   7.265   5.826  0.1139  0.5438 -2.5066
   41MOL    H6527345   4.209   7.364   6.053  1.0965 -0.2658 -2.1668
   41MOL    H6627346   3.793   7.271   6.016  0.2173 -0.0479 -0.1818
   41MOL    H6727347   3.822   7.142   5.826 -0.4448  0.2051  0.3299
   41MOL    H6827348   3.953   6.972   5.521 -0.0240 -0.0730 -1.4272
   41MOL    H6927349   3.772   7.004   5.370  1.8144  0.3002 -0.6862
   41MOL    C7027350   3.663   7.537   6.311 -0.0052 -0.3736 -0.4077
   41MOL    C7127351   3.778   7.453   6.302 -0.6640 -0.1654 -0.3766
   41MOL    C7227352   3.867   7.460   6.193  0.5333 -0.4349  0.3695
   41MOL    O7327353   3.980   7.382   6.173 -0.7667  0.3682 -0.1676
   41MOL    C7427354   3.840   7.551   6.091 -0.0552 -0.1067 -0.0563
   41MOL    C7527355   3.734   7.643   6.104  0.2625  0.1414 -0.0563
   41MOL    C7627356   3.644   7.632   6.212 -0.4382 -0.1910  0.1459
   41MOL    C7727357   3.526   7.721   6.230 -1.2732  0.2076  0.6381
   41MOL    O7827358   3.440   7.687   6.305  0.3294  0.1976 -0.5502
   41MOL    C7927359   3.529   7.861   6.170 -0.0337 -0.5760  0.0044
   41MOL    C8027360   3.641   7.944   6.177 -0.4665 -0.2842  0.0163
   41MOL    C8127361   3.648   8.060   6.107  0.6203  0.0062 -0.0572
   41MOL    C8227362   3.540   8.115   6.036  0.2881  0.3918  0.3045
   41MOL    O8327363   3.555   8.222   5.954 -0.0941 -0.3522 -0.0226
   41MOL    C8427364   3.677   8.248   5.895 -0.4848 -0.7364 -0.5074
   41MOL    C8527365   3.729   8.155   5.807  0.1402  0.0618  0.3836
   41MOL    C8627366   3.849   8.182   5.735 -0.4392 -0.9211  0.4745
   41MOL    C8727367   3.913   8.301   5.758 -0.0320  0.4499 -0.4083
   41MOL    C8827368   3.863   0.079   5.850 -0.0295  0.4943  0.4401
   41MOL    C8927369   3.737   0.062   5.916 -0.3004  0.0126  0.7821
   41MOL    C9027370   3.415   8.038   6.039 -0.2110 -0.2532 -0.3942
   41MOL    C9127371   3.412   7.915   6.105  0.0579 -0.1065  0.4200
   41MOL    H9227372   3.592   7.515   6.389 -0.0416  1.9059  0.2307
   41MOL    H9327373   3.792   7.375   6.376  1.2917 -0.9515 -1.5453
   41MOL    H9427374   3.898   7.553   6.000 -1.5163 -1.3409 -1.0395
   41MOL    H9527375   3.714   7.719   6.030 -0.1932  0.2338  0.1639
   41MOL    H9627376   3.722   7.917   6.244 -0.5274 -0.6706 -0.0657
   41MOL    H9727377   3.741   8.114   6.108  0.6356 -0.0104 -0.5527
   41MOL    H9827378   3.672   8.065   5.789 -1.3986  0.7084  1.8501
   41MOL    H9927379   3.889   8.110   5.666 -3.3820 -1.8786 -0.3031
   41MOL   H10027380   3.906   0.177   5.865 -2.3063  1.6386 -0.3265
   41MOL   H10127381   3.689   0.131   5.983 -3.2463 -0.1220 -1.0919
   41MOL   H10227382   3.330   8.074   5.982 -0.1186  0.4739 -0.0875
   41MOL   H10327383   3.326   7.850   6.112  0.0790 -0.6047 -2.8481
   41MOL   C10427384   4.361   8.223   5.735 -0.6728  0.0457 -0.4687
   41MOL   C10527385   4.224   8.214   5.704  0.2965 -0.1071 -0.8673
   41MOL   C10627386   4.145   0.015   5.728  0.2667  0.5233 -0.5262
   41MOL   O10727387   4.020   0.012   5.679  0.3180 -0.3989 -0.1731
   41MOL   C10827388   4.197   0.135   5.785 -0.0157  0.4904  1.0778
   41MOL   C10927389   4.335   0.139   5.823  0.8163 -0.4860  0.5368
   41MOL   C11027390   4.419   0.023   5.796  1.2007 -0.1274  1.2283
   41MOL   C11127391   4.565   0.016   5.817  0.5181 -0.6223 -0.2718
   41MOL   O11227392   4.617   0.062   5.923 -0.0655 -0.8198 -0.4690
   41MOL   C11327393   4.645   8.272   5.704 -1.0673  0.1033  0.5366
   41MOL   C11427394   4.639   0.019   5.574  0.1741  0.2853 -0.2422
   41MOL   C11527395   4.721   8.282   5.475  0.3107 -0.3654 -0.8738
   41MOL   C11627396   4.819   8.185   5.505 -0.2264  0.2731 -0.1152
   41MOL   O11727397   4.913   8.135   5.413  0.6638 -0.0352 -0.1779
   41MOL   C11827398   4.911   8.163   5.280 -0.6654  0.3111  0.0887
   41MOL   C11927399   4.997   8.250   5.213  0.5477  0.6497 -1.0504
   41MOL   C12027400   5.011   8.248   5.073 -0.1419 -0.0733 -0.1653
   41MOL   C12127401   4.937   8.157   4.997 -0.1779  0.1326 -0.8267
   41MOL   C12227402   4.843   8.073   5.061 -0.8244 -0.2258  0.2530
   41MOL   C12327403   4.831   8.075   5.201 -1.1226  0.0488  0.8034
   41MOL   C12427404   4.829   8.127   5.629 -0.0996 -0.8715 -0.1863
   41MOL   C12527405   4.740   8.167   5.731 -1.0535 -0.7973  0.0157
   41MOL   H12627406   4.415   8.131   5.722  0.9448  0.7568  1.1152
   41MOL   H12727407   4.174   8.127   5.665 -0.1117 -0.3001  0.0687
   41MOL   H12827408   4.145   0.229   5.795  0.2085  0.8336 -0.7887
   41MOL   H12927409   4.369   0.233   5.866  0.4063 -0.5662  1.0440
   41MOL   H13027410   4.568   0.098   5.556 -0.0351  0.5058  1.4306
   41MOL   H13127411   4.705   0.016   5.379  0.8290 -2.7802 -2.1788
   41MOL   H13227412   5.065   0.005   5.263  0.1933  1.5520 -1.7745
   41MOL   H13327413   5.083   0.002   5.029 -0.4422  0.5130  0.2175
   41MOL   H13427414   4.790   8.000   5.001 -0.2901 -0.5088  0.1240
   41MOL   H13527415   4.778   7.996   5.254  1.7511 -3.0574 -0.7551
   41MOL   H13627416   4.910   8.057   5.637 -0.5114 -1.0862  2.2612
   41MOL   H13727417   4.742   8.123   5.830 -0.0850 -1.1176 -0.1464
   41MOL   C13827418   5.138   7.869   4.707  0.3312  0.4141 -0.4207
   41MOL   C13927419   5.036   7.944   4.764  0.1147  0.0468 -0.2043
   41MOL   C14027420   5.061   8.075   4.814 -0.2789 -0.4189  0.3416
   41MOL   O14127421   4.958   8.150   4.862 -0.0432  0.3987 -0.0793
   41MOL   C14227422   5.190   8.135   4.803 -0.3819  0.4657  0.9427
   41MOL   C14327423   5.292   8.058   4.740  0.0319 -0.0404  0.0483
   41MOL   C14427424   5.269   7.924   4.702 -0.2048  0.1567  0.8798
   41MOL   C14527425   5.376   7.837   4.642 -0.1859  0.0607 -0.1479
   41MOL   O14627426   5.386   7.815   4.520 -0.0920  0.6126 -0.1818
   41MOL   C14727427   5.483   7.794   4.739 -0.2386 -0.0043  0.4341
   41MOL   C14827428   5.449   7.779   4.873  0.2083  0.1590 -0.7855
   41MOL   C14927429   5.553   7.755   4.967 -0.9056  0.5065  0.1411
   41MOL   C15027430   5.679   7.715   4.918 -0.3008 -0.2887 -1.3106
   41MOL   O15127431   5.769   7.654   5.000  0.7380  0.4998 -0.2196
   41MOL   C15227432   5.822   7.728   5.098 -0.0893 -0.5882  0.2821
   41MOL   C15327433   5.766   7.713   5.226  0.2349 -0.8120 -0.3438
   41MOL   C15427434   5.808   7.790   5.331  0.3237  0.4771 -0.9240
   41MOL   C15527435   5.907   7.890   5.313 -0.8766 -0.4000  1.1117
   41MOL   C15627436   5.963   7.911   5.183 -0.7022  0.4071  0.3762
   41MOL   C15727437   5.920   7.825   5.074 -0.2340 -0.7037  0.3019
   41MOL   C15827438   5.702   7.710   4.780  0.4160 -0.0069 -0.1529
   41MOL   C15927439   5.608   7.761   4.690  0.1884 -0.2021 -0.0793
   41MOL   H16027440   5.127   7.775   4.655 -0.5008  2.3917 -3.9393
   41MOL   H16127441   4.937   7.902   4.772 -0.0464  0.5281  0.4491
   41MOL   H16227442   5.202   8.237   4.836  0.4096  1.1029 -1.2011
   41MOL   H16327443   5.396   8.087   4.729  0.0331 -0.3681 -0.7815
   41MOL   H16427444   5.356   7.807   4.920  2.3304 -0.1803  3.8710
   41MOL   H16527445   5.527   7.728   5.069 -0.6469 -2.1248 -0.4392
   41MOL   H16627446   5.682   7.646   5.232 -0.9492  0.4801 -1.9043
   41MOL   H16727447   5.755   7.772   5.423  0.0475  1.9993 -0.7698
   41MOL   H16827448   6.032   7.991   5.162 -0.5255  0.4879  1.2695
   41MOL   H16927449   5.952   7.835   4.971 -1.2723 -1.6558 -0.1131
   41MOL   H17027450   5.796   7.672   4.743 -1.2423 -2.6994 -1.7563
   41MOL   H17127451   5.634   7.769   4.586  0.4716  0.2712  0.0237
   41MOL   C17227452   5.734   8.233   5.558 -0.3300  0.0561 -0.5783
   41MOL   C17327453   5.826   8.160   5.483  0.3766 -0.1883 -0.1858
   41MOL   C17427454   5.847   8.022   5.499 -0.2537 -0.1374  0.4668
   41MOL   O17527455   5.946   7.966   5.419 -0.6046  0.0326  0.3267
   41MOL   C17627456   5.784   7.956   5.611  0.0193 -0.5182 -0.6892
   41MOL   C17727457   5.686   8.033   5.691 -0.6100  0.6467  0.1940
   41MOL   C17827458   5.670   8.169   5.666  1.0907  0.6218 -0.4175
   41MOL   C17927459   5.582   8.251   5.761  0.4538  0.4459  0.0754
   41MOL   O18027460   5.620   0.048   5.804  0.3214 -0.4787  0.2522
   41MOL   C18127461   5.441   8.207   5.790  0.1123 -0.4548  0.3740
   41MOL   C18227462   5.385   8.236   5.915  0.4474 -0.3491  0.4976
   41MOL   C18327463   5.247   8.202   5.935 -0.8476 -0.1763 -0.1134
   41MOL   C18427464   5.168   8.141   5.837 -0.4988  0.0387  0.4310
   41MOL   O18527465   5.031   8.127   5.853 -0.1747  0.3453  0.0099
   41MOL   C18627466   4.989   8.054   5.960  0.0969  1.0992 -0.7576
   41MOL   C18727467   5.013   7.918   5.982  0.3533  0.1942  0.1421
   41MOL   C18827468   4.978   7.852   6.103  0.8967  0.4314  0.2071
   41MOL   C18927469   4.894   7.923   6.197  0.3435 -0.4919 -0.4225
   41MOL   C19027470   4.863   8.059   6.181  0.0893  0.0238  0.9115
   41MOL   C19127471   4.916   8.118   6.060  0.5499 -0.5548 -0.0924
   41MOL   C19227472   5.228   8.104   5.715  0.0652  0.6056  0.0966
   41MOL   C19327473   5.361   8.146   5.687  0.2333 -0.1473  0.4970
   41MOL   H19427474   5.715   0.025   5.541 -0.2994 -0.1470 -1.8731
   41MOL   H19527475   5.875   8.208   5.399  0.1853 -1.3068 -0.9397
   41MOL   H19627476   5.824   7.861   5.641 -2.0218 -1.3782 -0.5623
   41MOL   H19727477   5.635   7.991   5.776 -1.2132 -1.1792 -1.0320
   41MOL   H19827478   5.442   8.284   5.993 -0.1854  1.3103 -0.0259
   41MOL   H19927479   5.211   8.224   6.035 -3.2099 -1.4158 -0.6638
   41MOL   H20027480   5.073   7.871   5.905  0.3249 -0.9688  0.8040
   41MOL   H20127481   5.006   7.748   6.113 -0.0339  0.2109  0.5413
   41MOL   H20227482   4.809   8.116   6.255  0.2270 -0.6690  1.5466
   41MOL   H20327483   4.892   8.222   6.049  3.9544  0.4986  1.5554
   41MOL   H20427484   5.177   8.065   5.627 -4.2324  2.7984  1.4998
   41MOL   H20527485   5.398   8.130   5.586 -2.4837  1.1999 -0.7669
   41MOL   C20627486   5.038   7.635   6.513  0.3679 -0.2275  0.3437
   41MOL   C20727487   4.950   7.672   6.414 -0.4480 -0.1384  0.2957
   41MOL   C20827488   4.925   7.811   6.392 -0.0154  0.6722 -0.0378
   41MOL   O20927489   4.841   7.851   6.289 -0.1791  0.2504 -0.2766
   41MOL   C21027490   4.979   7.907   6.484 -0.2350  0.2757  0.0472
   41MOL   C21127491   5.073   7.864   6.580  0.2820  0.6467 -0.4938
   41MOL   C21227492   5.106   7.727   6.596 -0.0473 -0.6832 -0.0912
   41MOL   C21327493   5.199   7.675   6.693 -0.2343  0.2821  0.6386
   41MOL   O21427494   5.177   7.567   6.745 -0.3916 -0.3829  0.1299
   41MOL   C21527495   5.328   7.751   6.714  0.3073 -0.0420 -0.2524
   41MOL   C21627496   5.415   7.714   6.819 -0.1505 -0.6558 -0.6315
   41MOL   C21727497   5.549   7.760   6.828  0.2130 -0.6133 -0.2389
   41MOL   C21827498   5.591   7.859   6.741  0.0573 -0.2704  0.3463
   41MOL   O21927499   5.720   7.901   6.754  0.4604 -0.0594 -0.6706
   41MOL   C22027500   5.811   7.882   6.655 -0.1745 -0.3131 -0.1285
   41MOL   C22127501   5.854   7.986   6.573  0.4018 -0.2986  0.7643
   41MOL   C22227502   5.949   7.967   6.467 -0.1403  0.4981 -0.3122
   41MOL   C22327503   6.002   7.838   6.439 -0.1100 -0.2841 -0.8204
   41MOL   C22427504   5.955   7.733   6.526 -0.5386 -0.6475  0.1180
   41MOL   C22527505   5.855   7.751   6.632 -0.1073  0.2139  0.0596
   41MOL   C22627506   5.505   7.912   6.641  0.2690  0.0598 -1.1478
   41MOL   C22727507   5.383   7.839   6.621  1.1787  0.0199  0.2118
   41MOL   H22827508   5.069   7.532   6.524  0.8177 -0.1320  0.0121
   41MOL   H22927509   4.914   7.593   6.351  1.7521 -3.1472  2.6539
   41MOL   H23027510   4.937   8.007   6.481 -2.4292 -0.6077 -0.0733
   41MOL   H23127511   5.117   7.929   6.655  1.7656 -1.1662  0.2341
   41MOL   H23227512   5.386   7.633   6.885  1.3845 -0.5214  0.2339
   41MOL   H23327513   5.616   7.713   6.899  2.5197  2.7748 -0.0645
   41MOL   H23427514   5.807   8.082   6.589 -0.8129 -0.8956  0.8566
   41MOL   H23527515   5.985   8.049   6.406  3.2479 -0.9267 -0.3533
   41MOL   H23627516   5.987   7.632   6.507 -0.7341 -0.6930  0.0265
   41MOL   H23727517   5.833   7.659   6.684  0.3227 -0.5427 -1.0946
   41MOL   H23827518   5.534   7.990   6.572  1.9684  1.3048  0.9215
   41MOL   H23927519   5.320   7.857   6.534  1.7735  0.1312 -0.1968
   41MOL   C24027520   5.918   7.580   6.088 -0.0408 -0.1243  0.7549
   41MOL   C24127521   5.980   7.635   6.202 -0.2868  0.3014 -0.3764
   41MOL   C24227522   6.005   7.773   6.215  0.3429 -0.1894 -0.2827
   41MOL   O24327523   6.068   7.820   6.324 -0.6068  0.5334 -0.4018
   41MOL   C24427524   5.963   7.858   6.113 -0.2613  0.0617  0.2006
   41MOL   C24527525   5.901   7.806   5.993  0.4967  0.7074  0.4837
   41MOL   C24627526   5.879   7.667   5.983  0.0181 -0.4742  0.2285
   41MOL   C24727527   5.820   7.614   5.854 -0.6863 -0.5703 -0.6872
   41MOL   O24827528   5.879   7.631   5.744  0.3060 -0.0702 -0.2036
   41MOL   C24927529   5.674   7.573   5.855 -0.3866 -0.1721 -0.0427
   41MOL   C25027530   5.602   7.535   5.737  0.5358 -0.4312  0.1635
   41MOL   C25127531   5.472   7.486   5.746  0.4379 -0.1363  0.1512
   41MOL   C25227532   5.403   7.482   5.870  0.0934  1.2076  0.2528
   41MOL   O25327533   5.276   7.440   5.870 -0.2725  0.0673  0.7094
   41MOL   C25427534   5.203   7.419   5.985 -0.2580  0.1764  0.2220
   41MOL   C25527535   5.254   7.361   6.099 -0.1425 -0.4597  0.1521
   41MOL   C25627536   5.174   7.343   6.212 -0.2625 -0.3559  0.3993
   41MOL   C25727537   5.034   7.366   6.199  0.2540 -0.2159  0.1361
   41MOL   C25827538   4.977   7.422   6.079 -0.3399 -0.0783 -0.2911
   41MOL   C25927539   5.065   7.450   5.975 -0.4862 -0.9908 -0.7016
   41MOL   C26027540   5.468   7.537   5.980  0.2013 -0.0445 -0.5326
   41MOL   C26127541   5.601   7.588   5.976  0.9179 -0.3604  0.1546
   41MOL   H26227542   5.902   7.473   6.081  0.9799 -0.4325  2.9471
   41MOL   H26327543   6.000   7.570   6.286  0.6941 -0.1058 -0.9169
   41MOL   H26427544   5.977   7.963   6.130 -1.3096  0.3293 -0.5204
   41MOL   H26527545   5.863   7.873   5.918 -2.6758  0.1436  1.5362
   41MOL   H26627546   5.658   7.541   5.645  0.2438 -3.5955 -0.2648
   41MOL   H26727547   5.416   7.452   5.660 -0.3346 -0.6069  0.8416
   41MOL   H26827548   5.357   7.331   6.110  0.4020  0.8634 -1.1720
   41MOL   H26927549   5.213   7.291   6.298  0.7625 -3.4056 -1.8407
   41MOL   H27027550   4.872   7.444   6.070 -0.6018 -1.5725 -1.0166
   41MOL   H27127551   5.027   7.494   5.883 -0.8111 -0.0989 -0.1449
   41MOL   H27227552   5.406   7.561   6.065  0.6561  3.2795 -1.0520
   41MOL   H27327553   5.648   7.629   6.064  2.3735 -1.8247  0.0828
   41MOL   C27427554   4.838   7.118   6.549  0.3872  0.7029 -0.3836
   41MOL   C27527555   4.873   7.239   6.490  0.3842 -0.2086 -0.4760
   41MOL   C27627556   4.915   7.243   6.357 -0.3512  0.5544 -0.1062
   41MOL   O27727557   4.943   7.360   6.301  0.4888 -0.2423 -0.3829
   41MOL   C27827558   4.913   7.122   6.279  0.1033 -0.2344  0.3352
   41MOL   C27927559   4.885   7.003   6.347 -0.6410 -0.1438 -0.4936
   41MOL   C28027560   4.834   6.997   6.477 -0.4293  0.2185  0.0649
   41MOL   C28127561   4.777   6.870   6.535  0.0400 -0.2351 -0.1245
   41MOL   O28227562   4.827   6.763   6.501 -0.3819  0.0060 -0.2681
   41MOL   C28327563   4.667   6.872   6.638 -0.5687 -0.0422 -0.4134
   41MOL   C28427564   4.569   6.977   6.644 -0.5692  0.3376 -0.3396
   41MOL   C28527565   4.474   6.969   6.747 -0.1946  0.1578 -0.3035
   41MOL   C28627566   4.469   6.860   6.834 -0.1055  0.2337 -0.5339
   41MOL   O28727567   4.377   6.865   6.934  0.2332 -0.1589 -0.0428
   41MOL   C28827568   4.247   6.821   6.914 -0.3358 -0.0903 -0.4875
   41MOL   C28927569   4.168   6.789   7.025  0.0661  0.1873 -0.0344
   41MOL   C29027570   4.035   6.741   7.014 -0.0493 -0.4810 -0.1572
   41MOL   C29127571   3.980   6.724   6.884  0.4336  0.1361 -0.2205
   41MOL   C29227572   4.058   6.752   6.770  0.0362  0.2519  0.0353
   41MOL   C29327573   4.189   6.804   6.786  0.3297  0.0730  0.1684
   41MOL   C29427574   4.564   6.755   6.824 -0.0911 -0.4472 -0.6619
   41MOL   C29527575   4.662   6.763   6.724 -0.4743 -0.1480 -0.1571
   41MOL   H29627576   4.797   7.112   6.649  2.1049  1.6532  0.3904
   41MOL   H29727577   4.858   7.334   6.539 -1.2893 -0.6339 -0.1061
   41MOL   H29827578   4.940   7.111   6.175  0.2030  2.7894  0.0107
   41MOL   H29927579   4.892   6.915   6.284 -1.3635 -1.7027  1.5383
   41MOL   H30027580   4.588   7.065   6.585  1.6423  0.5845  0.6812
   41MOL   H30127581   4.395   7.043   6.747 -0.3705 -0.0141 -1.3761
   41MOL   H30227582   4.204   6.811   7.124  1.4142 -2.2141  0.0445
   41MOL   H30327583   3.977   6.734   7.105  2.1539 -0.2215  1.3202
   41MOL   H30427584   4.014   6.756   6.672  2.1991  0.4000 -0.9675
   41MOL   H30527585   4.247   6.830   6.699 -0.5290  3.1816  0.4839
   41MOL   H30627586   4.548   6.673   6.893  0.8093 -0.0844 -0.0097
   41MOL   H30727587   4.722   6.673   6.713 -0.3112  0.0958 -1.3142
   41MOL   C30827588   3.850   6.315   6.867 -0.5904  0.4989  1.6813
   41MOL   C30927589   3.894   6.452   6.856 -0.0569  0.5465 -0.2936
   41MOL   C31027590   3.805   6.561   6.882 -0.3019 -0.2718 -0.3694
   41MOL   O31127591   3.845   6.694   6.865 -0.1905  0.7275  0.0844
   41MOL   C31227592   3.670   6.531   6.905 -1.0143 -0.2013  0.0984
   41MOL   C31327593   3.625   6.401   6.918 -0.1921 -0.1528  0.2737
   41MOL   C31427594   3.716   6.294   6.905 -0.6326  0.7721  0.3133
   41MOL   C31527595   3.677   6.152   6.928 -0.0233 -0.1256 -0.4498
   41MOL   O31627596   3.725   6.083   7.021 -0.0250 -0.5004 -0.2389
   41MOL   C31727597   3.579   6.096   6.834  0.2710 -0.7534  0.1525
   41MOL   C31827598   3.517   5.974   6.868 -1.0288  0.7918 -0.1293
   41MOL   C31927599   3.427   5.906   6.782  0.1021 -0.4846  0.4091
   41MOL   C32027600   3.380   5.978   6.667 -0.0707  1.0115  0.0359
   41MOL   O32127601   3.270   5.935   6.590 -0.0249 -0.6926  0.4509
   41MOL   C32227602   3.147   5.955   6.640 -0.0576 -1.0846  0.0323
   41MOL   C32327603   3.078   5.850   6.690 -0.4758 -0.4713 -0.1987
   41MOL   C32427604   2.949   5.873   6.740 -0.3807  0.0763 -0.4854
   41MOL   C32527605   2.890   6.005   6.738  0.3849 -0.0715 -0.4327
   41MOL   C32627606   2.960   6.110   6.672 -0.2606 -0.5809  0.0134
   41MOL   C32727607   3.095   6.086   6.632 -0.0976 -0.0436 -0.1155
   41MOL   C32827608   3.438   6.098   6.631 -0.0286 -0.1443  0.1138
   41MOL   C32927609   3.540   6.160   6.715 -0.1896 -0.3876 -0.3883
   41MOL   H33027610   3.917   6.232   6.848 -1.7041 -0.4168  1.7346
   41MOL   H33127611   3.994   6.479   6.827  0.4253  1.0042  1.6743
   41MOL   H33227612   3.602   6.614   6.919  2.8725  3.0557  0.6817
   41MOL   H33327613   3.518   6.391   6.928 -0.1422 -1.7992 -0.8003
   41MOL   H33427614   3.546   5.927   6.961  2.2221  1.8654 -0.5271
   41MOL   H33527615   3.396   5.807   6.811 -2.6968  0.2402  0.0046
   41MOL   H33627616   3.121   5.751   6.695 -0.8343 -0.6786 -1.1359
   41MOL   H33727617   2.905   5.780   6.774 -1.3542 -0.0033 -1.9151
   41MOL   H33827618   2.906   6.203   6.674 -0.5907 -0.8024  3.5587
   41MOL   H33927619   3.130   6.173   6.577  2.8194 -0.7085  0.6120
   41MOL   H34027620   3.393   6.145   6.545  0.0427 -0.0903  0.1056
   41MOL   H34127621   3.565   6.261   6.684  1.7569 -0.9282 -0.6227
   41MOL   C34227622   2.842   6.120   7.127  0.3488 -1.1037  0.3901
   41MOL   C34327623   2.838   6.127   6.987  0.3352  0.2293  0.3934
   41MOL   C34427624   2.750   6.044   6.918  0.5238 -0.4842 -0.9126
   41MOL   O34527625   2.765   6.034   6.784 -0.0757 -0.0008  0.1142
   41MOL   C34627626   2.648   5.973   6.985  0.1279 -0.0432 -0.0332
   41MOL   C34727627   2.635   5.984   7.125  0.8999  0.4129  0.4667
   41MOL   C34827628   2.732   6.055   7.198 -0.3937 -0.2118 -0.2587
   41MOL   C34927629   2.740   6.044   7.350 -0.2721 -0.1282  0.7500
   41MOL   O35027630   2.703   5.941   7.405 -0.4803  0.1630 -0.2083
   41MOL   C35127631   2.795   6.161   7.432 -0.4168 -0.7332 -0.0958
   41MOL   C35227632   2.865   6.152   7.551 -0.8485  0.3110 -0.1475
   41MOL   C35327633   2.900   6.263   7.622 -0.5465 -0.1489 -0.2408
   41MOL   C35427634   2.862   6.395   7.571 -0.0239  0.6387  0.8512
   41MOL   O35527635   2.905   6.510   7.636 -0.2010 -0.4699  0.0625
   41MOL   C35627636   2.984   6.602   7.569  0.5411  0.1022 -0.6108
   41MOL   C35727637   2.966   6.745   7.585 -0.0975 -0.0437 -0.4933
   41MOL   C35827638   3.044   6.841   7.511 -0.6275  0.3352  0.0908
   41MOL   C35927639   3.140   6.785   7.426 -0.2915 -0.0194 -0.4362
   41MOL   C36027640   3.158   6.648   7.409 -0.1590 -0.0182  0.7816
   41MOL   C36127641   3.082   6.557   7.482 -0.2979  0.0161 -0.3148
   41MOL   C36227642   2.786   6.407   7.453  0.2850  0.4026  0.3158
   41MOL   C36327643   2.746   6.284   7.388  0.3659 -0.2765 -0.1921
   41MOL   H36427644   2.924   6.170   7.175  0.7629 -0.7635 -0.6638
   41MOL   H36527645   2.914   6.179   6.931  2.2529 -2.2753  0.5791
   41MOL   H36627646   2.577   5.916   6.927  1.2667 -1.4580 -0.0761
   41MOL   H36727647   2.559   5.935   7.184 -1.0070  0.8604 -1.5530
   41MOL   H36827648   2.900   6.057   7.588  0.9288 -0.0019 -2.5326
   41MOL   H36927649   2.957   6.259   7.713 -0.0537 -2.4013 -0.6369
   41MOL   H37027650   2.883   6.783   7.643  0.5427  2.8208 -1.4039
   41MOL   H37127651   3.031   6.947   7.526 -1.3633  0.6765 -2.6119
   41MOL   H37227652   3.226   6.604   7.338 -0.3449  1.8951 -0.6246
   41MOL   H37327653   3.090   6.451   7.462 -1.3027 -0.2538  0.6830
   41MOL   H37427654   2.763   6.506   7.416  2.0122  0.7086  0.0239
   41MOL   H37527655   2.687   6.305   7.299 -0.9553  3.3866  1.4189
   41MOL   C37627656   3.381   7.205   7.439 -0.5921  0.1954 -0.4866
   41MOL   C37727657   3.308   7.104   7.367  0.1080  0.1324  0.3519
   41MOL   C37827658   3.294   6.965   7.410 -0.0055 -0.1316 -0.0718
   41MOL   O37927659   3.227   6.864   7.347  0.3039 -0.0212  0.0134
   41MOL   C38027660   3.366   6.931   7.524  0.3033 -0.0698 -0.7806
   41MOL   C38127661   3.438   7.029   7.594  0.0876 -0.7552 -0.1932
   41MOL   C38227662   3.454   7.163   7.556 -0.1094 -0.8668  0.4210
   41MOL   C38327663   3.545   7.257   7.622  0.1441 -0.6355 -0.1952
   41MOL   O38427664   3.552   7.371   7.583 -0.6358  0.0073 -0.5425
   41MOL   C38527665   3.613   7.216   7.743  0.0953 -0.6227 -0.4327
   41MOL   C38627666   3.735   7.148   7.728 -0.0176 -0.6177  0.1989
   41MOL   C38727667   3.805   7.102   7.839 -0.3478  0.5179  0.0688
   41MOL   C38827668   3.751   7.125   7.967 -0.0546 -0.1794  0.4526
   41MOL   O38927669   3.817   7.085   8.078 -0.2140 -0.7691  0.5062
   41MOL   C39027670   3.837   6.951   8.080  0.2622  0.4050  0.0104
   41MOL   C39127671   3.966   6.910   8.088 -0.0579 -0.6787 -0.3430
   41MOL   C39227672   3.998   6.767   8.078  0.1113 -0.1823  0.3605
   41MOL   C39327673   3.885   6.677   8.061 -0.1991  0.1966 -0.0730
   41MOL   C39427674   3.755   6.719   8.065  0.3259 -0.7242 -0.6357
   41MOL   C39527675   3.728   6.859   8.063  0.0003  0.0900 -0.1390
   41MOL   C39627676   3.630   7.197   7.981 -0.3952  0.5170  0.1664
   41MOL   C39727677   3.564   7.249   7.871  0.7173 -0.1684 -0.0341
   41MOL   H39827678   3.391   7.304   7.398  0.8127 -0.4686 -1.8005
   41MOL   H39927679   3.263   7.128   7.271 -0.8905 -0.6477  0.6128
   41MOL   H40027680   3.353   6.831   7.562 -1.3616  0.4924  0.1531
   41MOL   H40127681   3.489   7.008   7.687 -1.1846 -0.1226  0.6544
   41MOL   H40227682   3.769   7.126   7.628 -0.7990  1.2065 -0.4804
   41MOL   H40327683   3.886   7.031   7.828  0.8972  1.3733  2.9767
   41MOL   H40427684   4.046   6.981   8.098 -1.4045  0.9264 -0.8172
   41MOL   H40527685   4.100   6.731   8.079 -0.8014 -2.8945 -1.0166
   41MOL   H40627686   3.679   6.643   8.048 -1.2861  1.2696 -2.6794
   41MOL   H40727687   3.627   6.897   8.066 -1.4654 -3.4912 -1.0897
   41MOL   H40827688   3.585   7.222   8.076  1.6416  0.0325  1.2951
   41MOL   H40927689   3.476   7.311   7.883  0.0591 -1.7320  3.9685
   41MOL   C41027690   3.784   6.313   7.779  0.1437  0.3827 -0.5310
   41MOL   C41127691   3.803   6.384   7.904 -0.1844  0.5514 -0.2242
   41MOL   C41227692   3.895   6.484   7.921 -0.1325  0.0252  0.7665
   41MOL   O41327693   3.919   6.543   8.042  0.0076 -0.2035 -0.4498
   41MOL   C41427694   3.958   6.536   7.807  0.0512  0.5322  0.4710
   41MOL   C41527695   3.943   6.477   7.676 -0.5926 -0.0218 -0.5340
   41MOL   C41627696   3.852   6.362   7.665  0.5491 -0.0925 -1.0454
   41MOL   C41727697   3.819   6.307   7.533 -0.3617 -0.3321  0.9989
   41MOL   O41827698   3.698   6.288   7.508 -0.6348 -0.3428  0.0202
   41MOL   C41927699   3.933   6.274   7.433 -0.2206  0.1576 -0.1735
   41MOL   C42027700   4.069   6.261   7.459 -0.1422  1.0322 -0.4442
   41MOL   C42127701   4.166   6.220   7.361 -0.1260  0.3562 -0.0609
   41MOL   C42227702   4.123   6.214   7.228  0.2840  0.5693 -0.1654
   41MOL   O42327703   4.214   6.173   7.135 -0.4694  0.7507 -0.2352
   41MOL   C42427704   4.220   6.238   7.019 -0.3346  0.0335  0.0345
   41MOL   C42527705   4.296   6.356   7.002 -0.4278 -0.6931 -0.7355
   41MOL   C42627706   4.304   6.420   6.878  0.5949  0.5462 -0.2544
   41MOL   C42727707   4.241   6.363   6.763  0.1232  0.0465 -0.7407
   41MOL   C42827708   4.174   6.241   6.777  0.7266  0.1222 -0.3518
   41MOL   C42927709   4.162   6.179   6.904 -1.2413  0.2874  0.7006
   41MOL   C43027710   3.991   6.247   7.195  0.2645  0.4512  0.1612
   41MOL   C43127711   3.891   6.267   7.293  0.1897  0.2377  0.1455
   41MOL   H43227712   3.713   6.233   7.760  1.4028 -0.9064  0.1106
   41MOL   H43327713   3.739   6.363   7.988 -0.9138  1.3677 -0.5755
   41MOL   H43427714   4.019   6.625   7.819 -0.1852  0.9123 -1.0253
   41MOL   H43527715   3.989   6.521   7.589 -1.1653 -0.8917 -1.2898
   41MOL   H43627716   4.111   6.258   7.559  1.0437 -2.6760 -0.9623
   41MOL   H43727717   4.269   6.210   7.390 -0.1351 -2.2840 -0.7831
   41MOL   H43827718   4.340   6.403   7.088 -0.5336  1.0009 -1.5802
   41MOL   H43927719   4.365   6.509   6.866  0.2617  0.8367  0.2029
   41MOL   H44027720   4.136   6.197   6.686 -0.1103 -1.0699  0.5543
   41MOL   H44127721   4.099   6.093   6.887  0.1144 -1.1496  2.7934
   41MOL   H44227722   3.965   6.236   7.091 -1.0629 -0.8307  0.6184
   41MOL   H44327723   3.788   6.276   7.264  0.1402 -0.9200 -0.0576
   41MOL   C44427724   4.524   6.565   6.450  0.2388  0.0676 -0.6842
   41MOL   C44527725   4.410   6.557   6.534  0.3703 -0.1286  0.1994
   41MOL   C44627726   4.377   6.432   6.584  0.7344  0.7371 -0.4615
   41MOL   O44727727   4.255   6.422   6.642  0.6847 -1.0234  0.1365
   41MOL   C44827728   4.466   6.322   6.581 -0.2553  0.5354  0.2987
   41MOL   C44927729   4.589   6.339   6.506 -0.2952  0.3422 -0.7517
   41MOL   C45027730   4.620   6.461   6.439  0.2891 -0.8032 -0.3757
   41MOL   C45127731   4.745   6.485   6.359  0.3986 -0.2315 -0.4429
   41MOL   O45227732   4.736   6.581   6.279 -0.7760 -0.1844  0.0829
   41MOL   C45327733   4.863   6.394   6.359 -0.0231  0.7422 -0.3991
   41MOL   C45427734   4.900   6.323   6.481 -0.0846  0.6951  0.2233
   41MOL   C45527735   5.016   6.240   6.484 -0.3453 -0.1055 -0.1722
   41MOL   C45627736   5.092   6.229   6.368 -0.0853 -0.6107  0.2258
   41MOL   O45727737   5.205   6.149   6.367  0.0159  0.6976  0.1741
   41MOL   C45827738   5.244   6.074   6.257  0.0287  0.1332  0.0812
   41MOL   C45927739   5.376   6.078   6.212 -0.1267 -0.3693 -0.4385
   41MOL   C46027740   5.425   5.996   6.110 -0.3732 -0.1878 -0.3979
   41MOL   C46127741   5.336   5.904   6.053  0.0587  0.3892  0.1245
   41MOL   C46227742   5.201   5.903   6.090 -0.0990  0.2075 -1.0168
   41MOL   C46327743   5.157   5.996   6.180 -0.7450  0.1278  0.4131
   41MOL   C46427744   5.065   6.303   6.252  0.0053  0.3031 -0.3532
   41MOL   C46527745   4.947   6.380   6.246  0.3274  0.0454 -0.4615
   41MOL   H46627746   4.552   6.661   6.409  0.3670  0.0563 -0.6236
   41MOL   H46727747   4.342   6.639   6.555  1.1845  0.6552 -0.1812
   41MOL   H46827748   4.450   6.230   6.634  0.3541 -0.0066 -0.4518
   41MOL   H46927749   4.652   6.252   6.505  1.8740  1.8784 -1.7055
   41MOL   H47027750   4.837   6.327   6.569  0.3177  4.2781  0.4313
   41MOL   H47127751   5.049   6.178   6.566  1.6886  0.7198 -0.3576
   41MOL   H47227752   5.443   6.138   6.271  0.9316 -1.4075 -0.5634
   41MOL   H47327753   5.530   5.997   6.082 -0.4930 -3.2199 -1.1179
   41MOL   H47427754   5.126   5.844   6.038  0.5713  0.0240 -1.7979
   41MOL   H47527755   5.053   5.991   6.209 -0.3304 -0.5889  1.8350
   41MOL   H47627756   5.126   6.301   6.162 -0.4392  1.7064 -0.6966
   41MOL   H47727757   4.925   6.442   6.161  1.8044 -0.4033 -1.1939
   41MOL   C47827758   5.356   5.456   6.017 -0.5413  0.9601 -0.0225
   41MOL   C47927759   5.326   5.585   5.969 -0.4758  0.4538  0.4464
   41MOL   C48027760   5.411   5.691   5.997 -0.2843  0.2160 -0.0733
   41MOL   O48127761   5.378   5.816   5.957 -0.4675  0.3292  0.3797
   41MOL   C48227762   5.542   5.671   6.046  0.4650  0.5083  0.2968
   41MOL   C48327763   5.581   5.546   6.095 -0.7165  0.4092 -0.0406
   41MOL   C48427764   5.486   5.436   6.081  0.1000 -0.0572  0.5956
   41MOL   C48527765   5.516   5.294   6.127  0.2784  0.1815  0.3035
   41MOL   O48627766   5.495   5.196   6.054 -0.1563  0.0812  0.3165
   41MOL   C48727767   5.577   5.270   6.259  0.1120 -0.4634 -0.2031
   41MOL   C48827768   5.621   5.144   6.296  1.2874 -0.4002 -0.3101
   41MOL   C48927769   5.692   5.118   6.416 -0.0416 -0.4110 -0.1901
   41MOL   C49027770   5.713   5.227   6.500  0.0217 -0.7687  0.0912
   41MOL   O49127771   5.776   5.208   6.620 -0.4669  0.4366 -0.4867
   41MOL   C49227772   5.911   5.223   6.619 -0.2717  0.7136  0.6827
   41MOL   C49327773   5.968   5.357   6.623 -0.4378 -0.0380  0.6805
   41MOL   C49427774   6.106   5.373   6.625 -0.3654  0.4328  0.7012
   41MOL   C49527775   6.191   5.261   6.606  0.0598 -0.3349 -0.1292
   41MOL   C49627776   6.133   5.128   6.605 -0.1991  0.5458 -0.2465
   41MOL   C49727777   5.990   5.111   6.620  0.5066  0.1115 -0.0162
   41MOL   C49827778   5.654   5.352   6.475  0.7169  0.0465 -0.1080
   41MOL   C49927779   5.586   5.376   6.355  0.5311  0.1738 -0.6309
   41MOL   H50027780   5.292   5.371   6.002 -0.6350  1.0695 -0.2396
   41MOL   H50127781   5.241   5.610   5.909 -0.4686  2.7283  1.3608
   41MOL   H50227782   5.610   5.755   6.046 -0.2386  1.0905 -0.7259
   41MOL   H50327783   5.683   5.540   6.128 -0.3800  2.1572 -0.7441
   41MOL   H50427784   5.610   5.061   6.227  1.6198 -2.3641  1.9319
   41MOL   H50527785   5.711   5.017   6.450 -1.4528  0.0423  2.0674
   41MOL   H50627786   5.909   5.448   6.614 -1.4002 -0.6428  0.7746
   41MOL   H50727787   6.147   5.473   6.627 -0.3757  0.5746 -2.8901
   41MOL   H50827788   6.179   5.033   6.583 -1.4376 -0.5785  1.8509
   41MOL   H50927789   5.945   5.013   6.627  1.6431 -0.6020 -2.0480
   41MOL   H51027790   5.673   5.440   6.535 -0.6988 -0.0821  0.5299
   41MOL   H51127791   5.561   5.480   6.338 -0.6468 -0.4584 -3.0316
   41MOL   C51227792   6.435   5.496   6.291 -0.3306  0.2044  0.1194
   41MOL   C51327793   6.408   5.451   6.419  0.9843  0.0788 -0.1102
   41MOL   C51427794   6.343   5.330   6.441 -0.4119  0.9526  0.2479
   41MOL   O51527795   6.324   5.280   6.567  0.1146  0.3269  0.2305
   41MOL   C51627796   6.310   5.254   6.328  0.3560  0.2887 -0.1838
   41MOL   C51727797   6.353   5.295   6.197  0.0789 -0.7803 -0.0809
   41MOL   C51827798   6.412   5.417   6.177 -0.4137 -0.1880  0.0747
   41MOL   C51927799   6.437   5.482   6.042  0.3000 -0.5984 -0.7620
   41MOL   O52027800   6.444   5.608   6.022 -0.1483 -0.2991 -0.0167
   41MOL   C52127801   6.447   5.390   5.922 -0.2485 -0.6599  0.4558
   41MOL   C52227802   6.418   5.438   5.793  0.1149  0.1092 -0.0267
   41MOL   C52327803   6.420   5.357   5.674 -0.0604 -0.0546 -0.5973
   41MOL   C52427804   6.467   5.227   5.684 -0.8852  0.2300 -0.0881
   41MOL   O52527805   6.465   5.149   5.572 -0.1380  0.2434  0.2463
   41MOL   C52627806   6.515   5.194   5.451  0.3919  0.2395  0.6741
   41MOL   C52727807   6.640   5.251   5.442  0.3247  0.3457  0.1535
   41MOL   C52827808   6.686   5.297   5.315  0.8314  0.1720 -0.2947
   41MOL   C52927809   6.596   5.283   5.205 -0.4313 -0.7873 -0.4102
   41MOL   C53027810   6.472   5.221   5.215 -0.2015 -0.3341 -0.1472
   41MOL   C53127811   6.432   5.169   5.339 -0.1407 -0.2083 -0.7904
   41MOL   C53227812   6.493   5.179   5.813 -0.4241  0.5672 -0.5769
   41MOL   C53327813   6.491   5.260   5.925 -0.7756  0.1267  0.2446
   41MOL   H53427814   6.490   5.588   6.278  0.6719 -0.3937  0.0757
   41MOL   H53527815   6.420   5.508   6.510  0.6175 -0.2412  0.1410
   41MOL   H53627816   6.256   5.161   6.340  0.2872  0.2175 -1.0489
   41MOL   H53727817   6.327   5.235   6.111  0.6413 -0.4549 -0.4804
   41MOL   H53827818   6.387   5.540   5.776  1.4260  0.6610  0.7977
   41MOL   H53927819   6.391   5.401   5.580  0.3283  4.0854  1.1046
   41MOL   H54027820   6.701   5.261   5.530 -0.2598  0.2285  0.5701
   41MOL   H54127821   6.783   5.344   5.314  0.1547  1.6320 -0.8176
   41MOL   H54227822   6.405   5.220   5.130  0.1136 -0.9713 -0.3932
   41MOL   H54327823   6.338   5.118   5.355 -0.0399 -0.5236 -1.1938
   41MOL   H54427824   6.530   5.078   5.819 -1.3157  0.1839 -1.3166
   41MOL   H54527825   6.532   5.223   6.018 -0.3107 -0.1263 -0.0588
   41MOL   C54627826   6.467   5.602   4.931  0.0738 -0.4762  0.0050
   41MOL   C54727827   6.500   5.473   4.955 -0.1781  0.5971  0.7539
   41MOL   C54827828   6.611   5.446   5.035  0.3531 -0.4083  0.4675
   41MOL   O54927829   6.638   5.320   5.080  0.0656  0.0093  0.1482
   41MOL   C55027830   6.684   5.558   5.091 -0.4944  0.7928 -0.0297
   41MOL   C55127831   6.647   5.686   5.064 -0.2164  0.4007 -1.1332
   41MOL   C55227832   6.532   5.718   4.983  0.0972 -0.1442  0.3203
   41MOL   C55327833   6.470   5.851   4.985 -0.3835  0.3643 -0.0154
   41MOL   O55427834   6.350   5.862   4.973 -0.1948 -0.0500  0.8456
   41MOL   C55527835   6.549   5.981   5.003 -0.6967 -0.1472 -0.2533
   41MOL   C55627836   6.692   5.993   5.001  0.1571 -0.5539  0.6863
   41MOL   C55727837   6.762   6.111   5.033 -0.4799  0.2065 -0.4714
   41MOL   C55827838   6.689   6.227   5.065  0.5957  0.7892  0.4405
   41MOL   O55927839   6.754   6.345   5.099  0.2456  0.5081 -0.3427
   41MOL   C56027840   6.776   6.441   5.005 -0.5360  0.1142  1.0613
   41MOL   C56127841   6.904   6.452   4.948 -0.2624  0.4368  0.3455
   41MOL   C56227842   6.919   6.548   4.848 -0.2534  0.2255 -0.0244
   41MOL   C56327843   6.814   6.633   4.807 -0.0528  0.2723 -0.1752
   41MOL   C56427844   6.689   6.621   4.869 -0.1403  0.2836  0.5008
   41MOL   C56527845   6.669   6.517   4.960  1.2849 -0.6794 -0.0686
   41MOL   C56627846   6.546   6.217   5.063 -0.5341 -0.3637 -0.0706
   41MOL   C56727847   6.477   6.099   5.025 -0.4425  0.3136 -0.4047
   41MOL   H56827848   6.383   5.628   4.867  0.0325 -0.1193  0.2002
   41MOL   H56927849   6.436   5.393   4.922 -2.6781  2.3037  1.3356
   41MOL   H57027850   6.767   5.540   5.158 -0.0042  0.3399 -0.7507
   41MOL   H57127851   6.694   5.762   5.124 -2.9871  1.4201 -0.1471
   41MOL   H57227852   6.755   5.908   4.978  2.5008  1.0028  1.2264
   41MOL   H57327853   6.870   6.117   5.037 -0.5219  1.7100 -1.2869
   41MOL   H57427854   6.985   6.387   4.977  1.6038  1.8202 -1.5650
   41MOL   H57527855   7.018   6.549   4.803 -0.9014  0.8462 -1.4552
   41MOL   H57627856   6.602   6.686   4.862  0.2913  0.9338  1.0911
   41MOL   H57727857   6.572   6.524   5.008  0.7566 -1.0539 -1.0647
   41MOL   H57827858   6.489   6.300   5.104  0.7835  0.0232  0.9882
   41MOL   H57927859   6.370   6.097   5.013 -0.8306 -0.3767  2.8348
   41MOL   C58027860   7.141   6.739   4.511  0.3651  0.4372  1.1368
   41MOL   C58127861   7.015   6.697   4.557  0.4329  0.5549 -0.4124
   41MOL   C58227862   6.945   6.770   4.653  0.7581 -0.2333 -0.2780
   41MOL   O58327863   6.826   6.722   4.707  1.0695 -0.8872  0.1080
   41MOL   C58427864   7.008   6.883   4.715  0.5163 -0.3732  0.2371
   41MOL   C58527865   7.137   6.930   4.668 -0.0457  0.5968  0.1700
   41MOL   C58627866   7.195   6.860   4.555  0.0772 -0.0414  0.4641
   41MOL   C58727867   7.324   6.904   4.494  0.0231  0.2153 -0.7616
   41MOL   O58827868   7.414   6.825   4.485  0.3127  0.1910  0.2835
   41MOL   C58927869   7.329   7.047   4.442  0.0363 -0.8090  0.0437
   41MOL   C59027870   7.211   7.128   4.421 -0.1276 -0.1802  0.2466
   41MOL   C59127871   7.223   7.257   4.372  0.1910  0.4110 -0.3550
   41MOL   C59227872   7.347   7.311   4.334  0.4913  0.7983  0.2589
   41MOL   O59327873   7.354   7.434   4.271 -0.3886  0.4129  0.1187
   41MOL   C59427874   7.426   7.441   4.150  0.1683  0.4985  0.2558
   41MOL   C59527875   7.380   7.373   4.034  0.0565  0.0428 -0.7776
   41MOL   C59627876   7.451   7.384   3.914 -0.2909 -0.4623 -0.1387
   41MOL   C59727877   7.562   7.479   3.903  0.0620  0.6828  0.5262
   41MOL   C59827878   7.590   7.559   4.015 -0.4221 -0.0585  0.1152
   41MOL   C59927879   7.537   7.529   4.140  0.1481  0.0187 -0.8028
   41MOL   C60027880   7.468   7.236   4.361  0.3603 -0.2646  0.8337
   41MOL   C60127881   7.456   7.102   4.411 -0.4828 -0.0053  0.8237
   41MOL   H60227882   7.187   6.693   4.425 -2.6231 -2.2221  0.8495
   41MOL   H60327883   6.969   6.607   4.519  0.9314  1.0561 -2.2800
   41MOL   H60427884   6.955   6.933   4.795 -1.9555 -2.4479 -0.0057
   41MOL   H60527885   7.186   7.014   4.715  1.5615  0.5540 -1.3850
   41MOL   H60627886   7.113   7.091   4.445 -0.8643  0.6891 -1.3685
   41MOL   H60727887   7.133   7.316   4.360 -0.9106 -0.3640  3.3359
   41MOL   H60827888   7.293   7.308   4.035  1.4151 -1.8074 -0.5243
   41MOL   H60927889   7.421   7.331   3.824 -0.1582  0.8933 -0.9911
   41MOL   H61027890   7.664   7.637   4.014 -1.4339  0.9078 -1.0740
   41MOL   H61127891   7.583   7.570   4.229  2.5415  0.5395 -2.2182
   41MOL   H61227892   7.561   7.278   4.326  0.3034  1.3858  2.5584
   41MOL   H61327893   7.547   7.045   4.420 -1.2877 -1.5061 -0.3665
   41MOL   C61427894   7.397   7.670   3.574  0.1546 -0.0402  0.1991
   41MOL   C61527895   7.453   7.608   3.686  0.0343  0.3309  0.5926
   41MOL   C61627896   7.585   7.563   3.681  0.0370 -0.3475  0.2659
   41MOL   O61727897   7.641   7.500   3.789  0.2862  0.2061 -0.0846
   41MOL   C61827898   7.660   7.586   3.566  0.2567  0.6628  0.2436
   41MOL   C61927899   7.604   7.646   3.451 -0.7414  0.3219 -0.1391
   41MOL   C62027900   7.468   7.687   3.456  0.6281  0.2339 -0.1892
   41MOL   C62127901   7.394   7.758   3.348  0.2930 -0.4430  0.2228
   41MOL   O62227902   7.292   7.825   3.372  0.4402 -0.0839  0.0753
   41MOL   C62327903   7.450   7.761   3.208  0.6794 -0.2101 -0.3837
   41MOL   C62427904   7.515   7.649   3.161 -0.0513 -0.5267 -0.1729
   41MOL   C62527905   7.576   7.637   3.032  0.6131 -0.5665 -0.9160
   41MOL   C62627906   7.569   7.750   2.951  0.2362  0.4519  0.4058
   41MOL   O62727907   7.617   7.744   2.829  0.1584 -0.1254 -0.7928
   41MOL   C62827908   7.747   7.801   2.825  1.2340  0.4772 -0.1523
   41MOL   C62927909   7.855   7.709   2.839  0.0206 -0.8721 -0.3635
   41MOL   C63027910   7.989   7.756   2.833 -0.3386  0.7799 -0.1331
   41MOL   C63127911   8.018   7.892   2.809 -0.4295  0.2783 -0.2302
   41MOL   C63227912   7.909   7.976   2.792  0.2606 -0.0380 -0.5508
   41MOL   C63327913   7.775   7.933   2.799 -0.0720  0.1959 -0.1631
   41MOL   C63427914   7.510   7.867   2.997  0.2733  1.4116  0.3814
   41MOL   C63527915   7.444   7.873   3.121 -0.2810 -0.0194  0.2076
   41MOL   H63627916   7.293   7.695   3.587 -0.7223 -2.8961 -1.0451
   41MOL   H63727917   7.386   7.573   3.764  0.4509 -1.7418  0.0564
   41MOL   H63827918   7.759   7.544   3.563 -0.2808 -0.6120  0.3011
   41MOL   H63927919   7.665   7.658   3.364  0.8459 -1.2057  0.7296
   41MOL   H64027920   7.540   7.566   3.226  1.3230 -1.0247 -1.3014
   41MOL   H64127921   7.636   7.550   3.008  2.5509 -0.5441  3.2855
   41MOL   H64227922   7.828   7.608   2.867  1.2795 -0.5664  2.1264
   41MOL   H64327923   8.066   7.682   2.848 -0.9229 -0.2541 -2.1663
   41MOL   H64427924   7.927   8.081   2.775 -1.0663  0.3330  0.3127
   41MOL   H64527925   7.697   8.008   2.796 -1.2042 -0.9148  0.8448
   41MOL   H64627926   7.513   7.959   2.941 -0.9164  0.6798 -0.9114
   41MOL   H64727927   7.398   7.965   3.155 -0.1978  0.2787 -0.4755
   41MOL   C64827928   8.219   8.005   2.455 -0.2107 -0.0727  0.8672
   41MOL   C64927929   8.167   8.015   2.583  0.3757 -0.1345  0.3254
   41MOL   C65027930   8.209   7.926   2.682 -0.0940  0.3545 -0.1200
   41MOL   O65127931   8.147   7.940   2.800 -0.0981 -0.0871  0.0851
   41MOL   C65227932   8.310   7.830   2.653 -0.3818  0.1313 -0.1897
   41MOL   C65327933   0.059   7.821   2.532 -0.2893  0.1955  1.0099
   41MOL   C65427934   0.010   7.908   2.430 -0.1819  0.0980  0.1084
   41MOL   C65527935   0.059   7.888   2.296 -0.2191 -0.2613  0.5621
   41MOL   O65627936   0.143   7.968   2.247  0.3767 -0.4860 -0.0074
   41MOL   C65727937   8.305   7.783   2.215 -0.2942 -0.3052  0.7747
   41MOL   C65827938   8.195   7.711   2.263  0.7421 -0.3253  0.6659
   41MOL   C65927939   8.120   7.627   2.181  0.8743  0.2331 -0.8688
   41MOL   C66027940   8.156   7.604   2.049 -0.0140 -0.3412  0.5587
   41MOL   O66127941   8.078   7.522   1.975 -0.2006 -0.3697  0.2891
   41MOL   C66227942   8.137   7.444   1.880  0.0308  0.0530  0.3954
   41MOL   C66327943   8.244   7.360   1.899 -1.3873 -0.4921  0.5775
   41MOL   C66427944   8.302   7.291   1.793  0.3387  0.0797  0.0507
   41MOL   C66527945   8.239   7.289   1.670 -0.4786  0.4099 -0.4738
   41MOL   C66627946   8.132   7.381   1.645 -0.5413 -0.6157  0.1797
   41MOL   C66727947   8.080   7.454   1.752  0.0042 -0.1975  0.2862
   41MOL   C66827948   8.265   7.668   2.000 -0.0245 -0.2164  0.4400
   41MOL   C66927949   0.027   7.756   2.084  0.3143 -0.7276  0.5374
   41MOL   H67027950   8.180   8.069   2.377  5.4008  1.9202 -0.5789
   41MOL   H67127951   8.083   8.078   2.607  1.2435  1.0599  0.2449
   41MOL   H67227952   0.050   7.774   2.728  0.4125  2.1221  0.7932
   41MOL   H67327953   0.132   7.743   2.515  0.3881  1.2671 -1.2584
   41MOL   H67427954   8.170   7.732   2.366  1.5592  0.1520  0.7757
   41MOL   H67527955   8.037   7.573   2.223  1.6165 -0.8968 -0.8315
   41MOL   H67627956   8.278   7.340   2.000  0.1126  0.1565  0.2154
   41MOL   H67727957   0.074   7.224   1.806  1.3883  1.3328 -0.2287
   41MOL   H67827958   8.091   7.392   1.546  0.0584  2.7680  0.2380
   41MOL   H67927959   7.995   7.517   1.733 -0.1487 -0.5214 -0.1302
   41MOL   H68027960   8.289   7.660   1.895 -0.4322 -0.5155  0.3688
   41MOL   H68127961   0.112   7.811   2.045 -1.0171  0.6000 -0.5688
   41MOL   H68227962   8.283   7.243   1.582  1.3050  1.4333 -0.1497
   42MOL     C127963   8.015   8.173   5.968 -0.1853 -0.0249 -0.2503
   42MOL     C227964   7.958   8.057   6.033 -0.7487  0.0835 -0.0772
   42MOL     C327965   8.000   7.927   5.995  0.6434  0.6912  0.1596
   42MOL     O427966   7.948   7.815   6.055 -0.0201 -0.3697  0.1976
   42MOL     C527967   8.104   7.917   5.903  0.2371 -0.0823 -0.3154
   42MOL     C627968   8.164   8.030   5.847 -0.0216 -0.6785  0.3934
   42MOL     C727969   8.125   8.161   5.879  0.6884 -0.0527  0.1990
   42MOL     C827970   8.167   8.287   5.802  0.3913  0.5720 -0.0803
   42MOL     O927971   8.094   0.072   5.814  0.0311 -0.1094 -0.0210
   42MOL    C1027972   8.288   8.289   5.728  0.3561 -0.2001 -0.4508
   42MOL    C1127973   0.098   8.254   5.778  0.2256  0.6816 -0.2393
   42MOL    C1227974   0.216   8.255   5.698 -0.1176 -0.4463  0.1664
   42MOL    C1327975   0.205   8.296   5.562 -0.0494  0.4010 -0.9026
   42MOL    O1427976   0.323   8.299   5.482  0.1051  0.2677  0.4773
   42MOL    C1527977   0.428   0.057   5.523 -0.6558 -0.7173 -1.0515
   42MOL    C1627978   0.522   8.295   5.595 -0.3050  0.5862  0.4787
   42MOL    C1727979   0.634   0.048   5.646 -0.5359  0.0877 -0.2143
   42MOL    C1827980   0.650   0.184   5.633 -0.4694 -0.4223  0.2607
   42MOL    C1927981   0.551   0.256   5.561 -0.1831  0.5398  0.0039
   42MOL    C2027982   0.440   0.196   5.500  0.7026 -0.1333  0.0491
   42MOL    C2127983   0.084   0.019   5.507  0.0697 -0.1493 -1.1062
   42MOL    C2227984   8.284   0.010   5.592  0.1557 -0.5822 -0.8063
   42MOL    H2327985   7.973   8.270   5.993  0.7481  0.3449 -0.1021
   42MOL    H2427986   7.881   8.077   6.107 -0.4622  0.2216  0.1836
   42MOL    H2527987   8.137   7.820   5.868  4.9650  1.7670 -1.3736
   42MOL    H2627988   8.244   8.022   5.775 -0.1702 -2.1430  0.3773
   42MOL    H2727989   0.107   8.231   5.884 -1.4258 -0.7008 -0.3781
   42MOL    H2827990   0.310   8.229   5.743  0.8522 -0.6769 -1.9424
   42MOL    H2927991   0.499   8.191   5.616 -1.6572  0.9965  1.1031
   42MOL    H3027992   0.706   8.300   5.700 -0.4275 -1.1735 -1.7513
   42MOL    H3127993   0.575   0.360   5.547 -0.8002  0.6159 -0.5615
   42MOL    H3227994   0.366   0.242   5.437  2.1664 -0.3037 -1.8424
   42MOL    H3327995   0.077   0.049   5.404  3.1301 -4.5280 -2.7573
   42MOL    H3427996   8.187   0.022   5.546 -1.4918 -2.1581  2.0536
   42MOL    H3527997   7.943   7.729   6.015 -1.0558 -0.4893  0.5563
   42MOL    C3627998   1.026   0.270   5.420 -0.5334  0.8191 -0.2124
   42MOL    C3727999   0.900   0.289   5.490 -0.2964 -0.3582  0.5213
   42MOL    C3828000   0.879   0.221   5.613 -0.1547  0.3709 -0.0766
   42MOL    O3928001   0.764   0.244   5.683  0.2022  0.0258 -0.4802
   42MOL    C4028002   0.982   0.138   5.659  0.0763 -0.1092  0.5110
   42MOL    C4128003   1.103   0.116   5.591  0.2324  0.3008  0.4992
   42MOL    C4228004   1.124   0.175   5.464 -0.1299 -0.1962  0.0561
   42MOL    C4328005   1.244   0.143   5.377  0.3096  0.1575  0.5239
   42MOL    O4428006   1.349   0.096   5.420  0.3641  0.2292 -0.3441
   42MOL    C4528007   1.239   0.182   5.231 -0.1533 -0.0179  0.6006
   42MOL    C4628008   1.346   0.247   5.167  0.4123 -0.1057  0.6619
   42MOL    C4728009   1.336   0.284   5.028  0.4869 -0.1658 -0.9413
   42MOL    C4828010   1.221   0.260   4.953  0.5012 -0.0924 -1.0149
   42MOL    O4928011   1.213   0.306   4.827  0.2223 -0.2304 -0.0581
   42MOL    C5028012   1.124   0.409   4.797  0.4950 -0.0067  1.2130
   42MOL    C5128013   1.012   0.382   4.719 -0.3714 -0.0369  0.3154
   42MOL    C5228014   0.929   0.488   4.686  0.8817  0.1088  0.4474
   42MOL    C5328015   0.960   0.618   4.730  0.1472  0.6353  0.4432
   42MOL    C5428016   1.081   0.646   4.788 -0.0579  0.4879 -0.1257
   42MOL    C5528017   1.166   0.539   4.827 -0.3967 -0.0996 -0.4213
   42MOL    C5628018   1.115   0.187   5.013  0.8497 -0.3050  0.2024
   42MOL    C5728019   1.126   0.151   5.152  0.0773  0.8721 -0.0180
   42MOL    H5828020   1.040   0.314   5.323 -0.4772 -1.5225 -1.2954
   42MOL    H5928021   0.830   0.357   5.445 -0.4631  0.5812  2.1419
   42MOL    H6028022   0.962   0.085   5.751 -1.1825  0.2162  0.4304
   42MOL    H6128023   1.171   0.041   5.628 -0.5927 -0.0325  1.3488
   42MOL    H6228024   1.425   0.292   5.225 -0.0831  0.9662  0.5046
   42MOL    H6328025   1.425   0.318   4.979  0.3421 -0.6983 -1.5882
   42MOL    H6428026   0.988   0.278   4.702 -0.6124  0.3103 -1.6661
   42MOL    H6528027   0.841   0.463   4.629  0.1122 -0.9344  2.0506
   42MOL    H6628028   1.107   0.748   4.810  1.7934  0.0650 -0.1944
   42MOL    H6728029   1.256   0.556   4.885 -0.9457  0.7822  0.1733
   42MOL    H6828030   1.029   0.170   4.950  2.3442 -1.0544 -1.6953
   42MOL    H6928031   1.040   0.104   5.198  0.6296 -0.8783 -0.7453
   42MOL    C7028032   0.676   0.797   5.006 -0.8127  0.3013 -0.2456
   42MOL    C7128033   0.772   0.737   4.922 -0.5350 -0.4814  0.7566
   42MOL    C7228034   0.789   0.781   4.784 -0.5984 -0.3526 -0.0631
   42MOL    O7328035   0.874   0.722   4.691  0.0956 -0.1054  0.1763
   42MOL    C7428036   0.703   0.876   4.735 -0.3999  0.4689  0.5436
   42MOL    C7528037   0.609   0.938   4.818  0.1833 -0.3941 -0.3613
   42MOL    C7628038   0.595   0.902   4.952  0.1001 -0.5200  0.0483
   42MOL    C7728039   0.499   0.970   5.043 -0.5824  0.4564  0.3125
   42MOL    O7828040   0.477   0.932   5.158 -0.3067 -0.3962 -0.2723
   42MOL    C7928041   0.449   1.104   5.000  0.0512 -0.2779  0.1705
   42MOL    C8028042   0.351   1.119   4.896  0.1091  0.0525  1.0442
   42MOL    C8128043   0.326   1.253   4.852 -0.0212 -0.1478 -0.5293
   42MOL    C8228044   0.383   1.361   4.923 -0.0231 -0.3558  0.4007
   42MOL    O8328045   0.352   1.490   4.885 -0.1449 -0.3259  0.3485
   42MOL    C8428046   0.425   1.553   4.793 -0.7646  0.9279  0.7140
   42MOL    C8528047   0.426   1.496   4.662 -0.2942 -0.7780 -0.7559
   42MOL    C8628048   0.481   1.560   4.555 -1.0385 -0.2859 -0.0993
   42MOL    C8728049   0.552   1.678   4.579  0.5888 -0.4499 -0.2824
   42MOL    C8828050   0.563   1.728   4.709 -0.0670  0.6657 -0.8702
   42MOL    C8928051   0.498   1.668   4.818 -0.5814 -0.1151 -0.2678
   42MOL    C9028052   0.471   1.344   5.034  0.5229 -0.0772 -0.1584
   42MOL    C9128053   0.506   1.215   5.070 -0.2419  0.0539 -0.4232
   42MOL    H9228054   0.656   0.744   5.098  1.3770  2.2856  1.4565
   42MOL    H9328055   0.841   0.665   4.964 -0.8331 -1.9388 -1.1898
   42MOL    H9428056   0.712   0.916   4.635  2.3291 -0.7203  0.2570
   42MOL    H9528057   0.556   1.023   4.778  3.0801  1.1535 -1.0251
   42MOL    H9628058   0.300   1.040   4.843 -2.2658  1.4443  1.1891
   42MOL    H9728059   0.271   1.272   4.761  2.4801 -2.3324 -2.5654
   42MOL    H9828060   0.385   1.398   4.641  2.9136 -2.2957 -0.2414
   42MOL    H9928061   0.468   1.517   4.456 -0.5637 -0.3002 -0.1584
   42MOL   H10028062   0.591   1.830   4.730 -0.5457  0.3977  1.1246
   42MOL   H10128063   0.494   1.721   4.912  0.3044 -0.0503 -0.2604
   42MOL   H10228064   0.518   1.435   5.070  0.3320  0.3889 -1.0601
   42MOL   H10328065   0.579   1.196   5.147  0.1264 -1.3759 -1.1185
   42MOL   C10428066   0.324   1.934   4.328 -0.0068  0.3144 -0.0309
   42MOL   C10528067   0.409   1.830   4.364 -0.0919 -0.5847  0.0083
   42MOL   C10628068   0.528   1.858   4.429 -0.1452 -0.2351 -0.0621
   42MOL   O10728069   0.608   1.759   4.480  0.2950 -0.0256  0.3817
   42MOL   C10828070   0.570   1.992   4.443 -0.7702  0.3101  0.8929
   42MOL   C10928071   0.489   2.096   4.384  0.4069 -0.3832  0.1233
   42MOL   C11028072   0.363   2.071   4.327  0.3370 -0.0220 -0.6829
   42MOL   C11128073   0.272   2.178   4.275 -0.2351  0.2827  0.3241
   42MOL   O11228074   0.306   2.296   4.268  0.3113 -0.1818 -0.6803
   42MOL   C11328075   0.134   2.137   4.240  0.2227  0.0655 -0.3592
   42MOL   C11428076   0.113   2.059   4.125 -0.5555  0.1916  0.5921
   42MOL   C11528077   8.298   2.018   4.095  0.5871 -0.4394  0.2553
   42MOL   C11628078   8.186   2.058   4.176  0.3359 -0.2070  0.6054
   42MOL   O11728079   8.064   2.019   4.134  0.2717  0.3075  0.9332
   42MOL   C11828080   7.967   1.990   4.228  0.7200  0.3816  0.1002
   42MOL   C11928081   7.840   2.050   4.224 -0.3537 -0.2938 -0.2255
   42MOL   C12028082   7.747   2.006   4.318 -0.1973  0.1539  0.0661
   42MOL   C12128083   7.766   1.902   4.411 -0.5558  0.4446 -0.1690
   42MOL   C12228084   7.890   1.843   4.414  0.1513 -0.1838  0.8850
   42MOL   C12328085   7.990   1.890   4.325 -0.1944  0.0302 -0.6757
   42MOL   C12428086   8.206   2.146   4.286 -0.3568 -0.2022  0.6570
   42MOL   C12528087   0.027   2.183   4.316  0.2966  0.3569  0.6064
   42MOL   H12628088   0.226   1.908   4.291  0.1462  2.3186 -1.9581
   42MOL   H12728089   0.384   1.725   4.352  3.4376 -1.8174  2.4583
   42MOL   H12828090   0.653   2.023   4.505 -0.9509  1.1582  0.7217
   42MOL   H12928091   0.518   2.200   4.383 -0.0727 -0.2293 -2.6823
   42MOL   H13028092   0.196   2.015   4.071 -0.6937 -1.6748  1.8435
   42MOL   H13128093   8.287   1.953   4.010  1.4078 -2.0359  1.3458
   42MOL   H13228094   7.816   2.120   4.146  0.1811  1.8643  1.4877
   42MOL   H13328095   7.654   2.062   4.313  1.4098  3.1872  2.4915
   42MOL   H13428096   7.915   1.759   4.478 -1.0262 -0.8539  0.4776
   42MOL   H13528097   8.088   1.844   4.323  0.5047  1.3316  1.8797
   42MOL   H13628098   8.121   2.187   4.338 -0.2464  0.6002  0.2130
   42MOL   H13728099   0.044   2.241   4.405  1.4417 -0.7671  1.1333
   42MOL   C13828100   7.381   1.725   4.344 -0.0658 -0.1135 -0.1529
   42MOL   C13928101   7.507   1.779   4.363 -0.1257  0.3477 -0.7754
   42MOL   C14028102   7.555   1.818   4.491 -0.1325 -0.1769  0.5865
   42MOL   O14128103   7.684   1.874   4.515  0.1520  0.3955 -0.0241
   42MOL   C14228104   7.473   1.796   4.601  0.2287  0.1243 -0.3645
   42MOL   C14328105   7.349   1.739   4.576 -0.3140 -0.2386  1.1512
   42MOL   C14428106   7.295   1.702   4.453  0.9267  0.7591  0.4529
   42MOL   C14528107   7.168   1.634   4.429  0.4056 -0.6510  0.0156
   42MOL   O14628108   7.160   1.525   4.370 -0.1662 -0.1497  0.1299
   42MOL   C14728109   7.042   1.707   4.479  0.0466 -0.0728 -0.5472
   42MOL   C14828110   6.924   1.633   4.501  0.1564  0.1653  0.3756
   42MOL   C14928111   6.817   1.686   4.570 -0.1622  0.1674  0.0319
   42MOL   C15028112   6.821   1.820   4.615 -0.0958  0.3112 -0.3951
   42MOL   O15128113   6.716   1.866   4.693  0.3289 -0.1758 -0.7045
   42MOL   C15228114   6.609   1.930   4.634 -0.7093 -0.5589 -0.5705
   42MOL   C15328115   6.482   1.922   4.702 -0.4321 -0.2301 -0.1820
   42MOL   C15428116   6.372   1.980   4.628  0.4925 -0.3692  0.6723
   42MOL   C15528117   6.376   2.041   4.507  0.6147 -0.6531  0.4880
   42MOL   C15628118   6.509   2.056   4.450  0.2876  0.2083  0.0199
   42MOL   C15728119   6.619   1.999   4.516  0.3955  0.5590 -0.3178
   42MOL   C15828120   6.933   1.900   4.586  0.9943  0.0022  0.4964
   42MOL   C15928121   7.042   1.844   4.519 -0.3380  0.1351  0.1231
   42MOL   H16028122   7.355   1.707   4.241  1.4782  2.9048 -1.1362
   42MOL   H16128123   7.569   1.804   4.278  0.8392 -0.0433 -0.1940
   42MOL   H16228124   7.505   1.809   4.703 -0.5580 -1.7814  0.1467
   42MOL   H16328125   7.289   1.729   4.665  2.4145 -0.9938  2.9684
   42MOL   H16428126   6.919   1.531   4.465 -1.4933  0.9825 -1.7678
   42MOL   H16528127   6.730   1.628   4.595  0.3574  0.0876  1.7138
   42MOL   H16628128   6.471   1.862   4.791 -1.2740 -1.6552 -1.2280
   42MOL   H16728129   6.271   1.967   4.664 -0.7227  0.3810 -2.3397
   42MOL   H16828130   6.520   2.132   4.374 -0.7815  1.2164  0.8590
   42MOL   H16928131   6.712   2.009   4.462 -0.0209 -0.6145 -1.2557
   42MOL   H17028132   6.941   2.004   4.615  1.7498  1.0809 -3.3143
   42MOL   H17128133   7.129   1.908   4.508  0.7786 -1.2512  0.7349
   42MOL   C17228134   6.162   1.899   4.150 -0.0520  0.3458 -0.2016
   42MOL   C17328135   6.190   1.934   4.284 -0.1007  0.0364 -0.5393
   42MOL   C17428136   6.239   2.059   4.321  0.9094  0.7672  0.1003
   42MOL   O17528137   6.260   2.095   4.449 -0.1206  1.0366 -0.3825
   42MOL   C17628138   6.273   2.149   4.219  0.4522 -0.5327 -0.5632
   42MOL   C17728139   6.252   2.115   4.083 -1.1130 -0.0361  0.6572
   42MOL   C17828140   6.196   1.991   4.044  0.3752  0.7177 -0.3239
   42MOL   C17928141   6.166   1.951   3.902  0.7135  0.0896 -0.1193
   42MOL   O18028142   6.225   1.851   3.853 -0.1830  0.2395 -0.5838
   42MOL   C18128143   6.068   2.029   3.821  0.2318  0.2349  0.0038
   42MOL   C18228144   6.047   1.996   3.687 -0.1504  0.3019 -0.0508
   42MOL   C18328145   5.956   2.058   3.603  0.5728 -0.2508 -0.3206
   42MOL   C18428146   5.881   2.164   3.662 -0.0068  0.4381  0.2661
   42MOL   O18528147   5.786   2.227   3.587  0.2305  0.8711 -0.3145
   42MOL   C18628148   5.652   2.214   3.615  0.0654 -1.3241 -0.1127
   42MOL   C18728149   5.592   2.321   3.679  0.2084  0.0353 -0.1769
   42MOL   C18828150   5.450   2.319   3.698 -0.1477 -0.5506  0.4268
   42MOL   C18928151   5.381   2.205   3.655  0.4233  0.2692  0.3795
   42MOL   C19028152   5.442   2.101   3.582  0.1162 -0.2390  0.7824
   42MOL   C19128153   5.581   2.113   3.554  0.1986 -1.0637  0.6046
   42MOL   C19228154   5.900   2.199   3.800 -0.2512 -0.1776 -0.3057
   42MOL   C19328155   5.997   2.134   3.876  0.1644 -0.0032  0.3642
   42MOL   H19428156   6.104   1.811   4.123  0.3414 -0.1344  0.5159
   42MOL   H19528157   6.165   1.869   4.367  0.6672  0.6131  0.1541
   42MOL   H19628158   6.310   2.249   4.239  0.9284 -0.1586 -3.1356
   42MOL   H19728159   6.284   2.178   4.002 -1.0087 -0.9853 -0.0500
   42MOL   H19828160   6.100   1.909   3.653 -1.0530 -0.5253  0.6333
   42MOL   H19928161   5.948   2.032   3.499  0.4291  0.6830 -0.5483
   42MOL   H20028162   5.654   2.406   3.704  0.9202 -1.0144  1.7785
   42MOL   H20128163   5.400   2.403   3.744 -0.3293 -0.2703 -0.2744
   42MOL   H20228164   5.382   2.014   3.562  0.2025 -0.3130  0.8461
   42MOL   H20328165   5.630   2.027   3.511  1.9329  0.9551 -1.6068
   42MOL   H20428166   5.848   2.285   3.840  1.2547  0.7235 -0.2610
   42MOL   H20528167   6.003   2.154   3.982 -0.4227 -0.5398  0.5064
   42MOL   C20628168   5.043   2.300   3.964 -0.6293  0.0099  0.5043
   42MOL   C20728169   5.103   2.293   3.841 -0.2322  0.0734  1.0112
   42MOL   C20828170   5.213   2.206   3.815 -0.2872  0.0673 -0.2655
   42MOL   O20928171   5.250   2.189   3.691 -0.2325  0.0665  0.2094
   42MOL   C21028172   5.261   2.130   3.923  0.7735  0.1642 -0.2743
   42MOL   C21128173   5.196   2.134   4.050  0.1648 -0.0916  0.3679
   42MOL   C21228174   5.084   2.223   4.072  0.9159 -0.2339 -0.6755
   42MOL   C21328175   5.018   2.222   4.206 -0.1134 -0.8625 -0.1141
   42MOL   O21428176   4.998   2.332   4.264  0.0670 -0.4586  0.2648
   42MOL   C21528177   4.970   2.085   4.262 -0.2968  1.0865  0.1306
   42MOL   C21628178   4.957   2.077   4.407  0.4410  0.3003  1.0197
   42MOL   C21728179   4.904   1.964   4.473  0.2063 -0.1474 -0.5646
   42MOL   C21828180   4.860   1.861   4.387 -0.0603  0.2839  0.5654
   42MOL   O21928181   4.811   1.747   4.447  0.0460 -0.6704  0.2642
   42MOL   C22028182   4.897   1.649   4.496 -0.5418  0.6042  0.6435
   42MOL   C22128183   4.852   1.523   4.534 -0.1042 -0.3001 -0.8530
   42MOL   C22228184   4.937   1.427   4.596 -0.1793 -0.4559  0.2574
   42MOL   C22328185   5.076   1.454   4.605  0.1115  0.4035  0.3878
   42MOL   C22428186   5.126   1.577   4.564  0.2585  0.1360 -0.1085
   42MOL   C22528187   5.037   1.674   4.520  0.7348 -0.8382  0.4147
   42MOL   C22628188   4.890   1.851   4.253 -0.6764 -0.4913  0.4586
   42MOL   C22728189   4.942   1.969   4.188  0.7763  0.4405 -0.1788
   42MOL   H22828190   4.962   2.368   3.983  0.8820  2.3348 -1.0686
   42MOL   H22928191   5.053   2.342   3.758 -1.1219 -1.8281  0.3958
   42MOL   H23028192   5.336   2.054   3.904  1.5137  0.1924  2.3305
   42MOL   H23128193   5.237   2.082   4.135  0.0390  1.4627  1.3985
   42MOL   H23228194   4.987   2.165   4.461  1.9893  1.2699 -1.3558
   42MOL   H23328195   4.896   1.959   4.581  1.8378 -0.3994 -0.4494
   42MOL   H23428196   4.748   1.495   4.531 -0.5206  0.9687  0.7457
   42MOL   H23528197   4.902   1.327   4.618  2.2586 -1.7162 -1.4196
   42MOL   H23628198   5.231   1.603   4.568  0.4451 -0.6157 -0.1101
   42MOL   H23728199   5.061   1.777   4.497 -1.7812 -0.4266 -0.5347
   42MOL   H23828200   4.867   1.759   4.200 -0.0415 -0.7649  0.6418
   42MOL   H23928201   4.955   1.986   4.082  1.7033  0.3040 -0.0831
   42MOL   C24028202   5.430   1.277   4.424 -0.0693 -0.4222  0.2381
   42MOL   C24128203   5.360   1.338   4.529 -0.1447 -0.5920 -0.7418
   42MOL   C24228204   5.235   1.292   4.560 -0.6785  0.2256 -0.7205
   42MOL   O24328205   5.156   1.354   4.658  0.0507  0.6219 -0.2002
   42MOL   C24428206   5.190   1.168   4.500 -0.5805  0.5363  0.5756
   42MOL   C24528207   5.265   1.100   4.405  0.2756 -0.0151 -0.6441
   42MOL   C24628208   5.385   1.157   4.363 -0.0037  0.1759 -0.5428
   42MOL   C24728209   5.471   1.098   4.253  0.8545  0.3097  0.7300
   42MOL   O24828210   5.589   1.087   4.268  0.2900  0.6317 -0.4406
   42MOL   C24928211   5.413   1.072   4.119  0.1012  0.9528 -0.2409
   42MOL   C25028212   5.477   0.993   4.018  0.0883  0.2068  0.0186
   42MOL   C25128213   5.416   0.969   3.894  0.6455 -0.3146  0.4465
   42MOL   C25228214   5.282   1.022   3.871 -0.0469  0.0872 -0.2153
   42MOL   O25328215   5.214   0.975   3.763  0.0589  0.0492  0.3902
   42MOL   C25428216   5.148   0.861   3.783 -0.3260  0.0263  0.1795
   42MOL   C25528217   5.192   0.747   3.713  0.0684  0.2956  0.1062
   42MOL   C25628218   5.101   0.637   3.707  0.4136  0.3350  0.6918
   42MOL   C25728219   4.992   0.630   3.800 -0.0676 -0.1697 -0.5730
   42MOL   C25828220   4.956   0.748   3.876  0.0235 -0.5119 -0.3889
   42MOL   C25928221   5.034   0.861   3.858  0.5617  0.3726 -0.1614
   42MOL   C26028222   5.225   1.113   3.958 -0.0901 -0.2723  0.6447
   42MOL   C26128223   5.293   1.137   4.081 -0.4418  0.0727 -0.4238
   42MOL   H26228224   5.520   1.329   4.392 -1.8131  0.5266 -3.4105
   42MOL   H26328225   5.398   1.423   4.584 -0.9179 -0.9960  0.4386
   42MOL   H26428226   5.089   1.134   4.517 -0.2184 -0.8426  0.0341
   42MOL   H26528227   5.226   1.009   4.363  2.1828 -1.0318 -0.2644
   42MOL   H26628228   5.579   0.960   4.033 -0.2554 -0.5797  0.6737
   42MOL   H26728229   5.468   0.916   3.815 -2.2764 -2.1316 -0.3422
   42MOL   H26828230   5.277   0.742   3.647 -0.9377 -1.4127 -1.0957
   42MOL   H26928231   5.128   0.553   3.645 -0.4808 -1.2162  2.3473
   42MOL   H27028232   4.869   0.759   3.938  0.1258 -0.4793 -0.2515
   42MOL   H27128233   5.008   0.951   3.911 -0.7357 -0.0478 -0.0619
   42MOL   H27228234   5.130   1.161   3.942 -0.5707 -0.9836  1.3571
   42MOL   H27328235   5.259   1.210   4.153  1.1641 -0.0287  0.4582
   42MOL   C27428236   4.896   0.179   3.920  0.9482 -0.4529  0.3832
   42MOL   C27528237   4.913   0.291   3.838 -0.2262 -0.0839 -0.5448
   42MOL   C27628238   4.890   0.425   3.882  0.0522  0.5262  0.1402
   42MOL   O27728239   4.899   0.534   3.792 -0.0743  0.4179  0.3412
   42MOL   C27828240   4.853   0.447   4.018 -0.0204 -0.4936  0.3722
   42MOL   C27928241   4.839   0.335   4.105 -0.1653  0.3297  0.1410
   42MOL   C28028242   4.873   0.202   4.057  0.4777 -0.0381  0.2749
   42MOL   C28128243   4.856   0.085   4.157 -0.3937 -0.6811  0.1916
   42MOL   O28228244   4.882   0.100   4.276 -0.2711 -0.5148 -0.1101
   42MOL   C28328245   4.811   8.270   4.104 -0.0494  0.1273 -0.7321
   42MOL   C28428246   4.865   8.150   4.149  0.0410 -0.3595  0.0296
   42MOL   C28528247   4.824   8.031   4.091 -0.0296 -0.0462 -0.1377
   42MOL   C28628248   4.717   8.026   4.006  0.3396  0.6530  0.0952
   42MOL   O28728249   4.653   7.910   3.969 -0.7167  0.5933 -0.0853
   42MOL   C28828250   4.721   7.786   3.990 -0.7703  0.2970  0.1737
   42MOL   C28928251   4.829   7.752   3.904 -1.2066 -0.4957  0.6607
   42MOL   C29028252   4.918   7.647   3.935 -0.6199  0.0901  0.2302
   42MOL   C29128253   4.888   7.559   4.040 -0.4473 -0.0455  0.8467
   42MOL   C29228254   4.781   7.583   4.121 -0.5293 -0.1307  0.3405
   42MOL   C29328255   4.698   7.696   4.098  0.2700  0.3098 -0.2457
   42MOL   C29428256   4.652   8.151   3.965 -0.0631 -0.0681  0.4061
   42MOL   C29528257   4.699   8.270   4.013  0.2676  0.0251  0.2676
   42MOL   H29628258   4.900   0.080   3.879  1.3128 -0.3681  0.2168
   42MOL   H29728259   4.937   0.268   3.735  0.8820  0.1581 -0.3402
   42MOL   H29828260   4.827   0.544   4.056  1.1291  0.1105 -0.3310
   42MOL   H29928261   4.816   0.358   4.207  0.7737 -2.4082  1.0166
   42MOL   H30028262   4.945   8.160   4.222 -1.3760  1.2997  1.3983
   42MOL   H30128263   4.873   7.949   4.140  0.7706 -0.5027 -1.6513
   42MOL   H30228264   4.839   7.807   3.812 -0.1667 -2.0718 -0.1921
   42MOL   H30328265   4.997   7.621   3.865  0.1349 -1.5565  1.6895
   42MOL   H30428266   4.757   7.516   4.202 -1.3119  1.6172  1.6007
   42MOL   H30528267   4.612   7.710   4.162  0.1022  1.9042 -0.8010
   42MOL   H30628268   4.565   8.140   3.901 -0.1667  1.7632  0.2140
   42MOL   H30728269   4.664   0.054   3.981  1.9109  0.3063 -0.7523
   42MOL   C30828270   5.110   7.564   4.391  0.1824 -0.0718 -0.1567
   42MOL   C30928271   5.069   7.581   4.261  1.0505  0.7861  0.2997
   42MOL   C31028272   5.047   7.459   4.187 -0.1208  0.0158  0.0048
   42MOL   O31128273   4.975   7.457   4.069  0.0683 -0.5090 -0.0801
   42MOL   C31228274   5.087   7.331   4.233 -0.0563 -0.0371 -0.3850
   42MOL   C31328275   5.130   7.323   4.368  0.7602 -0.5746  0.6314
   42MOL   C31428276   5.145   7.440   4.448 -0.5797  0.3343 -0.1019
   42MOL   C31528277   5.206   7.448   4.590  0.2210  0.0109  0.3989
   42MOL   O31628278   5.219   7.556   4.649 -0.1176  0.3639  0.2243
   42MOL   C31728279   5.257   7.318   4.656 -0.1549 -0.4838  0.2897
   42MOL   C31828280   5.395   7.314   4.680  0.0519 -0.5377 -0.3198
   42MOL   C31928281   5.445   7.201   4.758  0.2659  0.2193  0.5110
   42MOL   C32028282   5.357   7.107   4.814  0.1731 -0.1392 -0.0068
   42MOL   O32128283   5.411   7.007   4.897 -0.0255  0.2371  0.4695
   42MOL   C32228284   5.348   6.975   5.014  1.2243  0.2489  0.0340
   42MOL   C32328285   5.365   6.850   5.070  1.0114  0.0906  0.2479
   42MOL   C32428286   5.299   6.800   5.183  0.2957  0.1208 -0.4448
   42MOL   C32528287   5.220   6.889   5.256  0.2088 -0.0370 -0.8108
   42MOL   C32628288   5.203   7.019   5.212  0.0688 -0.2298 -0.8098
   42MOL   C32728289   5.261   7.065   5.089 -0.0810 -0.4199 -0.4724
   42MOL   C32828290   5.220   7.111   4.786 -0.0660  0.1066  1.0415
   42MOL   C32928291   5.175   7.207   4.693 -0.1115  0.7532 -0.1929
   42MOL   H33028292   5.124   7.658   4.442 -0.1448 -0.3608  0.4729
   42MOL   H33128293   5.060   7.678   4.215  2.1197  1.0914  0.7168
   42MOL   H33228294   5.053   7.241   4.184 -0.8576  1.2718 -2.3045
   42MOL   H33328295   5.160   7.228   4.410 -0.6213 -1.4465 -0.3151
   42MOL   H33428296   5.459   7.393   4.644  0.8272 -1.5484 -1.2276
   42MOL   H33528297   5.550   7.196   4.785 -0.1712 -0.2306  2.1705
   42MOL   H33628298   5.424   6.779   5.015 -1.2471 -1.1336 -0.6732
   42MOL   H33728299   5.308   6.697   5.216  2.8125 -0.0898 -1.6317
   42MOL   H33828300   5.150   7.085   5.278 -0.9505  0.1118 -1.9609
   42MOL   H33928301   5.257   7.164   5.045 -0.6029 -0.1759  0.1231
   42MOL   H34028302   5.146   7.040   4.818 -1.8099  1.6962  0.6421
   42MOL   H34128303   5.068   7.212   4.674 -0.2575 -0.4572  0.2412
   42MOL   C34228304   5.104   6.563   5.583 -0.6429 -0.2788  0.0510
   42MOL   C34328305   5.083   6.665   5.486  0.2150  0.5037  0.1938
   42MOL   C34428306   5.194   6.743   5.446  0.1069 -0.0109 -0.2912
   42MOL   O34528307   5.168   6.859   5.381  0.4075  0.5458  0.0539
   42MOL   C34628308   5.323   6.713   5.491 -0.1496 -0.0590 -0.3569
   42MOL   C34728309   5.345   6.605   5.575  0.7800  0.4216 -0.3356
   42MOL   C34828310   5.237   6.525   5.617 -0.4035 -0.2265 -0.0557
   42MOL   C34928311   5.267   6.413   5.712 -0.7452  0.2757  0.3609
   42MOL   O35028312   5.362   6.421   5.790  0.6899  0.7912  0.5929
   42MOL   C35128313   5.168   6.296   5.715  0.1434 -0.1067 -0.5343
   42MOL   C35228314   5.155   6.226   5.837  0.3472  0.4518  0.3275
   42MOL   C35328315   5.053   6.127   5.854 -0.2018  0.2702 -0.6596
   42MOL   C35428316   4.983   6.087   5.739 -0.0274  0.1664  0.8654
   42MOL   O35528317   4.884   5.995   5.755 -0.8069  0.0067 -0.1479
   42MOL   C35628318   4.923   5.862   5.777 -0.1718 -0.1343  0.0576
   42MOL   C35728319   4.889   5.796   5.898  0.1579  0.3487  0.2064
   42MOL   C35828320   4.924   5.657   5.910  0.1045  0.4143 -0.1478
   42MOL   C35928321   4.980   5.584   5.806  0.1894  0.8065 -0.3280
   42MOL   C36028322   5.001   5.646   5.684 -0.2446 -0.0340 -0.5538
   42MOL   C36128323   4.974   5.783   5.670 -0.5990  0.1787  0.4213
   42MOL   C36228324   4.998   6.150   5.616 -0.4195  0.2828  0.5239
   42MOL   C36328325   5.089   6.259   5.601  0.5793 -0.4163  0.5714
   42MOL   H36428326   5.017   6.512   5.620 -1.5554  1.6915  0.6908
   42MOL   H36528327   4.984   6.693   5.454  0.1613  1.0258  0.8094
   42MOL   H36628328   5.411   6.772   5.471 -1.7912  1.9524 -1.9778
   42MOL   H36728329   5.449   6.587   5.598  0.9596  0.7440 -0.8884
   42MOL   H36828330   5.205   6.254   5.929 -1.2933  1.3076  0.9937
   42MOL   H36928331   5.046   6.084   5.952  0.6993  0.8959 -0.3171
   42MOL   H37028332   4.852   5.852   5.982 -0.6520  0.2354 -0.0727
   42MOL   H37128333   4.911   5.610   6.006  1.0734  0.5526  0.0511
   42MOL   H37228334   5.051   5.591   5.606 -0.1804  0.2924 -0.7458
   42MOL   H37328335   5.006   5.834   5.579  1.3956  0.3646  1.2004
   42MOL   H37428336   4.939   6.123   5.529 -0.4190 -0.1070  0.6419
   42MOL   H37528337   5.091   6.301   5.502 -1.7751 -3.0197 -0.6420
   42MOL   C37628338   5.168   5.186   5.615  0.1586  0.0969  0.1674
   42MOL   C37728339   5.139   5.279   5.720  0.0308 -0.2881 -0.0825
   42MOL   C37828340   5.024   5.362   5.724  0.5078  0.1231 -0.5874
   42MOL   O37928341   5.015   5.451   5.828  0.0053 -0.3914 -0.3955
   42MOL   C38028342   4.934   5.351   5.616 -0.2383 -0.4462 -0.1277
   42MOL   C38128343   4.962   5.265   5.511  0.6949  0.0170  0.4733
   42MOL   C38228344   5.073   5.178   5.511 -0.1033  1.0068 -0.1702
   42MOL   C38328345   5.097   5.071   5.407  0.1623  0.5598  0.1288
   42MOL   O38428346   5.110   5.106   5.288  0.0062  0.1062 -0.0803
   42MOL   C38528347   5.098   4.930   5.450  0.6785  0.3810  0.2694
   42MOL   C38628348   5.171   4.834   5.382  0.4266 -0.1488 -0.1329
   42MOL   C38728349   5.160   4.696   5.422  0.2985 -0.1473 -0.0626
   42MOL   C38828350   5.064   4.650   5.522 -0.4722 -0.0805 -0.4891
   42MOL   O38928351   5.044   4.518   5.562  0.4651 -0.3024 -0.2231
   42MOL   C39028352   5.104   4.414   5.494  0.8280  0.4044  0.7566
   42MOL   C39128353   5.216   4.348   5.543  0.6500 -0.1885 -0.2904
   42MOL   C39228354   5.267   4.242   5.468  0.4216 -0.5629 -0.0924
   42MOL   C39328355   5.207   4.194   5.346 -0.2354  0.4855 -0.3190
   42MOL   C39428356   5.101   4.266   5.293 -0.1016  0.4365  0.9535
   42MOL   C39528357   5.046   4.375   5.369 -0.2524 -0.3742  0.2946
   42MOL   C39628358   4.991   4.753   5.582 -0.5327  0.2367  0.3720
   42MOL   C39728359   5.007   4.890   5.549  0.4300 -0.3603  0.0380
   42MOL   H39828360   5.252   5.118   5.621 -3.1974 -4.2725  0.3588
   42MOL   H39928361   5.216   5.286   5.796 -1.3249 -1.7140  1.4650
   42MOL   H40028362   4.845   5.412   5.606 -0.8240 -1.1761  0.5327
   42MOL   H40128363   4.894   5.268   5.427 -0.2137  0.6557  1.2184
   42MOL   H40228364   5.229   4.863   5.297 -0.8376  0.3278 -0.8431
   42MOL   H40328365   5.209   4.619   5.365 -0.3827 -1.1920  0.7403
   42MOL   H40428366   5.260   4.369   5.639 -1.3908  1.5692  0.3010
   42MOL   H40528367   5.358   4.196   5.505  1.4373  0.5352 -1.1737
   42MOL   H40628368   5.050   4.240   5.202  0.0585 -1.3606  1.3571
   42MOL   H40728369   4.963   4.436   5.337  0.9883  0.3891 -1.4883
   42MOL   H40828370   4.920   4.727   5.660 -3.6651  1.7179 -1.8739
   42MOL   H40928371   4.949   4.970   5.592 -1.8129 -1.8084 -0.2431
   42MOL   C41028372   5.494   3.861   5.432 -0.1433  0.2440  0.3499
   42MOL   C41128373   5.377   3.936   5.408 -0.0118 -0.1633 -0.5952
   42MOL   C41228374   5.380   4.029   5.308 -0.5287  0.8091 -0.1363
   42MOL   O41328375   5.260   4.090   5.273  0.2161 -0.4808  0.7149
   42MOL   C41428376   5.500   4.052   5.230 -0.2185  0.1553 -0.4327
   42MOL   C41528377   5.619   3.980   5.264  0.5753  0.1077 -0.1076
   42MOL   C41628378   5.618   3.883   5.368 -0.3430 -0.4358  0.1206
   42MOL   C41728379   5.736   3.799   5.397 -0.7149 -0.2500 -0.3509
   42MOL   O41828380   5.727   3.678   5.389  0.1699 -0.5111  0.0794
   42MOL   C41928381   5.860   3.863   5.461 -0.4797 -0.2664  0.4369
   42MOL   C42028382   5.977   3.782   5.486 -0.1903 -0.6512 -0.0311
   42MOL   C42128383   6.091   3.835   5.548 -0.3192  0.1490 -0.7631
   42MOL   C42228384   6.097   3.971   5.586 -0.1852 -0.4074 -0.2701
   42MOL   O42328385   6.205   4.015   5.656 -0.0771 -0.2012 -0.5073
   42MOL   C42428386   6.213   3.975   5.790 -0.1623  0.0942  0.4739
   42MOL   C42528387   6.307   3.877   5.823  0.1037 -0.2638 -0.1757
   42MOL   C42628388   6.323   3.847   5.965  0.0362  0.4612  0.7556
   42MOL   C42728389   6.248   3.910   6.059  0.1475 -0.1354 -0.1147
   42MOL   C42828390   6.145   4.000   6.029 -0.0707 -0.0860 -0.7307
   42MOL   C42928391   6.128   4.026   5.890  0.0432  0.4062 -0.5025
   42MOL   C43028392   5.982   4.055   5.556  0.2420 -0.3449 -0.2020
   42MOL   C43128393   5.870   3.999   5.489  0.2688  0.0552  0.0838
   42MOL   H43228394   5.499   3.780   5.503  0.0198  0.5169  0.6472
   42MOL   H43328395   5.286   3.924   5.465  0.7978  1.7681  1.1661
   42MOL   H43428396   5.493   4.115   5.142  2.4013  0.8093 -0.2060
   42MOL   H43528397   5.709   4.010   5.213  1.2242 -3.6407 -1.3204
   42MOL   H43628398   5.972   3.674   5.478  0.8280 -0.6809 -0.3214
   42MOL   H43728399   6.178   3.773   5.566 -0.3790 -0.3944 -2.2688
   42MOL   H43828400   6.363   3.831   5.743  0.2010  0.5624 -0.5962
   42MOL   H43928401   6.384   3.763   5.991 -1.1103 -0.7553 -0.4091
   42MOL   H44028402   6.084   4.038   6.110  0.2469 -1.3498  0.1253
   42MOL   H44128403   6.047   4.090   5.858  0.0738  0.6299 -0.1429
   42MOL   H44228404   5.983   4.160   5.578 -0.2044 -0.2622 -0.5523
   42MOL   H44328405   5.780   4.057   5.473 -0.5856 -1.2814 -0.0421
   42MOL   C44428406   6.434   4.000   6.493  0.3662 -0.0745 -0.1846
   42MOL   C44528407   6.341   3.930   6.411 -0.8189  0.4499 -0.9266
   42MOL   C44628408   6.349   3.936   6.271  0.5306 -0.3000  1.3079
   42MOL   O44728409   6.261   3.872   6.192 -0.1408  1.0444  0.0514
   42MOL   C44828410   6.455   4.008   6.216  0.1553 -0.6320 -0.8333
   42MOL   C44928411   6.539   4.086   6.294 -0.6583 -0.0390 -0.1052
   42MOL   C45028412   6.526   4.086   6.433  0.5556  0.2694  0.1531
   42MOL   C45128413   6.618   4.162   6.525 -0.5367 -0.2423 -0.1240
   42MOL   O45228414   6.695   4.098   6.605  0.3960  0.2500 -0.4495
   42MOL   C45328415   6.620   4.312   6.516  1.2501 -0.4721  0.3235
   42MOL   C45428416   6.736   4.379   6.573 -0.1320 -0.2234 -0.1068
   42MOL   C45528417   6.739   4.517   6.580 -0.9107 -0.0295 -0.2663
   42MOL   C45628418   6.626   4.593   6.542  0.2954  0.1441  0.2581
   42MOL   O45728419   6.623   4.733   6.567  0.0230  0.0087 -0.1939
   42MOL   C45828420   6.647   4.817   6.460 -0.3852 -0.8259  0.6939
   42MOL   C45928421   6.713   4.778   6.343 -0.1937 -0.2624 -0.1639
   42MOL   C46028422   6.740   4.873   6.242 -0.1266  0.2526 -0.5537
   42MOL   C46128423   6.686   5.002   6.256  0.3430 -0.1845  0.2913
   42MOL   C46228424   6.612   5.039   6.365 -0.3046 -0.3273 -0.6225
   42MOL   C46328425   6.601   4.949   6.467 -0.1230 -0.1017 -0.7460
   42MOL   C46428426   6.514   4.531   6.482 -0.3579  0.1561 -0.0235
   42MOL   C46528427   6.516   4.391   6.472 -0.1952  0.0535 -0.4013
   42MOL   H46628428   6.431   3.980   6.599 -0.5095 -0.0204 -0.1935
   42MOL   H46728429   6.267   3.868   6.459  0.1744 -0.6767 -0.7981
   42MOL   H46828430   6.487   4.012   6.113  2.5910  0.2410 -0.0770
   42MOL   H46928431   6.623   4.138   6.250  0.9194 -1.9281  0.5863
   42MOL   H47028432   6.813   4.319   6.620  0.5131  1.0676  0.5091
   42MOL   H47128433   6.830   4.559   6.621 -1.5361  0.3939  0.7060
   42MOL   H47228434   6.747   4.676   6.329 -0.4423 -0.2648 -0.7880
   42MOL   H47328435   6.803   4.845   6.158 -0.4161  0.2976 -0.7868
   42MOL   H47428436   6.561   5.134   6.375 -0.8854 -0.4609 -2.0785
   42MOL   H47528437   6.538   4.970   6.553 -0.9415 -0.7788 -1.1691
   42MOL   H47628438   6.429   4.584   6.442 -0.3029  0.1276 -0.1783
   42MOL   H47728439   6.422   4.352   6.434 -1.4356  3.3407 -0.8390
   42MOL   C47828440   7.030   5.240   6.218 -0.1109 -0.2100 -0.6890
   42MOL   C47928441   6.896   5.201   6.247 -0.4077 -0.1479  0.2797
   42MOL   C48028442   6.827   5.136   6.142 -0.1339  0.7389 -0.1643
   42MOL   O48128443   6.698   5.094   6.160 -0.5820  0.0869  0.4696
   42MOL   C48228444   6.884   5.111   6.024 -0.0351 -0.2500  0.3315
   42MOL   C48328445   7.013   5.159   5.996  0.2024  0.6111  0.2253
   42MOL   C48428446   7.094   5.221   6.093 -0.2064 -0.2855 -0.2985
   42MOL   C48528447   7.231   5.276   6.064 -0.2228 -0.2407  0.5494
   42MOL   O48628448   7.279   5.367   6.131  0.1067  0.2050 -0.2724
   42MOL   C48728449   7.303   5.223   5.940 -0.1824 -0.1466 -0.2586
   42MOL   C48828450   7.361   5.314   5.850  0.1502  0.1002 -0.0324
   42MOL   C48928451   7.417   5.271   5.733  0.6690 -1.0707 -0.4545
   42MOL   C49028452   7.418   5.134   5.699 -0.6730 -0.3100 -0.6055
   42MOL   O49128453   7.475   5.088   5.585 -0.3845 -0.2346  0.5703
   42MOL   C49228454   7.411   5.118   5.464 -0.0850 -0.5236  0.2777
   42MOL   C49328455   7.484   5.186   5.365 -0.0406  0.0025 -0.6469
   42MOL   C49428456   7.412   5.227   5.249 -0.0686 -0.2805  0.1710
   42MOL   C49528457   7.278   5.195   5.227 -0.0312  0.3250  0.3872
   42MOL   C49628458   7.211   5.120   5.326 -0.4074  0.2806 -0.3784
   42MOL   C49728459   7.276   5.087   5.445  0.3262  0.0755  0.5990
   42MOL   C49828460   7.363   5.041   5.790  0.0122  0.8033 -0.2009
   42MOL   C49928461   7.308   5.086   5.912 -0.3960 -0.3698  0.5982
   42MOL   H50028462   7.087   5.289   6.295 -1.8431  0.4133  0.2287
   42MOL   H50128463   6.848   5.225   6.340 -1.0384  2.1019 -0.5913
   42MOL   H50228464   6.828   5.065   5.944  0.9743  0.3611 -0.7476
   42MOL   H50328465   7.066   5.151   5.902  0.3748  1.3626  0.2556
   42MOL   H50428466   7.368   5.420   5.870 -0.5803  0.1159  0.1679
   42MOL   H50528467   7.464   5.341   5.666 -2.6793 -0.2318 -2.0284
   42MOL   H50628468   7.589   5.212   5.364 -0.5608  2.4085  1.6437
   42MOL   H50728469   7.466   5.295   5.184  1.6306  1.0924  2.9421
   42MOL   H50828470   7.108   5.094   5.312  0.1269 -2.0524 -0.0803
   42MOL   H50928471   7.217   5.028   5.514 -1.1201  0.2234 -0.5054
   42MOL   H51028472   7.355   4.936   5.766 -0.4103  0.9126 -0.5376
   42MOL   H51128473   7.254   5.018   5.976 -0.2157  0.6757  1.8686
   42MOL   C51228474   7.034   4.969   4.961 -1.4933  0.7785 -0.5657
   42MOL   C51328475   7.134   5.044   5.025 -0.2696  0.1592 -0.0104
   42MOL   C51428476   7.111   5.181   5.062  0.7997  0.2337  0.0127
   42MOL   O51528477   7.207   5.257   5.123 -0.2264 -0.0175 -0.9919
   42MOL   C51628478   6.987   5.239   5.030  0.0323  0.0767 -0.6661
   42MOL   C51728479   6.893   5.164   4.947 -0.1182 -1.1492 -0.2365
   42MOL   C51828480   6.915   5.032   4.910  0.3082 -0.1634  0.2588
   42MOL   C51928481   6.802   4.950   4.842  0.5473  0.1257 -0.3774
   42MOL   O52028482   6.678   4.978   4.860 -0.0811  0.3427  0.2057
   42MOL   C52128483   6.853   4.837   4.754  0.6728  0.0874  0.3512
   42MOL   C52228484   6.776   4.724   4.735 -0.4331  0.7069  0.7754
   42MOL   C52328485   6.817   4.625   4.649 -0.2568  0.5419  0.7237
   42MOL   C52428486   6.935   4.637   4.570 -0.4353  0.2685 -0.4546
   42MOL   O52528487   6.978   4.539   4.486 -0.9230  0.6903  0.0159
   42MOL   C52628488   6.891   4.442   4.433  0.2925  0.3844 -0.2932
   42MOL   C52728489   6.785   4.476   4.346  0.3183 -0.2253  0.2564
   42MOL   C52828490   6.705   4.373   4.304 -0.1042 -0.2269  0.7992
   42MOL   C52928491   6.715   4.241   4.343  1.1084 -0.3418 -0.1817
   42MOL   C53028492   6.818   4.204   4.433 -0.1144  0.3281  0.4452
   42MOL   C53128493   6.911   4.306   4.462 -0.0239 -0.0430  0.2447
   42MOL   C53228494   7.015   4.751   4.594  0.1287  0.0873  0.0184
   42MOL   C53328495   6.968   4.855   4.681  0.5291  0.0959 -0.5773
   42MOL   H53428496   7.049   4.863   4.948 -0.6156  0.9851 -1.3863
   42MOL   H53528497   7.228   4.994   5.041 -0.9663 -1.2177 -0.1117
   42MOL   H53628498   6.967   5.345   5.044 -1.7426 -0.0344 -2.1925
   42MOL   H53728499   6.799   5.213   4.926  1.5939  2.1018 -0.6536
   42MOL   H53828500   6.684   4.710   4.788  0.1419  0.4361  1.7111
   42MOL   H53928501   6.750   4.543   4.625 -0.6576  0.4009  2.2677
   42MOL   H54028502   6.755   4.579   4.331 -1.5715 -0.8097 -0.0610
   42MOL   H54128503   6.617   4.393   4.245 -1.6675 -2.8431  2.1459
   42MOL   H54228504   6.831   4.100   4.460 -0.3794  0.8863  2.9005
   42MOL   H54328505   7.001   4.290   4.519 -0.3482 -0.7151  0.5717
   42MOL   H54428506   7.108   4.759   4.539  0.8440  0.1320  1.2171
   42MOL   H54528507   7.024   4.947   4.691  1.4616 -0.4887 -0.3337
   42MOL   C54628508   6.570   3.826   4.457 -0.7736  0.5376  0.7325
   42MOL   C54728509   6.557   3.965   4.434 -0.2813  0.3502  0.6119
   42MOL   C54828510   6.622   4.018   4.318 -0.6084 -0.0465  0.4437
   42MOL   O54928511   6.611   4.157   4.309  0.3980 -0.4686  0.3373
   42MOL   C55028512   6.697   3.932   4.229 -0.0765  0.1833 -0.5546
   42MOL   C55128513   6.724   3.795   4.263  0.8687 -1.1562 -1.2611
   42MOL   C55228514   6.653   3.742   4.376  0.8843  0.9433  0.1179
   42MOL   C55328515   6.671   3.593   4.408  0.4467  0.2543  0.9972
   42MOL   O55428516   6.580   3.520   4.447  0.3974 -0.0432 -0.7332
   42MOL   C55528517   6.810   3.544   4.403 -0.0208 -0.3191  0.5823
   42MOL   C55628518   6.835   3.411   4.358  0.3962 -0.0721  0.0732
   42MOL   C55728519   6.962   3.353   4.366 -0.0487  0.0325 -0.7059
   42MOL   C55828520   7.071   3.425   4.412  0.0426  0.1108  0.7821
   42MOL   O55928521   7.190   3.365   4.439  0.5223  0.2486  0.0522
   42MOL   C56028522   7.198   3.261   4.527  0.4303 -0.8240 -0.4327
   42MOL   C56128523   7.285   3.153   4.502 -0.3842  0.0197  0.6534
   42MOL   C56228524   7.293   3.046   4.597  0.0891 -0.0375 -0.0079
   42MOL   C56328525   7.225   3.058   4.727  0.2121 -1.0636  1.1701
   42MOL   C56428526   7.134   3.167   4.742  0.0602 -0.5956 -0.7061
   42MOL   C56528527   7.117   3.264   4.643  0.1560 -0.1444 -0.7026
   42MOL   C56628528   7.052   3.561   4.447  0.0106 -0.1753  0.2080
   42MOL   C56728529   6.923   3.622   4.444 -0.4778 -0.1261 -0.0139
   42MOL   H56828530   6.532   3.780   4.547 -0.7577  0.6416  0.7930
   42MOL   H56928531   6.505   4.034   4.498 -2.0893  0.3756 -0.8132
   42MOL   H57028532   6.757   3.979   4.152 -0.1133  1.2135  0.0373
   42MOL   H57128533   6.797   3.740   4.205  2.1376 -0.4040 -0.3930
   42MOL   H57228534   6.757   3.351   4.313  0.1730  0.5934 -0.4298
   42MOL   H57328535   6.991   3.251   4.348 -1.0105 -0.7221  1.8271
   42MOL   H57428536   7.350   3.145   4.416  1.2023  0.7612  1.7570
   42MOL   H57528537   7.350   2.961   4.561  0.7052  0.1012  0.6189
   42MOL   H57628538   7.076   3.187   4.830  0.1223  0.1032 -0.8274
   42MOL   H57728539   7.060   3.353   4.667  1.5229  0.3268  0.9248
   42MOL   H57828540   7.136   3.622   4.477 -1.3617  1.6637  0.4483
   42MOL   H57928541   6.910   3.721   4.484  2.1631  1.1481 -2.1456
   42MOL   C58028542   7.143   2.939   5.172 -0.1792  1.0816 -0.9830
   42MOL   C58128543   7.133   2.930   5.028 -0.0639  0.0624 -0.1590
   42MOL   C58228544   7.235   2.987   4.955 -0.1624 -0.1161  0.0127
   42MOL   O58328545   7.244   2.958   4.820  0.4259  0.0081 -0.5045
   42MOL   C58428546   7.341   3.068   5.009 -0.2221  0.2238 -0.0411
   42MOL   C58528547   7.341   3.082   5.153 -1.0131  0.3567  1.2343
   42MOL   C58628548   7.252   3.009   5.231  0.2826  0.5174  0.3130
   42MOL   C58728549   7.268   3.035   5.378  0.2796 -0.0634  0.2595
   42MOL   O58828550   7.326   3.138   5.417 -0.3442 -0.1799  0.5644
   42MOL   C58928551   7.201   2.941   5.479  0.2126 -0.2108  0.5164
   42MOL   C59028552   7.151   2.989   5.602  0.3362 -0.3043  0.4114
   42MOL   C59128553   7.081   2.907   5.689  0.4581 -0.1401 -0.7523
   42MOL   C59228554   7.076   2.771   5.662  0.1836  0.4697  0.2793
   42MOL   O59328555   7.014   2.688   5.753  0.3051  0.0270  0.6069
   42MOL   C59428556   6.883   2.652   5.752  1.4235 -0.3531 -0.9651
   42MOL   C59528557   6.800   2.668   5.633  0.2934  0.2948  0.5377
   42MOL   C59628558   6.661   2.640   5.637  0.1186  0.0569  0.1235
   42MOL   C59728559   6.596   2.615   5.760  0.0529  0.4430 -0.3278
   42MOL   C59828560   6.678   2.603   5.877 -0.4316  0.2015 -1.0320
   42MOL   C59928561   6.816   2.619   5.869  0.0700 -0.1190  0.7162
   42MOL   C60028562   7.148   2.716   5.553 -0.0288  0.0001 -0.3506
   42MOL   C60128563   7.209   2.802   5.456  0.7040  0.0369  0.1484
   42MOL   H60228564   7.077   2.879   5.233  0.0606  0.0571 -1.7128
   42MOL   H60328565   7.049   2.885   4.979 -0.2082 -1.4206  1.4298
   42MOL   H60428566   7.425   3.108   4.954  2.4372 -2.2375  2.0912
   42MOL   H60528567   7.425   3.133   5.198  1.2403 -0.9336 -1.3766
   42MOL   H60628568   7.159   3.096   5.612  2.1853 -0.2696 -1.1055
   42MOL   H60728569   7.017   2.942   5.768  0.5751  1.0610 -1.1756
   42MOL   H60828570   6.853   2.700   5.544 -1.2788  0.1252 -0.4781
   42MOL   H60928571   6.609   2.657   5.543 -1.9429 -0.7640  1.0796
   42MOL   H61028572   6.640   2.575   5.974 -0.0245  3.6918  0.2101
   42MOL   H61128573   6.874   2.620   5.960 -3.4463 -1.9910  3.0938
   42MOL   H61228574   7.169   2.611   5.542  0.6731  0.1348 -0.3239
   42MOL   H61328575   7.259   2.760   5.370  1.0968 -0.7589  0.7624
   42MOL   C61428576   6.249   2.370   5.949  0.9735  0.0206  0.2647
   42MOL   C61528577   6.311   2.490   5.911 -0.1447 -0.2329  0.1441
   42MOL   C61628578   6.408   2.491   5.808  0.4023 -0.8079  0.5142
   42MOL   O61728579   6.460   2.609   5.768 -0.5906  0.0149  0.0149
   42MOL   C61828580   6.439   2.373   5.740 -0.6932 -0.9030  0.0622
   42MOL   C61928581   6.383   2.251   5.789  0.3892 -0.4578 -0.2231
   42MOL   C62028582   6.287   2.248   5.892 -0.4670 -0.2542 -0.1833
   42MOL   C62128583   6.236   2.117   5.936  0.1008  0.3939  0.2174
   42MOL   O62228584   6.205   2.103   6.053 -0.7581 -0.0879 -0.0343
   42MOL   C62328585   6.209   2.013   5.830  0.4856  0.2753  0.5578
   42MOL   C62428586   6.266   1.883   5.843  0.2695 -0.2314 -0.4507
   42MOL   C62528587   6.222   1.783   5.755  0.2737  0.4448  0.1004
   42MOL   C62628588   6.140   1.812   5.644 -0.1249  0.3612 -0.4775
   42MOL   O62728589   6.105   1.719   5.550  0.5908 -0.1072 -0.1389
   42MOL   C62828590   6.210   1.661   5.484  0.4883 -0.9477  0.1183
   42MOL   C62928591   6.229   1.523   5.502 -0.0811 -0.1193  0.0987
   42MOL   C63028592   6.329   1.458   5.435  0.4259 -0.3346 -0.0460
   42MOL   C63128593   6.425   1.527   5.361 -0.1016  0.6834  0.4019
   42MOL   C63228594   6.404   1.665   5.342  0.2058  0.3234  0.0023
   42MOL   C63328595   6.296   1.731   5.400  0.2154 -0.6311  0.1223
   42MOL   C63428596   6.082   1.939   5.632  0.0935 -0.3429 -0.2973
   42MOL   C63528597   6.118   2.042   5.722 -0.7008 -0.2003 -0.0553
   42MOL   H63628598   6.174   2.364   6.027  0.2131 -0.5572 -0.5119
   42MOL   H63728599   6.285   2.582   5.961  0.2629  0.0196 -0.1051
   42MOL   H63828600   6.504   2.371   5.654 -0.3472  0.4961  0.2639
   42MOL   H63928601   6.408   2.155   5.746  0.2270  0.0784 -1.5439
   42MOL   H64028602   6.310   1.857   5.938  0.0765  0.4542 -0.1655
   42MOL   H64128603   6.267   1.685   5.757 -1.1302 -0.2180 -1.0046
   42MOL   H64228604   6.145   1.474   5.548 -0.1735 -0.6922 -0.6677
   42MOL   H64328605   6.336   1.351   5.450  2.0485  0.0514  2.1196
   42MOL   H64428606   6.473   1.719   5.278  0.4594  0.6070  0.5109
   42MOL   H64528607   6.284   1.838   5.401 -0.0949 -0.6609  1.6545
   42MOL   H64628608   6.021   1.959   5.545  0.9500 -0.7809 -0.9939
   42MOL   H64728609   6.076   2.141   5.710  0.2120  0.7278  3.8046
   42MOL   C64828610   6.624   1.471   4.933 -0.1186  0.1009  0.2800
   42MOL   C64928611   6.631   1.480   5.076 -0.2101 -0.4906 -0.5407
   42MOL   C65028612   6.513   1.467   5.151 -0.0914 -0.8012  0.0430
   42MOL   O65128613   6.520   1.463   5.288  0.0577 -0.0914 -0.8079
   42MOL   C65228614   6.395   1.445   5.083  0.3048  0.2278 -0.0216
   42MOL   C65328615   6.392   1.438   4.944  0.5894 -0.5341  0.7757
   42MOL   C65428616   6.504   1.454   4.859 -0.8020 -0.1211 -0.6361
   42MOL   C65528617   6.496   1.462   4.713  0.0196  0.1060 -0.6784
   42MOL   O65628618   6.599   1.444   4.650 -0.8764  0.4814  0.6769
   42MOL   C65728619   6.375   1.512   4.648  0.4507  0.4050  0.5315
   42MOL   C65828620   6.332   1.454   4.526 -0.0372  0.1683 -0.8271
   42MOL   C65928621   6.203   1.489   4.477 -0.6637  0.3169  0.3922
   42MOL   C66028622   6.124   1.597   4.525 -1.2531  0.1468  0.4799
   42MOL   O66128623   6.000   1.623   4.471  0.2809  0.3767 -0.2161
   42MOL   C66228624   5.943   1.527   4.393  0.0794  0.1431 -0.0675
   42MOL   C66328625   5.849   1.436   4.448 -0.6242  0.5085  0.9956
   42MOL   C66428626   5.810   1.324   4.369 -0.6481  0.0383  0.0935
   42MOL   C66528627   5.847   1.311   4.235  0.2843 -0.1816 -0.6212
   42MOL   C66628628   5.934   1.406   4.179  0.4186  0.5173 -0.3108
   42MOL   C66728629   5.979   1.519   4.257  0.4408  0.1028 -0.8304
   42MOL   C66828630   6.168   1.654   4.639 -0.0713  0.0387  0.3702
   42MOL   C66928631   6.291   1.612   4.703  0.0012  0.3793 -0.3251
   42MOL   H67028632   6.717   1.489   4.881  0.0813 -0.4704  0.4329
   42MOL   H67128633   6.716   1.489   5.142  0.0056 -0.0478 -0.8765
   42MOL   H67228634   6.301   1.430   5.135  1.3842  1.2482  2.2475
   42MOL   H67328635   6.297   1.412   4.899 -1.1963  0.9436  3.5312
   42MOL   H67428636   6.390   1.380   4.473  0.8628 -0.4979  1.0163
   42MOL   H67528637   6.178   1.426   4.393 -1.6326  1.0455  0.1306
   42MOL   H67628638   5.809   1.434   4.548 -2.6482  2.2459  0.2545
   42MOL   H67728639   5.752   1.246   4.416  0.4349 -0.3572  0.8111
   42MOL   H67828640   5.970   1.410   4.077 -3.0452  3.7220 -1.5322
   42MOL   H67928641   6.056   1.584   4.220  0.4223  0.4935 -0.1881
   42MOL   H68028642   6.106   1.729   4.686  0.0131  0.4706 -0.1907
   42MOL   H68128643   6.314   1.653   4.800  1.3095  1.9272 -1.2740
   42MOL   H68228644   5.815   1.225   4.177  1.5127 -1.9183  1.2582
   43MOL     C128645   3.478   2.494   0.140 -0.0703  0.2753 -0.0448
   43MOL     C228646   3.456   2.363   0.094  0.2929  0.1824  0.1836
   43MOL     C328647   3.327   2.336   0.042  0.3186 -0.2978 -0.8494
   43MOL     O428648   3.307   2.215   8.301  0.1485 -0.1190 -0.2632
   43MOL     C528649   3.222   2.433   0.049 -0.1434 -0.5767  0.2083
   43MOL     C628650   3.248   2.560   0.101 -0.1424 -1.1452 -0.0598
   43MOL     C728651   3.372   2.584   0.164  0.6546  0.0463  0.0152
   43MOL     C828652   3.398   2.713   0.234 -0.2811 -0.7621 -1.1696
   43MOL     O928653   3.330   2.817   0.217 -0.0991 -0.0004 -0.1390
   43MOL    C1028654   3.509   2.724   0.327 -0.5784 -0.0975 -0.4134
   43MOL    C1128655   3.520   2.635   0.439  1.0648 -0.0599 -0.1451
   43MOL    C1228656   3.617   2.648   0.535 -0.0866 -0.4417 -0.3499
   43MOL    C1328657   3.714   2.752   0.528 -0.3638  0.3472 -0.3704
   43MOL    O1428658   3.818   2.762   0.618  0.6209 -0.1751  0.1630
   43MOL    C1528659   3.906   2.656   0.619  1.0954  0.0544 -0.3396
   43MOL    C1628660   3.917   2.573   0.739 -0.7320  0.2299  0.0453
   43MOL    C1728661   4.003   2.462   0.742 -0.3580 -0.5341  0.1519
   43MOL    C1828662   4.092   2.446   0.633  0.3112 -0.6403 -0.3545
   43MOL    C1928663   4.080   2.518   0.511 -0.4227 -0.5249 -0.1022
   43MOL    C2028664   3.989   2.622   0.510 -0.6960 -0.0311 -0.1636
   43MOL    C2128665   3.714   2.832   0.409  0.0548  0.1910  0.2756
   43MOL    C2228666   3.611   2.820   0.312  0.9207  0.5994  0.0292
   43MOL    H2328667   3.575   2.512   0.184 -0.0639 -0.5493  0.2728
   43MOL    H2428668   3.530   2.283   0.092 -0.3716 -0.4299 -3.1178
   43MOL    H2528669   3.123   2.405   0.013  0.1476  0.4707 -1.4899
   43MOL    H2628670   3.165   2.629   0.099  0.5024 -0.3135  1.4091
   43MOL    H2728671   3.449   2.555   0.449  0.0489  0.6918 -1.2683
   43MOL    H2828672   3.621   2.594   0.629 -3.1558 -0.3183 -0.0913
   43MOL    H2928673   3.845   2.596   0.817 -0.4780  1.8446 -0.1820
   43MOL    H3028674   4.007   2.408   0.836  0.6238 -1.7981 -0.6069
   43MOL    H3128675   4.144   2.500   0.425  1.3804 -1.8160  1.4810
   43MOL    H3228676   3.977   2.682   0.421 -1.0607 -0.5056 -0.4402
   43MOL    H3328677   3.784   2.913   0.394  0.6098 -0.6138 -1.5895
   43MOL    H3428678   3.596   2.898   0.238 -0.5757  0.0113 -0.3117
   43MOL    H3528679   3.215   2.198   8.289 -0.2303 -0.5628  2.7072
   43MOL    C3628680   4.022   2.040   0.512  0.2570 -0.1793 -0.5376
   43MOL    C3728681   4.041   2.173   0.560  0.0127 -0.2396 -0.2221
   43MOL    C3828682   4.176   2.226   0.580  0.0789 -0.7512  0.1765
   43MOL    O3928683   4.193   2.354   0.635 -0.2152  0.0286 -0.2439
   43MOL    C4028684   4.280   2.138   0.548 -0.1166  0.2511 -0.7047
   43MOL    C4128685   4.260   2.005   0.500  0.2799  0.0260 -1.0070
   43MOL    C4228686   4.129   1.957   0.476 -0.5940 -0.2557  0.0246
   43MOL    C4328687   4.100   1.814   0.457 -0.3412 -0.0139  0.3522
   43MOL    O4428688   4.168   1.728   0.522 -0.1258  0.0950  0.3026
   43MOL    C4528689   3.994   1.776   0.358 -0.4394  0.2000  0.1243
   43MOL    C4628690   3.931   1.650   0.367  0.4205 -0.1791 -0.0401
   43MOL    C4728691   3.829   1.611   0.279  0.4234  0.4075 -0.0575
   43MOL    C4828692   3.786   1.694   0.182  0.5172 -0.7909 -0.6894
   43MOL    O4928693   3.697   1.662   0.085  0.4458 -0.4413  0.5343
   43MOL    C5028694   3.736   1.568   8.308  0.2373  0.4950 -0.3370
   43MOL    C5128695   3.711   1.429   0.016 -0.8250 -0.6716 -0.5186
   43MOL    C5228696   3.758   1.331   8.236  0.8858 -0.2131 -0.2944
   43MOL    C5328697   3.835   1.378   8.125  0.4752 -0.2789 -0.1789
   43MOL    C5428698   3.861   1.518   8.102  0.0648  0.1976 -0.3528
   43MOL    C5528699   3.811   1.610   8.199 -0.2681  0.8829  0.8203
   43MOL    C5628700   3.850   1.816   0.165 -0.1882  0.4732  0.1713
   43MOL    C5728701   3.950   1.861   0.254 -0.2136  0.1826  0.7344
   43MOL    H5828702   3.917   2.013   0.504  0.1052 -0.9681  3.3978
   43MOL    H5928703   3.961   2.245   0.575 -1.0564 -1.6311  0.9785
   43MOL    H6028704   4.382   2.164   0.569 -0.2320 -0.7663  1.2579
   43MOL    H6128705   4.349   1.944   0.491  0.1998 -0.2095 -0.2598
   43MOL    H6228706   3.964   1.589   0.450 -0.0994 -0.2257  0.1326
   43MOL    H6328707   3.785   1.514   0.297 -1.0736  0.8795 -1.0724
   43MOL    H6428708   3.648   1.402   0.099 -1.4695  0.9758 -0.4578
   43MOL    H6528709   3.741   1.225   8.253  1.5172 -0.3073 -0.2479
   43MOL    H6628710   3.926   1.551   8.023 -0.4859  1.5086 -0.2760
   43MOL    H6728711   3.824   1.714   8.173 -0.6729  0.2350 -2.1347
   43MOL    H6828712   3.811   1.889   0.095  0.7709  2.7922  1.9919
   43MOL    H6928713   3.987   1.963   0.246  2.5061 -0.8347 -0.0563
   43MOL    C7028714   3.765   1.013   7.826 -0.4558 -0.1826 -0.7872
   43MOL    C7128715   3.847   1.095   7.902 -0.4541 -0.0071  0.5151
   43MOL    C7228716   3.799   1.210   7.971 -0.5371 -0.1384 -0.3146
   43MOL    O7328717   3.892   1.285   8.045  0.2309  0.0684 -0.6164
   43MOL    C7428718   3.663   1.243   7.941 -0.0741  0.2297 -0.6706
   43MOL    C7528719   3.581   1.165   7.866  0.5703 -0.2891  0.4162
   43MOL    C7628720   3.627   1.043   7.816 -0.1152  0.3554 -0.0818
   43MOL    C7728721   3.544   0.944   7.739  0.5353 -0.2757  0.5521
   43MOL    O7828722   3.523   0.828   7.780 -0.3144 -0.7351  0.2428
   43MOL    C7928723   3.511   0.981   7.603 -0.2262  0.5695  0.3653
   43MOL    C8028724   3.585   1.069   7.514  0.1255 -0.0476  0.2578
   43MOL    C8128725   3.532   1.098   7.384 -0.1357 -0.0803 -0.6511
   43MOL    C8228726   3.413   1.046   7.339  0.5889  0.9285 -0.3157
   43MOL    O8328727   3.350   1.087   7.230  0.5979  0.1290  0.3629
   43MOL    C8428728   3.416   1.067   7.109  0.0920  0.5301 -0.0688
   43MOL    C8528729   3.502   1.166   7.055 -0.7423  0.1117  0.3822
   43MOL    C8628730   3.564   1.145   6.931  0.3215  0.2696  0.3662
   43MOL    C8728731   3.532   1.033   6.848 -0.6440  0.2414 -0.4500
   43MOL    C8828732   3.440   0.941   6.898  0.3117  0.0859 -0.3178
   43MOL    C8928733   3.378   0.960   7.024 -0.0994 -0.1335  0.3264
   43MOL    C9028734   3.350   0.947   7.419 -0.6037 -1.0421 -0.0301
   43MOL    C9128735   3.396   0.915   7.546  0.1016 -0.0737 -0.2235
   43MOL    H9228736   3.807   0.924   7.780  0.1937 -0.5493  0.4883
   43MOL    H9328737   3.953   1.077   7.915 -0.7657 -2.5745 -0.1730
   43MOL    H9428738   3.629   1.334   7.988 -1.4877 -0.8118  0.3547
   43MOL    H9528739   3.477   1.194   7.856  0.4695 -1.1803 -1.3190
   43MOL    H9628740   3.667   1.127   7.555 -0.6361  2.5803 -1.8068
   43MOL    H9728741   3.581   1.165   7.315 -0.0649  0.1899 -0.3395
   43MOL    H9828742   3.524   1.258   7.106 -0.4597  0.9921 -1.2733
   43MOL    H9928743   3.626   1.227   6.899 -0.1457  1.2814  2.0007
   43MOL   H10028744   3.407   0.860   6.835 -0.3605  0.8540 -0.9593
   43MOL   H10128745   3.289   0.902   7.043  1.2640 -1.9137  1.3789
   43MOL   H10228746   3.271   0.891   7.371 -1.7604  0.6670 -0.1577
   43MOL   H10328747   3.346   0.840   7.605  0.2245 -1.5760 -1.9641
   43MOL   C10428748   3.779   0.709   6.663 -0.0857 -0.2340 -0.1875
   43MOL   C10528749   3.737   0.827   6.722 -0.3812 -0.2519  0.7254
   43MOL   C10628750   3.617   0.888   6.683  0.1263 -0.6767 -0.0909
   43MOL   O10728751   3.587   1.011   6.728  0.1770  0.0147  0.0890
   43MOL   C10828752   3.528   0.821   6.606 -0.5094 -0.7894  0.2237
   43MOL   C10928753   3.559   0.692   6.568 -0.5223 -0.3650 -0.1930
   43MOL   C11028754   3.685   0.634   6.587 -0.6682 -0.7331 -0.5735
   43MOL   C11128755   3.696   0.495   6.556 -0.2677 -1.2640  0.5425
   43MOL   O11228756   3.623   0.410   6.600  0.1586 -0.2210 -0.0231
   43MOL   C11328757   3.812   0.457   6.469 -0.8321  0.1246 -0.1723
   43MOL   C11428758   3.878   0.539   6.379 -0.5690  0.6902 -0.3684
   43MOL   C11528759   3.986   0.495   6.299  0.4047 -0.0699  0.2241
   43MOL   C11628760   4.026   0.359   6.302 -0.8927 -0.6744  0.1192
   43MOL   O11728761   4.122   0.319   6.205 -0.3257  0.4909  0.1538
   43MOL   C11828762   4.215   0.224   6.231  0.5471 -0.7846 -1.0031
   43MOL   C11928763   4.209   0.109   6.153  0.8862 -0.1066 -0.1308
   43MOL   C12028764   4.292   0.003   6.169 -0.5114  0.7326 -0.3171
   43MOL   C12128765   4.392   0.010   6.266 -0.2167 -0.1599 -0.5456
   43MOL   C12228766   4.398   0.124   6.347  0.3292  0.3970  0.1402
   43MOL   C12328767   4.310   0.232   6.328  0.2009 -0.6202 -0.3497
   43MOL   C12428768   3.957   0.268   6.384  0.3605 -0.0576 -0.2545
   43MOL   C12528769   3.855   0.318   6.468 -0.1698  0.2479  0.6024
   43MOL   H12628770   3.875   0.666   6.687 -0.0032  0.4409  0.7159
   43MOL   H12728771   3.795   0.879   6.797 -0.0670 -0.5425  0.6818
   43MOL   H12828772   3.436   0.870   6.579  0.9235  2.0722  0.3195
   43MOL   H12928773   3.490   0.638   6.506 -2.3364  0.1096  1.3468
   43MOL   H13028774   3.844   0.642   6.377 -1.5119  0.3783 -1.8122
   43MOL   H13128775   4.044   0.565   6.241  0.2665 -0.4588 -0.3958
   43MOL   H13228776   4.138   0.097   6.073  0.7913 -0.8673  0.0600
   43MOL   H13328777   4.274   8.232   6.103 -0.1039  1.2253 -1.0597
   43MOL   H13428778   4.467   0.133   6.430 -1.3878 -1.1822  1.7878
   43MOL   H13528779   4.314   0.321   6.389  2.1921 -2.1002  1.7925
   43MOL   H13628780   3.988   0.165   6.375  0.2768 -0.2353  1.3139
   43MOL   H13728781   3.801   0.246   6.526 -1.5660  1.0255  0.2848
   43MOL   C13828782   4.554   7.965   6.042  1.3230 -0.8531  0.3573
   43MOL   C13928783   4.545   8.094   6.100  0.2305  0.6358 -0.4963
   43MOL   C14028784   4.475   8.106   6.224  0.4060  0.4988 -0.1983
   43MOL   O14128785   4.475   8.221   6.296 -0.3872 -0.0207  0.5288
   43MOL   C14228786   4.398   7.999   6.271  0.1518  0.1371  0.2310
   43MOL   C14328787   4.400   7.873   6.207  0.8255 -0.1291  0.6503
   43MOL   C14428788   4.482   7.858   6.090  0.4539 -0.2420 -0.2058
   43MOL   C14528789   4.483   7.731   6.006 -0.0652 -0.6048  0.0687
   43MOL   O14628790   4.463   7.738   5.884  0.6105 -0.1802  0.5590
   43MOL   C14728791   4.506   7.601   6.075 -0.5267 -0.8900 -0.7077
   43MOL   C14828792   4.455   7.481   6.017 -0.2186  0.5242 -0.3990
   43MOL   C14928793   4.473   7.353   6.089 -0.3615  0.1715  0.2394
   43MOL   C15028794   4.545   7.356   6.210 -0.4887 -0.3737  0.4534
   43MOL   O15128795   4.566   7.240   6.275 -0.2443 -0.3393  0.1197
   43MOL   C15228796   4.452   7.181   6.308  0.6297  0.0368 -0.0469
   43MOL   C15328797   4.336   7.241   6.366  0.4418  0.1659  0.4542
   43MOL   C15428798   4.223   7.164   6.386  0.3550 -0.5051  0.4045
   43MOL   C15528799   4.223   7.023   6.366 -0.2199  0.0006  0.2786
   43MOL   C15628800   4.338   6.968   6.309 -0.1075  0.2159 -1.0174
   43MOL   C15728801   4.452   7.043   6.279  0.4284 -0.2413  0.1829
   43MOL   C15828802   4.605   7.478   6.252  0.0184  0.2415 -0.0016
   43MOL   C15928803   4.587   7.596   6.187  0.6039 -0.2484 -0.1834
   43MOL   H16028804   4.616   7.956   5.954  0.0841 -0.1807 -0.6104
   43MOL   H16128805   4.604   8.171   6.052  1.6095 -0.8926 -1.2856
   43MOL   H16228806   4.340   8.014   6.361 -0.8737  0.0369 -0.4021
   43MOL   H16328807   4.344   7.788   6.242  1.7678  0.2305  3.1721
   43MOL   H16428808   4.409   7.463   5.921 -1.0026  1.4662 -0.2048
   43MOL   H16528809   4.437   7.257   6.054  0.3838 -0.4650  1.1781
   43MOL   H16628810   4.333   7.349   6.366  0.4864  0.1665  0.2954
   43MOL   H16728811   4.132   7.207   6.425  1.0523 -0.8502  2.4933
   43MOL   H16828812   4.339   6.862   6.286 -2.0863  0.3704 -1.9218
   43MOL   H16928813   4.527   6.996   6.217 -1.2099 -0.7386 -1.4879
   43MOL   H17028814   4.657   7.482   6.347 -0.4784 -1.9186  0.3746
   43MOL   H17128815   4.638   7.681   6.229  2.8807 -1.2239 -0.8750
   43MOL   C17228816   3.787   7.076   6.277  0.1891  0.1020 -0.3984
   43MOL   C17328817   3.919   7.021   6.279 -0.5125 -0.2477  0.5728
   43MOL   C17428818   3.991   6.998   6.398 -0.3354 -0.1381 -0.5264
   43MOL   O17528819   4.117   6.942   6.391  0.1574  0.8097 -0.4245
   43MOL   C17628820   3.919   7.024   6.519 -0.2288 -0.7751 -0.9069
   43MOL   C17728821   3.787   7.075   6.523  0.3810 -0.0913  0.0455
   43MOL   C17828822   3.715   7.090   6.401  0.2290  0.4129  0.4172
   43MOL   C17928823   3.574   7.132   6.401  0.3233  0.8820 -0.4902
   43MOL   O18028824   3.543   7.245   6.433  0.7004 -0.3465  0.7101
   43MOL   C18128825   3.473   7.031   6.353  0.0868 -0.3067  0.5893
   43MOL   C18228826   3.482   6.899   6.401  0.2209  0.8388 -0.3152
   43MOL   C18328827   3.391   6.798   6.361  0.3728  0.2097  0.0244
   43MOL   C18428828   3.290   6.830   6.270  0.2103  0.8153 -0.1123
   43MOL   O18528829   3.202   6.739   6.218  0.2108  0.0020 -0.3598
   43MOL   C18628830   3.124   6.672   6.313 -0.0150  0.2372  0.0135
   43MOL   C18728831   3.052   6.741   6.414  0.8236  0.2882 -0.2386
   43MOL   C18828832   2.971   6.672   6.505 -0.5450 -1.0284  0.6950
   43MOL   C18928833   2.972   6.527   6.498  0.4797 -0.2823  0.4743
   43MOL   C19028834   3.036   6.458   6.400  0.6624  0.3446 -0.1265
   43MOL   C19128835   3.103   6.530   6.300 -0.2723  0.2894 -0.2395
   43MOL   C19228836   3.288   6.963   6.225  0.3035  0.3744 -0.1180
   43MOL   C19328837   3.372   7.064   6.264  0.2997 -0.0015 -0.5020
   43MOL   H19428838   3.743   7.093   6.180 -0.5633  1.9336  0.2521
   43MOL   H19528839   3.971   6.992   6.189  0.8602  0.4620  1.1245
   43MOL   H19628840   3.975   7.020   6.612 -1.8141  1.9520  0.2060
   43MOL   H19728841   3.745   7.107   6.617  0.0734  0.6742 -0.3425
   43MOL   H19828842   3.562   6.860   6.461 -0.7384 -1.3614 -0.4132
   43MOL   H19928843   3.413   6.695   6.386  0.8328  0.3094  0.0346
   43MOL   H20028844   3.074   6.844   6.435 -3.2625  1.2165 -0.1698
   43MOL   H20128845   2.914   6.725   6.579  1.2245  1.0047  0.6560
   43MOL   H20228846   3.017   6.352   6.385  0.2292  0.4730 -0.4927
   43MOL   H20328847   3.142   6.491   6.207 -0.5554  1.2603 -0.7698
   43MOL   H20428848   3.206   6.990   6.160 -0.3008  0.6415  0.7518
   43MOL   H20528849   3.354   7.162   6.222 -0.2265  0.7353  1.3895
   43MOL   C20628850   2.545   6.595   6.547 -0.2469  0.2282  0.1960
   43MOL   C20728851   2.682   6.560   6.519  0.1751  0.1240 -0.8355
   43MOL   C20828852   2.764   6.479   6.604 -0.1789  0.3084 -0.2563
   43MOL   O20928853   2.893   6.450   6.583  0.4395 -0.3039  0.0468
   43MOL   C21028854   2.705   6.427   6.724 -0.0073 -0.1715  0.2228
   43MOL   C21128855   2.572   6.454   6.753 -0.4780 -0.2092 -0.6641
   43MOL   C21228856   2.487   6.526   6.661  0.0078 -0.5108  0.4924
   43MOL   C21328857   2.347   6.543   6.701 -0.5585  0.7421  0.1476
   43MOL   O21428858   2.285   6.643   6.663  0.5173  0.1906  0.3098
   43MOL   C21528859   2.278   6.442   6.773 -1.0960 -0.2253 -0.4749
   43MOL   C21628860   2.185   6.483   6.872 -0.1338 -0.1249  1.0466
   43MOL   C21728861   2.116   6.387   6.949 -0.0242  0.0137  0.5737
   43MOL   C21828862   2.160   6.255   6.943 -0.1110  0.3596 -0.5602
   43MOL   O21928863   2.108   6.152   7.018 -0.1612  0.2687 -0.1534
   43MOL   C22028864   2.148   6.145   7.148 -0.5513  0.0674  0.4086
   43MOL   C22128865   2.072   6.198   7.250  0.5763 -0.4084  0.6502
   43MOL   C22228866   2.121   6.211   7.375 -0.6963  0.4179 -0.5718
   43MOL   C22328867   2.242   6.150   7.417  0.2244 -0.0806 -0.3114
   43MOL   C22428868   2.316   6.092   7.318 -0.6642  0.2820  0.1433
   43MOL   C22528869   2.275   6.101   7.180  0.7461  0.7741 -0.6222
   43MOL   C22628870   2.240   6.214   6.839 -0.3598  0.5109  0.1523
   43MOL   C22728871   2.296   6.307   6.754  0.2365  0.2792  0.0567
   43MOL   H22828872   2.479   6.652   6.484 -1.5945  1.8399  3.0104
   43MOL   H22928873   2.721   6.590   6.422 -1.1677 -2.2861 -2.1621
   43MOL   H23028874   2.756   6.358   6.789  0.7401 -1.6603 -1.8727
   43MOL   H23128875   2.531   6.419   6.846  1.2701 -1.0027 -0.1797
   43MOL   H23228876   2.170   6.588   6.890  3.1846  0.5299  0.3981
   43MOL   H23328877   2.038   6.411   7.019 -0.8583 -0.6103 -0.1268
   43MOL   H23428878   1.976   6.244   7.230  1.4662  1.6726  1.0566
   43MOL   H23528879   2.062   6.262   7.450 -0.9723  0.0506 -0.5420
   43MOL   H23628880   2.409   6.048   7.350 -1.0502 -2.0885 -1.8299
   43MOL   H23728881   2.342   6.060   7.106 -1.8397  0.2700 -2.7686
   43MOL   H23828882   2.269   6.110   6.830  1.8868  1.1778 -0.6671
   43MOL   H23928883   2.363   6.271   6.677  0.4575  2.6452 -0.9156
   43MOL   C24028884   2.577   6.049   7.725 -0.1183 -0.0425 -0.0053
   43MOL   C24128885   2.502   6.129   7.636  0.0957 -0.4590 -0.3300
   43MOL   C24228886   2.371   6.087   7.602 -0.2724  0.2414 -0.4249
   43MOL   O24328887   2.286   6.171   7.551 -0.0252 -0.1520 -0.0829
   43MOL   C24428888   2.316   5.968   7.655 -0.4702 -0.1017  0.5804
   43MOL   C24528889   2.399   5.878   7.732  0.1839 -0.8078  0.9130
   43MOL   C24628890   2.529   5.916   7.762 -0.0928 -0.0977  0.3632
   43MOL   C24728891   2.617   5.827   7.839  0.6969  0.0465 -0.1856
   43MOL   O24828892   2.648   5.856   7.954  0.4555  0.2771 -0.1903
   43MOL   C24928893   2.679   5.708   7.770 -0.1835 -0.1049 -0.1032
   43MOL   C25028894   2.766   5.628   7.851  0.2397 -0.1789  0.8767
   43MOL   C25128895   2.829   5.522   7.781  0.4449  0.1882 -0.6322
   43MOL   C25228896   2.802   5.489   7.650 -0.2187  0.9916 -0.0725
   43MOL   O25328897   2.874   5.390   7.590 -0.3605  0.3000 -0.3090
   43MOL   C25428898   2.807   5.299   7.514  0.3891 -0.7949  0.3118
   43MOL   C25528899   2.852   5.255   7.389 -0.2730  0.4970  0.4575
   43MOL   C25628900   2.791   5.148   7.329 -0.0454 -0.1574  0.4187
   43MOL   C25728901   2.685   5.080   7.388  0.7053  0.3702 -0.0329
   43MOL   C25828902   2.637   5.125   7.513  0.3390  0.4381 -0.5577
   43MOL   C25928903   2.695   5.233   7.579  0.2862  0.3300 -0.0345
   43MOL   C26028904   2.703   5.562   7.580  0.1997 -0.1765 -0.6485
   43MOL   C26128905   2.652   5.678   7.637  0.0327 -0.2444 -0.1112
   43MOL   H26228906   2.665   6.094   7.767 -0.1872  0.8284 -0.7866
   43MOL   H26328907   2.532   6.230   7.613  0.4909 -0.2114  1.2573
   43MOL   H26428908   2.210   5.955   7.642 -0.7240 -0.1950  2.5811
   43MOL   H26528909   2.349   5.790   7.770  1.5652 -1.3348  1.5413
   43MOL   H26628910   2.792   5.649   7.954 -0.4458 -0.3239  1.0783
   43MOL   H26728911   2.912   5.478   7.834 -1.1600 -0.1385  1.7128
   43MOL   H26828912   2.935   5.303   7.341  1.4583  1.1893  3.9847
   43MOL   H26928913   2.838   5.113   7.238 -0.2471 -0.6359  0.4974
   43MOL   H27028914   2.559   5.068   7.562  0.1165 -1.3718 -2.9477
   43MOL   H27128915   2.672   5.249   7.683 -0.1705  1.3607 -0.2923
   43MOL   H27228916   2.687   5.536   7.476 -0.4297 -2.5042 -0.0067
   43MOL   H27328917   2.586   5.744   7.584  0.0550  0.4426  0.6914
   43MOL   C27428918   2.762   4.681   7.529 -0.7856  0.5923  0.0572
   43MOL   C27528919   2.758   4.805   7.461  0.4384  0.0146  0.8691
   43MOL   C27628920   2.634   4.848   7.405  0.3366  0.0300 -0.4997
   43MOL   O27728921   2.628   4.963   7.338  0.4447 -0.7113  0.2976
   43MOL   C27828922   2.515   4.768   7.425  0.1674  0.6950  0.5211
   43MOL   C27928923   2.522   4.646   7.495  0.7303  0.8227 -0.2675
   43MOL   C28028924   2.647   4.602   7.547  0.2742  0.2619  0.2249
   43MOL   C28128925   2.644   4.478   7.632  0.6221 -0.3526  0.1313
   43MOL   O28228926   2.540   4.429   7.665 -0.0202  0.6576  0.4579
   43MOL   C28328927   2.776   4.432   7.692 -0.8042 -0.2897  0.1028
   43MOL   C28428928   2.798   4.434   7.833 -0.3399  0.5898 -0.0327
   43MOL   C28528929   2.934   4.407   7.880  0.9472 -0.1004 -0.0314
   43MOL   C28628930   3.039   4.376   7.792 -0.0691 -0.7415 -0.4464
   43MOL   O28728931   3.170   4.360   7.838  0.0114  0.5035  0.6677
   43MOL   C28828932   3.200   4.242   7.899 -0.5776 -0.1477  0.2271
   43MOL   C28928933   3.154   4.115   7.855  0.0636 -0.7739  0.4069
   43MOL   C29028934   3.197   4.003   7.928 -0.2062  0.2360 -0.0765
   43MOL   C29128935   3.300   4.011   8.021 -0.2022 -0.0628  0.4637
   43MOL   C29228936   3.351   4.134   8.062  0.0276  0.3233  0.2002
   43MOL   C29328937   3.298   4.248   8.000 -0.3226  0.1964  0.3053
   43MOL   C29428938   3.014   4.366   7.656  0.2781 -0.1333 -0.4258
   43MOL   C29528939   2.885   4.393   7.610 -0.0292  0.0667  0.2793
   43MOL   H29628940   2.862   4.651   7.557 -1.4063 -1.3992  0.1847
   43MOL   H29728941   2.846   4.865   7.443  0.4635 -0.1528  0.4256
   43MOL   H29828942   2.417   4.785   7.381  0.2305  0.0432  0.1238
   43MOL   H29928943   2.431   4.587   7.496  0.9968  0.3846 -1.2019
   43MOL   H30028944   2.715   4.457   7.899 -1.7789 -1.8892 -0.9158
   43MOL   H30128945   2.958   4.409   7.986  0.1216  0.3997  0.1523
   43MOL   H30228946   3.084   4.097   7.775  1.1360 -0.6951 -0.5609
   43MOL   H30328947   3.155   3.906   7.905 -0.0034 -0.2919  1.7513
   43MOL   H30428948   3.434   4.148   8.129  1.0624  2.9221 -1.5356
   43MOL   H30528949   3.330   4.344   8.039  1.8992 -0.5883  0.4678
   43MOL   H30628950   3.089   4.349   7.580 -0.1805 -0.3452 -0.8294
   43MOL   H30728951   2.875   4.399   7.503 -1.2902 -2.7802  0.1807
   43MOL   C30828952   3.636   3.793   7.879  0.2257 -0.3968 -0.7115
   43MOL   C30928953   3.515   3.857   7.918 -0.6102  0.0420  0.3535
   43MOL   C31028954   3.461   3.835   8.046 -0.6712  0.3586  0.7219
   43MOL   O31128955   3.344   3.897   8.088  0.1097  0.2689  0.5389
   43MOL   C31228956   3.533   3.765   8.143 -0.6725 -0.4987  0.3231
   43MOL   C31328957   3.648   3.692   8.103 -0.1597  0.0276 -0.2192
   43MOL   C31428958   3.700   3.706   7.970  0.2304  0.3121 -0.0205
   43MOL   C31528959   3.813   3.622   7.921  0.0142  0.3230 -0.3007
   43MOL   O31628960   3.813   3.585   7.802  0.5350  0.1836  0.7668
   43MOL   C31728961   3.936   3.602   8.006 -0.4727  0.6382 -0.2407
   43MOL   C31828962   4.016   3.485   7.985 -0.2063  0.3884  0.8083
   43MOL   C31928963   4.117   3.451   8.073 -0.2356 -0.1667  0.7681
   43MOL   C32028964   4.151   3.539   8.177  0.1297  0.9409  0.1917
   43MOL   O32128965   4.248   3.481   8.257 -0.4320  0.6601 -0.6173
   43MOL   C32228966   4.302   3.554   0.051  0.5202  0.5084 -0.0370
   43MOL   C32328967   4.397   3.653   0.025 -0.1386  0.5857  0.3077
   43MOL   C32428968   4.461   3.716   0.133 -0.1095  0.0811 -0.2357
   43MOL   C32528969   4.418   3.692   0.268  0.7516 -0.2574  0.6729
   43MOL   C32628970   4.318   3.598   0.293 -0.3994 -0.0926 -0.0483
   43MOL   C32728971   4.265   3.521   0.185 -0.2505 -0.3378 -0.6673
   43MOL   C32828972   4.074   3.655   8.199 -0.6284  0.4189 -0.3961
   43MOL   C32928973   3.963   3.682   8.114 -0.4463 -0.5019 -0.6452
   43MOL   H33028974   3.679   3.802   7.780  1.5167 -0.8677 -0.2038
   43MOL   H33128975   3.465   3.915   7.842 -2.7124 -0.9624  0.9342
   43MOL   H33228976   3.509   3.765   8.248  0.5124  0.7495  0.6057
   43MOL   H33328977   3.704   3.627   8.169  2.5295  4.3464  1.9240
   43MOL   H33428978   4.005   3.412   7.906  1.8359 -0.1867  1.0360
   43MOL   H33528979   4.163   3.355   8.057  1.6719  0.8524 -0.0771
   43MOL   H33628980   4.432   3.666   8.236 -1.5301 -2.1058 -0.5673
   43MOL   H33728981   4.534   3.788   0.101 -1.5867  0.3083 -3.2361
   43MOL   H33828982   4.296   3.569   0.394  1.9174  0.2336  0.5778
   43MOL   H33928983   4.189   3.447   0.203 -0.7927  0.5130  0.6236
   43MOL   H34028984   4.086   3.729   8.277  2.1732 -1.6157  1.1961
   43MOL   H34128985   3.901   3.762   8.150 -1.7660 -2.4471  1.6188
   43MOL   C34228986   4.344   3.896   0.683  0.4040  0.2071 -0.5366
   43MOL   C34328987   4.395   3.882   0.551 -0.8165  0.2429  0.1092
   43MOL   C34428988   4.446   3.761   0.499  0.8760  0.0951  0.5300
   43MOL   O34528989   4.501   3.746   0.369  0.2684  0.7840 -0.3266
   43MOL   C34628990   4.456   3.656   0.593 -0.1077 -0.2324 -0.2741
   43MOL   C34728991   4.423   3.667   0.732 -0.4545 -0.2543  0.2046
   43MOL   C34828992   4.358   3.789   0.773  0.2905 -0.3108  0.6206
   43MOL   C34928993   4.292   3.801   0.908 -0.0842  0.0988  0.0859
   43MOL   O35028994   4.190   3.871   0.910 -0.3556 -0.4487  0.1200
   43MOL   C35128995   4.339   3.729   1.029 -0.2365 -0.1254 -0.3360
   43MOL   C35228996   4.473   3.681   1.049 -0.2770  0.8001  0.1910
   43MOL   C35328997   4.502   3.608   1.163  0.1912 -0.2136  0.1030
   43MOL   C35428998   4.410   3.586   1.263 -0.3717 -0.2258  0.2202
   43MOL   O35528999   4.439   3.504   1.369  0.3830 -0.3819 -0.0148
   43MOL   C35629000   4.451   3.550   1.495  0.5274 -0.4036 -0.3561
   43MOL   C35729001   4.541   3.653   1.530  0.0626 -0.2499 -0.1468
   43MOL   C35829002   4.560   3.688   1.667 -0.2409 -0.4836  0.7381
   43MOL   C35929003   4.474   3.634   1.763  0.4951 -0.6522  0.5151
   43MOL   C36029004   4.383   3.533   1.731  0.1230 -0.0121 -0.3177
   43MOL   C36129005   4.371   3.492   1.593 -0.2854  0.5766 -0.3480
   43MOL   C36229006   4.289   3.658   1.262 -0.1793  0.4266  0.2742
   43MOL   C36329007   4.254   3.727   1.141  0.6637 -0.2576 -0.2334
   43MOL   H36429008   4.298   3.990   0.707  1.1048  0.9517 -2.0720
   43MOL   H36529009   4.397   3.975   0.495 -0.1721 -0.6534 -1.3925
   43MOL   H36629010   4.498   3.564   0.556 -2.0974 -2.1094  1.9266
   43MOL   H36729011   4.430   3.581   0.797  1.9575  0.4816  0.9825
   43MOL   H36829012   4.555   3.690   0.980  1.5693 -2.5478  1.8268
   43MOL   H36929013   4.603   3.569   1.161  0.4652  0.4646  0.6655
   43MOL   H37029014   4.611   3.696   1.459 -1.2987  1.5231 -0.4530
   43MOL   H37129015   4.636   3.762   1.686  0.3261 -0.5357 -1.2123
   43MOL   H37229016   4.337   3.469   1.805 -0.3863  1.3367  0.5373
   43MOL   H37329017   4.311   3.407   1.564  1.4348 -0.7865  0.0812
   43MOL   H37429018   4.209   3.647   1.334 -1.4597  1.8280 -0.8888
   43MOL   H37529019   4.152   3.760   1.127 -0.2009 -3.0602 -0.8169
   43MOL   C37629020   4.276   3.926   2.035 -0.3650  0.2740  1.4281
   43MOL   C37729021   4.317   3.809   1.974  0.2590  0.2559 -0.0221
   43MOL   C37829022   4.447   3.783   1.945 -0.1738  0.0427 -0.0172
   43MOL   O37929023   4.492   3.666   1.894 -0.1574  0.3692  0.1988
   43MOL   C38029024   4.541   3.878   1.992  1.1736  0.1836 -0.2456
   43MOL   C38129025   4.499   4.000   2.049 -0.9623  0.5417  0.3287
   43MOL   C38229026   4.367   4.030   2.063 -0.4533 -0.0635 -0.8015
   43MOL   C38329027   4.326   4.165   2.116  0.0295 -0.3710  0.3344
   43MOL   O38429028   4.398   4.269   2.121  0.1112  0.1364  0.2808
   43MOL   C38529029   4.193   4.166   2.181  0.1191  0.1785 -0.4462
   43MOL   C38629030   4.078   4.211   2.115  0.2019  0.0280 -0.4374
   43MOL   C38729031   3.948   4.197   2.178  0.5700 -0.4726 -0.1737
   43MOL   C38829032   3.945   4.147   2.306  0.0052  0.5085 -0.1901
   43MOL   O38929033   3.824   4.136   2.364 -0.2282  0.3662 -0.6441
   43MOL   C39029034   3.772   4.247   2.415 -0.7625 -0.1231  0.8455
   43MOL   C39129035   3.815   4.290   2.542  0.8689 -0.3950 -0.3342
   43MOL   C39229036   3.749   4.398   2.603  0.4172 -0.3835  0.1659
   43MOL   C39329037   3.635   4.458   2.534 -0.4143  0.9451  0.9472
   43MOL   C39429038   3.606   4.416   2.400 -0.4747 -0.7323 -0.4932
   43MOL   C39529039   3.680   4.313   2.342 -0.6494 -0.2424  0.1319
   43MOL   C39629040   4.057   4.105   2.372  0.0950 -0.3521 -0.0253
   43MOL   C39729041   4.184   4.113   2.317 -0.0218  0.0089  0.3572
   43MOL   H39829042   4.169   3.933   2.048 -1.1171 -0.9591 -3.1708
   43MOL   H39929043   4.245   3.732   1.949 -0.1166  0.4284  0.5058
   43MOL   H40029044   4.646   3.865   1.972  0.5987 -1.6978 -2.2692
   43MOL   H40129045   4.580   4.070   2.069  0.3889 -1.0264  0.4521
   43MOL   H40229046   4.090   4.262   2.021 -1.4460  0.5799 -0.3713
   43MOL   H40329047   3.862   4.230   2.122  0.7826  0.3602 -0.0136
   43MOL   H40429048   3.900   4.242   2.586  0.6927  0.5197  1.0302
   43MOL   H40529049   3.782   4.422   2.702  1.5749  1.2981 -0.6004
   43MOL   H40629050   3.525   4.469   2.353 -1.8202 -0.3273  2.1709
   43MOL   H40729051   3.644   4.279   2.246 -1.3552  2.2088 -0.5088
   43MOL   H40829052   4.050   4.070   2.474  3.3866  0.6347  0.5950
   43MOL   H40929053   4.281   4.087   2.359  0.6337  0.6712 -0.7325
   43MOL   C41029054   3.663   4.742   2.886  0.6285 -1.1642  0.1023
   43MOL   C41129055   3.640   4.711   2.755 -0.0194  0.0576 -0.4011
   43MOL   C41229056   3.584   4.583   2.721 -0.0547 -0.0839 -0.2998
   43MOL   O41329057   3.563   4.561   2.588 -0.0476 -0.1255  0.1301
   43MOL   C41429058   3.523   4.505   2.824  0.4558 -0.3233  0.1189
   43MOL   C41529059   3.532   4.546   2.957 -0.6246 -0.0549  0.4089
   43MOL   C41629060   3.608   4.657   2.987 -0.6286 -0.3807 -0.3077
   43MOL   C41729061   3.621   4.687   3.131  0.0336  0.5940  1.1362
   43MOL   O41829062   3.528   4.668   3.209  0.3661  0.2173  0.1315
   43MOL   C41929063   3.757   4.724   3.183  0.0768  0.6117  0.8514
   43MOL   C42029064   3.764   4.815   3.286  0.2756  0.3899 -0.5541
   43MOL   C42129065   3.891   4.849   3.344  0.0280 -0.6996  0.5775
   43MOL   C42229066   4.013   4.795   3.290 -0.3217  0.3525 -0.4826
   43MOL   O42329067   4.132   4.830   3.343 -0.2291  0.3139  0.3155
   43MOL   C42429068   4.182   4.746   3.436 -0.1673 -0.3833  0.2597
   43MOL   C42529069   4.314   4.705   3.418  0.4892 -0.0783 -0.0455
   43MOL   C42629070   4.375   4.619   3.508  0.2190  0.3652  0.9129
   43MOL   C42729071   4.298   4.570   3.617 -0.4369  0.1663  1.0173
   43MOL   C42829072   4.173   4.621   3.638  0.0193  1.2279  0.0973
   43MOL   C42929073   4.110   4.713   3.555 -0.3654  0.1376 -0.1631
   43MOL   C43029074   4.004   4.698   3.188  0.4721 -0.1079  0.2612
   43MOL   C43129075   3.879   4.669   3.129  0.2494 -0.3775 -0.3859
   43MOL   H43229076   3.697   4.841   2.911 -2.2818  0.6685 -2.7072
   43MOL   H43329077   3.664   4.778   2.673 -3.9955  0.6694 -1.1576
   43MOL   H43429078   3.464   4.417   2.808 -1.8320  0.7707  2.1509
   43MOL   H43529079   3.492   4.488   3.039  2.0983 -1.9777  0.4283
   43MOL   H43629080   3.670   4.853   3.323  0.0466 -1.9765  1.4733
   43MOL   H43729081   3.909   4.915   3.427  1.7151  0.9196 -1.0115
   43MOL   H43829082   4.362   4.746   3.330 -0.3254  1.0878  0.0501
   43MOL   H43929083   4.481   4.601   3.499 -0.1615 -0.3927 -2.6660
   43MOL   H44029084   4.115   4.602   3.728 -1.9568  1.3086 -1.1324
   43MOL   H44129085   4.015   4.757   3.583 -0.5606  1.6565 -3.0354
   43MOL   H44229086   4.096   4.652   3.155  0.9208 -0.3973  1.8729
   43MOL   H44329087   3.878   4.595   3.051 -1.7400 -0.4413 -0.3419
   43MOL   C44429088   4.553   4.189   3.626 -0.5496 -0.2594  0.5340
   43MOL   C44529089   4.439   4.274   3.636 -0.1725  0.0007 -0.3301
   43MOL   C44629090   4.457   4.408   3.685  0.0186  0.5105  0.2179
   43MOL   O44729091   4.350   4.486   3.716 -0.3754  0.3245  0.7130
   43MOL   C44829092   4.586   4.456   3.716 -0.1373 -0.3239 -0.0579
   43MOL   C44929093   4.699   4.373   3.697  0.0823 -0.1320  0.4319
   43MOL   C45029094   4.684   4.238   3.659 -0.3726  0.8667 -0.5734
   43MOL   C45129095   4.798   4.149   3.640  1.0277 -0.0100 -0.0701
   43MOL   O45229096   4.814   4.100   3.528 -0.1777 -0.6289  0.2958
   43MOL   C45329097   4.877   4.107   3.765  0.1253  0.3586 -0.3967
   43MOL   C45429098   4.824   4.130   3.902  0.4218  0.2764 -0.0350
   43MOL   C45529099   4.885   4.054   4.009 -0.6042 -0.5569  0.2515
   43MOL   C45629100   4.997   3.972   3.989  0.6133  0.3338 -0.0209
   43MOL   O45729101   5.031   3.897   4.097 -0.0985  0.5931  0.1631
   43MOL   C45829102   5.159   3.851   4.099 -0.5476  0.7699 -0.0763
   43MOL   C45929103   5.188   3.711   4.111  0.5482 -0.3622  0.4408
   43MOL   C46029104   5.325   3.670   4.112  0.5970  0.6225  0.5466
   43MOL   C46129105   5.427   3.764   4.104 -0.2237  0.5381 -0.3275
   43MOL   C46229106   5.396   3.898   4.091  0.7034 -0.5013 -0.7656
   43MOL   C46329107   5.261   3.940   4.097  0.0811 -0.7093  1.0302
   43MOL   C46429108   5.053   3.965   3.861  0.1432 -0.1809 -0.0976
   43MOL   C46529109   4.990   4.028   3.748  0.2906 -0.2119  0.0958
   43MOL   H46629110   4.560   4.088   3.589  0.9070 -0.0290  0.1773
   43MOL   H46729111   4.341   4.231   3.621 -0.2711  0.1893 -0.2332
   43MOL   H46829112   4.599   4.548   3.771 -2.2361  0.5815 -1.0381
   43MOL   H46929113   4.795   4.411   3.728 -0.9060  2.9392 -0.0499
   43MOL   H47029114   4.727   4.179   3.912  1.2283  2.1924 -1.3138
   43MOL   H47129115   4.831   4.052   4.102 -1.5877  2.4595 -0.2029
   43MOL   H47229116   5.107   3.640   4.108  0.3961 -0.1444 -0.5738
   43MOL   H47329117   5.345   3.565   4.096 -0.0925  0.9714 -3.1308
   43MOL   H47429118   5.474   3.972   4.090  1.1158 -0.8588  1.8062
   43MOL   H47529119   5.243   4.045   4.082  0.2987 -0.5918  1.5800
   43MOL   H47629120   5.136   3.897   3.847  1.0607  0.4648  1.9464
   43MOL   H47729121   5.035   4.023   3.649  1.8602  1.4303  0.6934
   43MOL   C47829122   5.711   3.643   3.780  0.3000  0.8233  0.9076
   43MOL   C47929123   5.632   3.714   3.874 -0.6610  0.1323  0.1075
   43MOL   C48029124   5.611   3.656   4.003 -0.0622  0.2663  0.7848
   43MOL   O48129125   5.556   3.727   4.103 -0.2835 -0.2217  0.1075
   43MOL   C48229126   5.659   3.529   4.037  0.2491  0.0800 -0.5394
   43MOL   C48329127   5.736   3.463   3.940  0.4200 -0.8111  0.4189
   43MOL   C48429128   5.774   3.521   3.815  0.1977  0.3528 -0.0269
   43MOL   C48529129   5.866   3.444   3.725 -0.1581 -0.0994 -0.3698
   43MOL   O48629130   5.983   3.467   3.720 -0.4871  0.1673  0.2903
   43MOL   C48729131   5.809   3.339   3.635 -0.3427  0.1457 -0.7126
   43MOL   C48829132   5.895   3.250   3.570  0.1328  0.1081  0.2995
   43MOL   C48929133   5.843   3.151   3.484 -0.2619  0.0998  0.3218
   43MOL   C49029134   5.708   3.135   3.459 -0.2603 -0.4098 -0.8323
   43MOL   O49129135   5.660   3.047   3.371  0.4280 -1.0012 -0.1488
   43MOL   C49229136   5.644   3.093   3.241 -0.1862 -0.2451  0.3986
   43MOL   C49329137   5.617   3.226   3.199 -0.0345  0.4169  0.2299
   43MOL   C49429138   5.614   3.255   3.058 -0.2438  0.2645 -0.7242
   43MOL   C49529139   5.632   3.159   2.964 -0.2805  1.0092  1.2459
   43MOL   C49629140   5.659   3.029   3.010  0.3639 -0.1804  0.5122
   43MOL   C49729141   5.664   2.996   3.143 -0.1361  0.2687  0.6842
   43MOL   C49829142   5.620   3.223   3.529 -0.1092  0.1937  0.1321
   43MOL   C49929143   5.667   3.324   3.613 -0.0208  0.3316 -0.1440
   43MOL   H50029144   5.724   3.692   3.684 -0.3827 -1.5375 -0.4420
   43MOL   H50129145   5.593   3.811   3.847 -0.8232  0.2923  0.8902
   43MOL   H50229146   5.637   3.485   4.133  1.2897  2.0369  0.6339
   43MOL   H50329147   5.792   3.372   3.959  2.9595 -0.1264 -3.2169
   43MOL   H50429148   6.002   3.254   3.589  0.1642 -0.2574  0.2039
   43MOL   H50529149   5.921   3.094   3.437  1.5993  1.0287  2.1788
   43MOL   H50629150   5.591   3.295   3.278 -1.4921 -0.6477  0.7058
   43MOL   H50729151   5.579   3.355   3.037  0.9986  0.7551 -0.4821
   43MOL   H50829152   5.664   2.945   2.942 -1.2278  1.2100 -1.3901
   43MOL   H50929153   5.681   2.893   3.171  0.4314  0.0262 -0.5255
   43MOL   H51029154   5.513   3.223   3.514  0.0455 -0.5613 -1.0356
   43MOL   H51129155   5.602   3.395   3.662 -1.9963  0.2512 -2.5363
   43MOL   C51229156   5.719   3.439   2.591 -0.1518  0.6093  0.1269
   43MOL   C51329157   5.638   3.361   2.675 -0.5405 -0.2151 -0.0750
   43MOL   C51429158   5.689   3.269   2.764 -0.4778 -0.0764  0.2774
   43MOL   O51529159   5.603   3.185   2.830  0.3870  0.3148 -0.5501
   43MOL   C51629160   5.827   3.250   2.762  0.3410 -0.1827  0.6993
   43MOL   C51729161   5.914   3.331   2.684 -0.4694  0.1155  0.2650
   43MOL   C51829162   5.860   3.423   2.584 -0.1905 -0.2061 -0.8099
   43MOL   C51929163   5.932   3.514   2.494  0.2910 -0.2348 -0.4224
   43MOL   O52029164   5.880   3.593   2.415 -0.2319  0.5960  0.1932
   43MOL   C52129165   6.081   3.500   2.501 -0.6281  0.1263  0.5916
   43MOL   C52229166   6.156   3.397   2.438 -0.0638 -0.8499  0.2185
   43MOL   C52329167   6.296   3.402   2.428 -0.0849 -0.0547 -0.6761
   43MOL   C52429168   6.367   3.504   2.495  0.6035  0.1637  0.8660
   43MOL   O52529169   6.504   3.516   2.490  0.2291 -0.1270  0.3839
   43MOL   C52629170   6.552   3.548   2.360 -0.0457  0.3855  0.8534
   43MOL   C52729171   6.511   3.667   2.294  0.2059 -0.2218 -0.1009
   43MOL   C52829172   6.558   3.695   2.166  0.0593 -0.3769 -0.0448
   43MOL   C52929173   6.656   3.613   2.107 -0.1055 -0.1266  0.0316
   43MOL   C53029174   6.709   3.506   2.178 -0.5690 -0.2023  0.0786
   43MOL   C53129175   6.646   3.465   2.300 -0.6241 -0.5576 -1.0492
   43MOL   C53229176   6.292   3.611   2.541 -0.2630 -0.7436 -0.0157
   43MOL   C53329177   6.148   3.610   2.549 -0.6763 -0.1290  0.2864
   43MOL   H53429178   5.666   3.501   2.520 -1.8197  0.8155  1.5099
   43MOL   H53529179   5.533   3.385   2.681 -0.4836  0.1074 -0.3293
   43MOL   H53629180   5.865   3.181   2.835  0.3476 -1.1264 -0.1803
   43MOL   H53729181   6.022   3.320   2.687 -0.6126 -1.1201  1.4498
   43MOL   H53829182   6.109   3.319   2.379 -1.9699 -0.0785  0.6746
   43MOL   H53929183   6.347   3.339   2.358  0.7399  0.9856 -1.0283
   43MOL   H54029184   6.431   3.725   2.338  1.2982 -0.1945  1.8888
   43MOL   H54129185   6.520   3.780   2.110 -1.8745 -0.7742  0.6219
   43MOL   H54229186   6.778   3.433   2.137 -0.1041  0.2272  0.1038
   43MOL   H54329187   6.682   3.381   2.358 -0.2681  1.7153  2.1492
   43MOL   H54429188   6.347   3.691   2.589  0.6166 -2.3679  1.7791
   43MOL   H54529189   6.096   3.694   2.591 -0.9096  0.8197 -1.8349
   43MOL   C54629190   7.058   3.710   1.970 -0.8948  0.0828  0.2487
   43MOL   C54729191   6.920   3.734   1.976  0.0673 -1.1525 -0.8200
   43MOL   C54829192   6.830   3.627   1.955  0.5879 -0.2739  0.4185
   43MOL   O54929193   6.697   3.631   1.977 -0.4825  0.4599  0.1023
   43MOL   C55029194   6.879   3.500   1.925  0.6933  0.9017 -0.7140
   43MOL   C55129195   7.020   3.478   1.916  0.5731 -0.0026 -0.3426
   43MOL   C55229196   7.111   3.582   1.941 -0.1573  0.3937  0.7811
   43MOL   C55329197   7.258   3.564   1.928 -0.6052 -0.0326 -0.2450
   43MOL   O55429198   7.335   3.658   1.900 -0.7503 -0.2772 -0.0170
   43MOL   C55529199   7.311   3.428   1.933 -0.2566 -0.4562 -0.4001
   43MOL   C55629200   7.281   3.338   1.828 -0.3109  0.9876 -0.6081
   43MOL   C55729201   7.328   3.213   1.835  0.9249 -0.6614  0.5188
   43MOL   C55829202   7.412   3.168   1.947 -0.1725 -0.0020  0.0959
   43MOL   O55929203   7.465   3.042   1.958 -0.3386 -0.0718  0.3104
   43MOL   C56029204   7.604   3.042   1.946 -0.1839 -0.0928  0.2446
   43MOL   C56129205   7.678   2.965   2.037 -0.3693 -0.6691  0.1400
   43MOL   C56229206   7.821   2.965   2.023 -0.9738 -0.7821  0.0534
   43MOL   C56329207   7.888   3.045   1.926  0.5432  0.1784  0.6064
   43MOL   C56429208   7.812   3.116   1.829  0.3236 -0.7615  0.3298
   43MOL   C56529209   7.669   3.122   1.847  0.3152  0.5024 -0.1275
   43MOL   C56629210   7.440   3.261   2.057 -0.1842  0.5079 -0.2826
   43MOL   C56729211   7.384   3.388   2.053 -0.2289  0.6821  0.3395
   43MOL   H56829212   7.125   3.793   1.984  1.2499 -1.3659 -1.0677
   43MOL   H56929213   6.871   3.829   1.993 -0.1444 -1.4137  0.0516
   43MOL   H57029214   6.804   3.423   1.913  1.1574  0.5544 -1.4084
   43MOL   H57129215   7.046   3.375   1.898  0.4933 -0.1165  0.1735
   43MOL   H57229216   7.228   3.371   1.740  0.4674  1.2713 -0.9756
   43MOL   H57329217   7.308   3.144   1.755 -0.3127 -1.1194  1.2050
   43MOL   H57429218   7.641   2.901   2.115  0.6403  0.8813  1.9172
   43MOL   H57529219   7.884   2.904   2.086  2.5567  2.4554 -0.1430
   43MOL   H57629220   7.865   3.164   1.748  0.6109 -1.4298  0.1223
   43MOL   H57729221   7.602   3.166   1.775 -0.2276 -0.6488 -0.3365
   43MOL   H57829222   7.514   3.230   2.129 -3.0990 -3.5535  1.1658
   43MOL   H57929223   7.414   3.448   2.137 -1.8919  0.7310  0.9314
   43MOL   C58029224   8.310   3.009   1.691  0.4980  0.0368 -0.1242
   43MOL   C58129225   8.220   3.068   1.786  0.4139  0.4531 -0.4058
   43MOL   C58229226   8.098   3.003   1.815  0.4363  0.4147 -0.7471
   43MOL   O58329227   8.026   3.046   1.921  0.1546 -0.5967 -0.3083
   43MOL   C58429228   8.066   2.883   1.744  0.5214  0.8046 -0.1465
   43MOL   C58529229   8.156   2.826   1.649 -0.6061 -0.0057  0.6500
   43MOL   C58629230   8.286   2.884   1.633 -0.1105 -0.5756  0.0688
   43MOL   C58729231   0.073   2.828   1.540 -0.1777  0.7343 -0.8167
   43MOL   O58829232   0.191   2.829   1.567  0.1123 -0.2229  0.3347
   43MOL   C58929233   0.013   2.770   1.413  0.2178  0.4754 -0.2806
   43MOL   C59029234   0.033   2.633   1.391 -0.3156 -0.8344  0.1869
   43MOL   C59129235   8.297   2.571   1.269 -0.2014  0.0766  0.3073
   43MOL   C59229236   8.226   2.649   1.171 -0.6056 -0.1441 -0.2522
   43MOL   O59329237   8.180   2.587   1.058  0.0810  0.1889  0.3169
   43MOL   C59429238   8.045   2.556   1.043 -0.2468 -0.6050  0.1711
   43MOL   C59529239   7.953   2.575   1.149  0.1180 -0.1153  0.5735
   43MOL   C59629240   7.815   2.547   1.123 -0.0986 -0.2643  0.0946
   43MOL   C59729241   7.767   2.515   0.993 -0.9859 -0.0979  0.4160
   43MOL   C59829242   7.861   2.496   0.888 -0.2482  0.5709 -0.1882
   43MOL   C59929243   8.002   2.506   0.917 -0.3989  0.5130  0.0781
   43MOL   C60029244   8.211   2.783   1.197  0.4048  0.1918  0.4027
   43MOL   C60129245   8.261   2.842   1.319 -0.6413 -0.2734 -0.2970
   43MOL   H60229246   0.087   3.062   1.664 -0.1309  0.9266 -0.5079
   43MOL   H60329247   8.244   3.160   1.839  0.2922  0.2197  0.0608
   43MOL   H60429248   7.970   2.834   1.746  0.0022  1.8599  1.3906
   43MOL   H60529249   8.132   2.729   1.608  0.4096  0.1343 -0.3139
   43MOL   H60629250   0.074   2.558   1.458  0.8652 -0.0180  0.3768
   43MOL   H60729251   8.312   2.466   1.249  1.2537  0.7264 -2.2683
   43MOL   H60829252   7.991   2.601   1.247  0.8852 -2.3489  0.9010
   43MOL   H60929253   7.740   2.554   1.201 -0.7140  0.0763 -0.5203
   43MOL   H61029254   7.824   2.463   0.792  2.4558 -1.5577 -0.5344
   43MOL   H61129255   8.075   2.493   0.837  1.9070  1.7460  1.9077
   43MOL   H61229256   8.164   2.851   1.128  0.7523  1.1672  1.1185
   43MOL   H61329257   8.243   2.946   1.341 -1.1323 -0.7008  1.3406
   43MOL   C61429258   7.443   2.783   1.105 -0.6864 -0.1652 -0.6135
   43MOL   C61529259   7.507   2.660   1.085 -0.2104 -0.3361 -0.1439
   43MOL   C61629260   7.568   2.619   0.963 -0.0654  0.6224 -0.8625
   43MOL   O61729261   7.635   2.498   0.965  0.0073 -0.1560 -0.1696
   43MOL   C61829262   7.571   2.714   0.858  0.5321 -0.0270 -1.0456
   43MOL   C61929263   7.512   2.840   0.876  0.1500  0.0091  0.0591
   43MOL   C62029264   7.449   2.876   0.996 -0.3389 -0.1870 -0.5021
   43MOL   C62129265   7.392   3.014   1.007 -0.7357  0.4162  0.1286
   43MOL   O62229266   7.368   3.060   1.117  0.1630  0.0183 -0.2437
   43MOL   C62329267   7.337   3.082   0.884 -0.3041 -0.3099 -0.1580
   43MOL   C62429268   7.430   3.142   0.789  0.0267 -0.3183  0.1324
   43MOL   C62529269   7.373   3.205   0.675  0.0702  0.6065 -0.4186
   43MOL   C62629270   7.234   3.221   0.664 -0.5591 -0.1966 -0.3470
   43MOL   O62729271   7.188   3.291   0.557  0.2379 -0.1468 -0.6634
   43MOL   C62829272   7.115   3.405   0.572 -0.5933  0.0732  0.1610
   43MOL   C62929273   6.986   3.403   0.514  0.2541 -0.1752  0.5973
   43MOL   C63029274   6.913   3.520   0.500  0.1777 -0.6083  0.4258
   43MOL   C63129275   6.979   3.641   0.541  0.6843 -0.1720  0.5081
   43MOL   C63229276   7.100   3.638   0.613 -0.2594 -0.7608 -0.0458
   43MOL   C63329277   7.164   3.520   0.639  0.6523 -0.1088  0.2762
   43MOL   C63429278   7.151   3.155   0.751 -0.4592  0.0276 -0.6187
   43MOL   C63529279   7.199   3.092   0.869  0.4904 -0.0802  0.6873
   43MOL   H63629280   7.395   2.814   1.197 -0.1657  0.1342 -0.4342
   43MOL   H63729281   7.502   2.592   1.168  2.4542  2.7513  2.6799
   43MOL   H63829282   7.626   2.690   0.768  0.7705 -1.8511 -0.4351
   43MOL   H63929283   7.513   2.905   0.789 -0.1323 -1.5270 -1.1103
   43MOL   H64029284   7.537   3.141   0.803  0.3381  1.0767 -2.0091
   43MOL   H64129285   7.432   3.249   0.597  1.4695  0.3714  0.4860
   43MOL   H64229286   6.957   3.314   0.460  1.5404 -1.7552  2.4617
   43MOL   H64329287   6.821   3.531   0.445  0.2585  1.4759  0.6888
   43MOL   H64429288   7.145   3.728   0.654  0.5881 -1.4082  0.4485
   43MOL   H64529289   7.261   3.521   0.687  0.2712  0.5452  1.0450
   43MOL   H64629290   7.045   3.165   0.729 -1.0342 -0.1329  1.9100
   43MOL   H64729291   7.133   3.055   0.945  1.2879 -1.9383  0.5072
   43MOL   C64829292   6.666   3.902   0.733 -0.0607 -0.1213  0.6175
   43MOL   C64929293   6.785   3.852   0.679 -0.0856  0.1053  0.0302
   43MOL   C65029294   6.789   3.779   0.561 -0.7057 -1.1736  0.3727
   43MOL   O65129295   6.916   3.760   0.516  0.4544 -0.3492 -0.1483
   43MOL   C65229296   6.671   3.747   0.498 -0.1514  0.8829  0.1231
   43MOL   C65329297   6.544   3.780   0.560 -0.2969 -0.0090 -0.1164
   43MOL   C65429298   6.542   3.861   0.674  0.1059  0.8533  0.2105
   43MOL   C65529299   6.417   3.918   0.735 -0.8307  0.6052 -0.0122
   43MOL   O65629300   6.429   4.033   0.786 -0.3158  0.4211 -0.5507
   43MOL   C65729301   6.278   3.861   0.718  0.0368  0.1653  0.3748
   43MOL   C65829302   6.166   3.949   0.715 -0.1863  0.4006  0.1081
   43MOL   C65929303   6.041   3.902   0.677 -0.2858 -1.2654 -0.6826
   43MOL   C66029304   6.018   3.762   0.673  0.5169  0.2726 -1.0859
   43MOL   O66129305   5.895   3.707   0.653  0.2210 -0.5584 -0.3112
   43MOL   C66229306   5.805   3.690   0.754  0.3028 -0.0155 -0.8638
   43MOL   C66329307   5.682   3.631   0.719  0.3599 -0.0033 -0.0128
   43MOL   C66429308   5.573   3.632   0.813 -0.0845  0.3331  1.1429
   43MOL   C66529309   5.590   3.691   0.938 -0.6194  0.5397 -0.3771
   43MOL   C66629310   5.714   3.741   0.974  0.1811 -0.8303  0.3623
   43MOL   C66729311   5.826   3.744   0.883  0.5355  0.0158  0.1768
   43MOL   C66829312   6.124   3.672   0.695  0.0087 -0.6636 -0.0003
   43MOL   C66929313   6.256   3.720   0.704  0.7554 -0.5460  0.2808
   43MOL   H67029314   6.687   3.964   0.819  2.0673 -0.5584  0.4206
   43MOL   H67129315   6.878   3.878   0.728  1.1325 -0.9812 -1.6608
   43MOL   H67229316   6.680   3.694   0.405  0.9457  1.7716 -0.2814
   43MOL   H67329317   6.453   3.747   0.513 -1.0319  0.6970  0.8012
   43MOL   H67429318   6.182   4.054   0.731 -0.0291  0.1423  1.7583
   43MOL   H67529319   5.957   3.969   0.663  0.3010 -0.7751 -1.9510
   43MOL   H67629320   5.659   3.589   0.622 -0.9732  0.5971  0.0390
   43MOL   H67729321   5.484   3.574   0.798 -0.1385  1.2765 -2.4982
   43MOL   H67829322   5.723   3.772   1.077  2.3624 -0.8906  0.2173
   43MOL   H67929323   5.922   3.779   0.920  0.6366 -2.9125  2.9281
   43MOL   H68029324   6.105   3.566   0.693 -0.9839 -0.5635  2.1281
   43MOL   H68129325   6.341   3.656   0.718  0.7663 -0.5064  0.3994
   43MOL   H68229326   5.518   3.697   1.018 -0.0333  1.1639  0.1153
   44MOL     C129327   4.670   4.139   7.082  0.6396  0.8708 -0.2961
   44MOL     C229328   4.745   4.183   6.970  0.3020  0.5216 -0.3981
   44MOL     C329329   4.797   4.087   6.884  0.9407  0.3092  0.3039
   44MOL     O429330   4.833   4.130   6.761  0.3444  0.6082  0.0121
   44MOL     C529331   4.796   3.951   6.923 -0.8467 -0.2248  0.3238
   44MOL     C629332   4.744   3.910   7.048 -0.1942 -0.0369  0.4609
   44MOL     C729333   4.670   4.006   7.122 -0.3234 -0.1122  0.4476
   44MOL     C829334   4.592   3.964   7.239  0.5564 -0.0603  0.1674
   44MOL     O929335   4.606   4.026   7.346 -0.6196 -0.4522 -0.1384
   44MOL    C1029336   4.506   3.839   7.234  0.3164 -0.1755  0.2916
   44MOL    C1129337   4.498   3.746   7.344  1.0774  0.5336 -0.6597
   44MOL    C1229338   4.427   3.625   7.327  0.8537 -0.4277  0.8722
   44MOL    C1329339   4.377   3.580   7.200 -0.8205 -0.4703 -0.1326
   44MOL    O1429340   4.322   3.456   7.187 -0.1881  0.2106  0.3972
   44MOL    C1529341   4.375   3.381   7.088 -0.5223 -0.2012  0.6150
   44MOL    C1629342   4.503   3.320   7.104  0.1410  0.1711  0.1086
   44MOL    C1729343   4.554   3.244   6.994  0.3110 -0.1328 -0.6450
   44MOL    C1829344   4.486   3.232   6.875  0.5197  0.1720 -0.0113
   44MOL    C1929345   4.358   3.288   6.864  0.5784 -0.2236  0.3060
   44MOL    C2029346   4.307   3.368   6.967 -0.6470  0.4537  0.0533
   44MOL    C2129347   4.383   3.676   7.091 -0.5316 -0.3830  0.0601
   44MOL    C2229348   4.446   3.800   7.112 -0.1238 -0.3711 -0.0729
   44MOL    H2329349   4.616   4.217   7.134 -2.3989 -1.0548 -0.4509
   44MOL    H2429350   4.744   4.284   6.931  3.2590  0.6107 -0.3589
   44MOL    H2529351   4.848   3.871   6.871 -1.4074  0.1151 -0.7723
   44MOL    H2629352   4.746   3.805   7.069 -1.1272  0.0273  0.8800
   44MOL    H2729353   4.558   3.775   7.429 -0.0492  0.4674  0.1600
   44MOL    H2829354   4.421   3.556   7.410 -1.9812 -0.4081  0.7177
   44MOL    H2929355   4.576   3.333   7.182  0.1237 -2.0191  0.5220
   44MOL    H3029356   4.640   3.181   7.011 -0.6434 -1.4200 -0.5900
   44MOL    H3129357   4.291   3.264   6.783 -2.0250  3.2092  1.2968
   44MOL    H3229358   4.210   3.415   6.971 -0.8407 -0.0325  0.9917
   44MOL    H3329359   4.337   3.655   6.996  1.1819  0.9666 -1.0928
   44MOL    H3429360   4.446   3.863   7.024 -0.4040 -0.8405 -0.4128
   44MOL    H3529361   4.780   4.200   6.726 -0.6912 -1.1970 -2.1923
   44MOL    C3629362   4.357   3.072   6.473  0.5322  0.0925 -0.8305
   44MOL    C3729363   4.399   3.062   6.605 -0.0140  0.0402 -0.0048
   44MOL    C3829364   4.491   3.157   6.651 -0.0675  0.1708 -0.9881
   44MOL    O3929365   4.535   3.150   6.782  0.3345  0.1215  0.0900
   44MOL    C4029366   4.539   3.255   6.566  0.3332  0.1302  1.3915
   44MOL    C4129367   4.499   3.262   6.432 -0.2928 -0.0355  0.1080
   44MOL    C4229368   4.403   3.171   6.384  0.0717 -1.0149  0.4472
   44MOL    C4329369   4.344   3.192   6.252 -0.1208  0.0944  0.4417
   44MOL    O4429370   4.411   3.183   6.151  0.1010  0.2059  0.2400
   44MOL    C4529371   4.206   3.229   6.250  0.3779  0.4856 -1.2102
   44MOL    C4629372   4.143   3.287   6.362  0.1674  0.2997  0.3390
   44MOL    C4729373   4.004   3.299   6.363 -0.2110 -0.3750  0.5733
   44MOL    C4829374   3.927   3.257   6.250  1.0662  0.0932  0.2198
   44MOL    O4929375   3.793   3.259   6.258 -0.3160  0.3386  0.4654
   44MOL    C5029376   3.731   3.378   6.232  0.1037 -0.3062  0.7485
   44MOL    C5129377   3.729   3.431   6.102  0.2447 -0.4031 -0.2082
   44MOL    C5229378   3.646   3.542   6.075  0.3060 -0.1163  0.2205
   44MOL    C5329379   3.566   3.598   6.179  0.9365  0.0988  0.4725
   44MOL    C5429380   3.577   3.543   6.309 -0.8826 -0.2427  0.3551
   44MOL    C5529381   3.656   3.433   6.340 -0.5603 -0.3640  0.1653
   44MOL    C5629382   3.993   3.212   6.140  0.4318 -0.4485 -0.5228
   44MOL    C5729383   4.130   3.200   6.136 -0.6617  0.6189 -0.7327
   44MOL    H5829384   4.288   3.001   6.429 -1.8681  1.4439  0.5940
   44MOL    H5929385   4.344   2.988   6.661  1.4381 -0.1347  1.2138
   44MOL    H6029386   4.610   3.332   6.593  1.7785 -1.6736  2.9179
   44MOL    H6129387   4.537   3.339   6.368  0.5617  0.8350  1.6320
   44MOL    H6229388   4.200   3.314   6.450  0.2904  0.6395  0.1572
   44MOL    H6329389   3.966   3.335   6.458  1.4924  1.6581  0.5295
   44MOL    H6429390   3.785   3.383   6.023  1.0402 -0.4321  0.3697
   44MOL    H6529391   3.643   3.577   5.973 -3.2990  0.7942  0.5883
   44MOL    H6629392   3.509   3.571   6.387 -2.0734 -1.2013 -0.3113
   44MOL    H6729393   3.664   3.402   6.443  1.6109  0.5747  0.2993
   44MOL    H6829394   3.927   3.189   6.057  0.4801 -2.5286 -0.0200
   44MOL    H6929395   4.180   3.157   6.050 -0.8830  1.2942 -1.2041
   44MOL    C7029396   3.190   3.748   6.369 -0.2820  0.2593 -0.1346
   44MOL    C7129397   3.282   3.688   6.278  0.0640  0.5299 -0.5449
   44MOL    C7229398   3.401   3.754   6.242 -0.5586 -0.4580  0.7684
   44MOL    O7329399   3.487   3.707   6.152  0.3001 -0.4693 -0.1963
   44MOL    C7429400   3.424   3.885   6.294  1.2323 -0.1200  0.2617
   44MOL    C7529401   3.332   3.939   6.388  0.0615  0.2964 -0.4665
   44MOL    C7629402   3.216   3.869   6.428  0.4569 -0.1719  0.3599
   44MOL    C7729403   3.124   3.936   6.516 -0.5513  0.0825 -1.0781
   44MOL    O7829404   3.004   3.947   6.495 -0.1816  1.0352  0.0963
   44MOL    C7929405   3.167   3.970   6.654 -0.3253 -0.6341 -0.4350
   44MOL    C8029406   3.094   4.063   6.732 -0.2733 -0.1380 -0.8215
   44MOL    C8129407   3.142   4.114   6.855 -0.3423  0.0267 -0.0549
   44MOL    C8229408   3.265   4.068   6.910 -0.2125 -0.2367 -0.2057
   44MOL    O8329409   3.311   4.110   7.028 -0.4563 -0.4769 -0.3177
   44MOL    C8429410   3.346   4.013   7.124  0.7377  0.5948  0.2941
   44MOL    C8529411   3.474   4.003   7.177 -0.0527 -0.1178 -0.3149
   44MOL    C8629412   3.511   3.896   7.262  0.7092  0.4411 -0.4300
   44MOL    C8729413   3.410   3.801   7.298 -0.7622 -0.6209 -0.4867
   44MOL    C8829414   3.277   3.823   7.263 -0.1538 -0.2375  0.2471
   44MOL    C8929415   3.247   3.926   7.177  0.0242 -1.0986  0.3378
   44MOL    C9029416   3.333   3.967   6.834  0.8330  0.2917 -0.5285
   44MOL    C9129417   3.288   3.927   6.708  0.2161  0.5379 -0.1183
   44MOL    H9229418   3.095   3.701   6.386  0.1859 -0.9412 -0.8142
   44MOL    H9329419   3.249   3.594   6.235  1.9570 -0.5123  0.2516
   44MOL    H9429420   3.518   3.935   6.276  1.1492 -0.6542 -1.8509
   44MOL    H9529421   3.344   4.039   6.426 -1.6505  0.6208 -0.7659
   44MOL    H9629422   3.004   4.099   6.685  0.8185  2.1373 -1.2192
   44MOL    H9729423   3.079   4.182   6.910 -1.4106 -1.6904  0.8916
   44MOL    H9829424   3.548   4.074   7.145  0.0474  0.6900  1.6049
   44MOL    H9929425   3.612   3.885   7.299  1.5309  1.8386 -2.1761
   44MOL   H10029426   3.202   3.751   7.293 -2.4466  1.0764 -2.0575
   44MOL   H10129427   3.148   3.930   7.133  0.1537  0.4979  0.1432
   44MOL   H10229428   3.422   3.920   6.875 -0.3840 -0.0782  1.7891
   44MOL   H10329429   3.345   3.850   6.659 -0.5187  0.2907 -0.5909
   44MOL   C10429430   3.356   3.340   7.326  0.5096 -0.3949 -0.6649
   44MOL   C10529431   3.350   3.473   7.380 -0.7136 -0.5314 -0.4248
   44MOL   C10629432   3.444   3.573   7.343 -0.0584 -0.0936  0.2110
   44MOL   O10729433   3.436   3.702   7.388  0.5873  0.5258 -0.5822
   44MOL   C10829434   3.551   3.540   7.249 -0.2316 -0.0934  0.3525
   44MOL   C10929435   3.545   3.409   7.189 -0.3588  0.5161  0.1603
   44MOL   C11029436   3.448   3.313   7.224 -0.0893  0.2023 -0.5519
   44MOL   C11129437   3.455   3.178   7.161 -0.0125 -0.4410  0.3325
   44MOL   O11229438   3.560   3.135   7.119  0.2782  0.0977 -0.3457
   44MOL   C11329439   3.326   3.106   7.146 -0.1807  0.8798  0.3692
   44MOL   C11429440   3.197   3.165   7.138  0.1351 -0.0268  0.8754
   44MOL   C11529441   3.084   3.082   7.123  0.0077  0.0211  0.4612
   44MOL   C11629442   3.092   2.944   7.116  1.1366 -0.4372  0.0683
   44MOL   O11729443   2.979   2.870   7.099  0.0222 -0.1558 -0.2693
   44MOL   C11829444   2.928   2.796   7.202 -0.3384  0.4487  0.9102
   44MOL   C11929445   2.989   2.676   7.220 -0.1682  0.3307 -0.1679
   44MOL   C12029446   2.952   2.594   7.330  0.7999  0.6375 -0.5315
   44MOL   C12129447   2.847   2.631   7.419 -0.0444 -0.2244 -0.5303
   44MOL   C12229448   2.782   2.752   7.389 -0.5068  0.0995 -0.8352
   44MOL   C12329449   2.818   2.837   7.285 -0.4205 -0.2777  0.7559
   44MOL   C12429450   3.220   2.886   7.108  0.0377 -0.2543 -0.3471
   44MOL   C12529451   3.333   2.967   7.125  0.2985 -0.0074 -0.2030
   44MOL   H12629452   3.286   3.265   7.357 -0.2457  0.4311 -0.3354
   44MOL   H12729453   3.290   3.489   7.468  0.6777 -2.8710  0.9969
   44MOL   H12829454   3.631   3.601   7.209 -0.9969  0.8200  0.1885
   44MOL   H12929455   3.618   3.385   7.113 -2.4999  0.8573 -2.0624
   44MOL   H13029456   3.172   3.270   7.131 -0.6601 -0.0096  3.3394
   44MOL   H13129457   2.987   3.126   7.108  0.4046 -0.0290 -2.5443
   44MOL   H13229458   3.071   2.662   7.152  0.2336  1.6333  0.0334
   44MOL   H13329459   3.007   2.506   7.360  1.1053  0.7426 -0.7890
   44MOL   H13429460   2.698   2.778   7.452 -0.2903  2.3115 -1.3980
   44MOL   H13529461   2.773   2.934   7.276  0.0555 -0.0597  0.7581
   44MOL   H13629462   3.220   2.778   7.111  3.6313 -0.2746  0.2117
   44MOL   H13729463   3.431   2.923   7.125 -0.6186 -2.1272 -1.2465
   44MOL   C13829464   2.763   2.712   7.850 -0.1202 -0.1726  0.2523
   44MOL   C13929465   2.833   2.654   7.749 -0.0399  0.7084  0.2873
   44MOL   C14029466   2.757   2.602   7.637  0.8019  0.5049  0.4373
   44MOL   O14129467   2.815   2.545   7.525  0.1916 -0.1066 -1.0110
   44MOL   C14229468   2.620   2.612   7.636 -0.2266  0.7214 -0.3110
   44MOL   C14329469   2.542   2.672   7.737 -0.5156  0.3170 -0.3455
   44MOL   C14429470   2.619   2.732   7.841 -0.2549  0.3155  0.1685
   44MOL   C14529471   2.545   2.817   7.943  0.2343 -0.0287 -0.3638
   44MOL   O14629472   2.570   2.809   8.062 -0.5744 -0.7452 -0.2937
   44MOL   C14729473   2.454   2.928   7.889 -0.3510  0.5744  0.2402
   44MOL   C14829474   2.344   2.965   7.968  0.0352 -0.4032  0.5086
   44MOL   C14929475   2.248   3.061   7.925 -1.0503 -0.2287 -0.4347
   44MOL   C15029476   2.269   3.126   7.806  0.4398 -0.0686 -0.5401
   44MOL   O15129477   2.183   3.225   7.763  0.2827  0.3203  0.4108
   44MOL   C15229478   2.065   3.194   7.693 -0.3009 -0.3296  0.4525
   44MOL   C15329479   2.045   3.072   7.627 -0.1447 -0.2688  0.0069
   44MOL   C15429480   1.933   3.058   7.541  0.5511  0.3172  0.1996
   44MOL   C15529481   1.832   3.153   7.537 -0.2867 -0.7901  0.0968
   44MOL   C15629482   1.854   3.274   7.605  0.2079  0.0516 -0.7773
   44MOL   C15729483   1.971   3.299   7.678 -0.2766 -0.2079 -0.2482
   44MOL   C15829484   2.375   3.092   7.719  0.2678  0.0218 -0.5191
   44MOL   C15929485   2.466   2.992   7.759  0.4530  0.5829  1.0021
   44MOL   H16029486   2.818   2.757   7.932  0.5574  0.2672 -0.4391
   44MOL   H16129487   2.940   2.660   7.758  0.1878 -2.9153  1.0435
   44MOL   H16229488   2.563   2.573   7.553  1.0764 -2.8741  0.3939
   44MOL   H16329489   2.436   2.686   7.729 -0.8856 -2.3675 -0.4981
   44MOL   H16429490   2.330   2.914   8.063  0.2887  1.5522  1.6211
   44MOL   H16529491   2.163   3.075   7.991 -0.1150 -1.9547  1.1748
   44MOL   H16629492   2.109   2.985   7.632 -1.2182 -1.2283 -2.0550
   44MOL   H16729493   1.921   2.969   7.480 -2.8166  1.4371 -0.8560
   44MOL   H16829494   1.773   3.345   7.598  0.5421  0.5269  0.1562
   44MOL   H16929495   1.986   3.392   7.730 -0.8635 -0.3354  0.1604
   44MOL   H17029496   2.396   3.132   7.621 -0.0206  0.3071 -0.4655
   44MOL   H17129497   2.530   2.951   7.684 -1.6528  0.7329 -0.9334
   44MOL   C17229498   1.649   3.022   7.123 -0.1505 -0.1194  0.3758
   44MOL   C17329499   1.642   3.041   7.261  0.8922  0.3420 -0.2651
   44MOL   C17429500   1.728   3.125   7.334 -0.1203 -0.2595  0.4683
   44MOL   O17529501   1.716   3.134   7.471 -0.3009  0.0794  0.1028
   44MOL   C17629502   1.834   3.186   7.263 -0.5451 -0.6500 -0.4694
   44MOL   C17729503   1.843   3.169   7.126  0.9047  0.1469  0.1032
   44MOL   C17829504   1.754   3.088   7.056 -0.6570 -0.2051 -0.3497
   44MOL   C17929505   1.785   3.070   6.914  0.0308  0.5665  0.4683
   44MOL   O18029506   1.897   3.078   6.871 -0.0172 -0.1133  0.2550
   44MOL   C18129507   1.663   3.051   6.824  0.2324  0.5044  0.2288
   44MOL   C18229508   1.535   3.103   6.851  0.0208 -0.4759 -0.3064
   44MOL   C18329509   1.429   3.074   6.769  0.4709 -0.1648  0.5857
   44MOL   C18429510   1.450   2.990   6.657  0.1537  0.0180  0.4430
   44MOL   O18529511   1.342   2.966   6.579  0.0513  0.1755  0.3966
   44MOL   C18629512   1.313   2.836   6.546 -0.9078 -0.5892 -0.4123
   44MOL   C18729513   1.268   2.747   6.644 -0.1407 -0.1717  0.4992
   44MOL   C18829514   1.228   2.623   6.608  1.3164 -0.3822  0.3636
   44MOL   C18929515   1.223   2.577   6.475  0.3798  0.0053  0.3392
   44MOL   C19029516   1.270   2.661   6.370  0.2626  0.0633  0.0763
   44MOL   C19129517   1.310   2.792   6.410 -0.4355 -0.5722 -0.2864
   44MOL   C19229518   1.574   2.939   6.630  0.1227 -0.2189  0.5001
   44MOL   C19329519   1.682   2.970   6.711  0.0868  0.0354  0.2422
   44MOL   H19429520   1.584   2.951   7.074 -0.7852 -0.4592  1.7051
   44MOL   H19529521   1.568   2.987   7.317  0.8610  0.0537 -0.5798
   44MOL   H19629522   1.907   3.251   7.309  0.6031  0.5890 -3.8504
   44MOL   H19729523   1.927   3.220   7.081  2.5192 -0.1984  2.6286
   44MOL   H19829524   1.521   3.166   6.938  0.0493  0.3306 -0.8886
   44MOL   H19929525   1.331   3.112   6.795  0.8456  1.0617  0.2034
   44MOL   H20029526   1.274   2.776   6.748 -0.2806 -1.3340  0.8343
   44MOL   H20129527   1.205   2.557   6.690  0.6018 -0.3339  0.2013
   44MOL   H20229528   1.249   2.632   6.268  0.8478  1.3346 -0.4142
   44MOL   H20329529   1.326   2.854   6.323 -1.9116 -0.3423 -0.3950
   44MOL   H20429530   1.583   2.870   6.547 -1.4239  2.9687 -2.4266
   44MOL   H20529531   1.779   2.925   6.694  1.5771  2.8877  1.0365
   44MOL   C20629532   0.816   2.544   6.362  0.7016  0.2103 -0.1653
   44MOL   C20729533   0.951   2.564   6.388 -0.1955 -0.3074 -0.9029
   44MOL   C20829534   1.029   2.450   6.426 -0.0869 -0.5927 -0.7947
   44MOL   O20929535   1.165   2.455   6.451 -0.1315  0.0443 -0.3423
   44MOL   C21029536   0.967   2.319   6.425 -0.1030 -0.6774  0.4120
   44MOL   C21129537   0.830   2.310   6.383 -0.4710  0.6640 -0.4794
   44MOL   C21229538   0.748   2.418   6.351 -0.2577 -0.0777 -0.6040
   44MOL   C21329539   0.605   2.413   6.312 -0.1366 -0.0538  0.0203
   44MOL   O21429540   0.539   2.510   6.291  0.2949 -0.0095 -0.3145
   44MOL   C21529541   0.548   2.272   6.305  0.1134 -0.4687 -0.0032
   44MOL   C21629542   0.433   2.248   6.376  0.0424  0.1956 -0.4573
   44MOL   C21729543   0.366   2.127   6.365 -0.1097  0.6615  0.3944
   44MOL   C21829544   0.411   2.029   6.276  0.1614  0.0829  0.2045
   44MOL   O21929545   0.349   1.910   6.268 -0.0880 -0.2131 -0.0642
   44MOL   C22029546   0.380   1.816   6.364 -0.5432 -1.0360 -0.1948
   44MOL   C22129547   0.305   1.808   6.483  0.5145 -1.0137 -0.8739
   44MOL   C22229548   0.332   1.705   6.573 -0.5722 -0.3831  0.4981
   44MOL   C22329549   0.433   1.610   6.548 -0.0739 -0.0025  0.6241
   44MOL   C22429550   0.516   1.621   6.433  0.5792 -0.1419 -0.5942
   44MOL   C22529551   0.485   1.726   6.337  0.2274 -0.0025  0.4244
   44MOL   C22629552   0.528   2.053   6.202  0.5802  1.0714 -0.3133
   44MOL   C22729553   0.602   2.173   6.218 -0.0746 -0.6164  0.0962
   44MOL   H22829554   0.750   2.623   6.331 -0.5474  0.0438  1.9122
   44MOL   H22929555   0.984   2.667   6.393  0.6401 -0.6358  0.5399
   44MOL   H23029556   1.031   2.235   6.449  0.3166 -0.5027 -0.0865
   44MOL   H23129557   0.795   2.208   6.388 -0.0164  0.5871  2.0708
   44MOL   H23229558   0.401   2.321   6.449  1.3797 -0.6155  0.9801
   44MOL   H23329559   0.278   2.110   6.424 -1.2547 -1.4881 -1.8534
   44MOL   H23429560   0.225   1.878   6.505 -1.3134 -3.0407 -0.8399
   44MOL   H23529561   0.284   1.697   6.670  0.9407  0.1523  1.3103
   44MOL   H23629562   0.601   1.555   6.433 -0.2510 -1.2327 -0.3503
   44MOL   H23729563   0.548   1.740   6.251  1.9642 -0.1376  1.6452
   44MOL   H23829564   0.565   1.988   6.125 -0.1098  0.1814  0.0896
   44MOL   H23929565   0.687   2.193   6.154 -0.8451 -0.2846 -0.8400
   44MOL   C24029566   0.472   1.555   7.000 -0.1617 -0.4785 -0.1030
   44MOL   C24129567   0.417   1.533   6.867 -0.1103 -0.4986  0.0969
   44MOL   C24229568   0.499   1.513   6.755  0.6269  0.6778 -0.2541
   44MOL   O24329569   0.447   1.500   6.627 -0.4126 -0.3528 -0.0960
   44MOL   C24429570   0.639   1.508   6.773 -0.1222  0.6631  0.4953
   44MOL   C24529571   0.692   1.513   6.904 -0.3797  0.0077  0.3368
   44MOL   C24629572   0.607   1.542   7.021 -0.4681 -0.0175 -0.0719
   44MOL   C24729573   0.687   1.551   7.147  0.6033  0.2167 -0.2758
   44MOL   O24829574   0.806   1.592   7.150  0.5156  0.1070  0.2417
   44MOL   C24929575   0.623   1.504   7.282  0.4455  0.7098 -0.2049
   44MOL   C25029576   0.656   1.562   7.410 -0.0232  0.1570  0.9359
   44MOL   C25129577   0.589   1.519   7.523  0.8872 -0.0017 -0.3133
   44MOL   C25229578   0.493   1.413   7.518 -0.3574 -0.0632  0.2541
   44MOL   O25329579   0.425   1.368   7.632  0.0542  0.0677 -0.3493
   44MOL   C25429580   0.390   1.242   7.644 -0.4059  0.0434 -0.2245
   44MOL   C25529581   0.248   1.216   7.642  0.9997  0.2349 -0.5271
   44MOL   C25629582   0.205   1.078   7.658 -0.5471 -0.8660 -0.0763
   44MOL   C25729583   0.303   0.982   7.686 -0.2109  0.3437 -0.1564
   44MOL   C25829584   0.439   1.015   7.702 -0.4321 -0.1202  1.3623
   44MOL   C25929585   0.487   1.144   7.677 -0.0737 -0.6372  0.0273
   44MOL   C26029586   0.462   1.356   7.394 -0.2000  0.1716 -0.0060
   44MOL   C26129587   0.537   1.397   7.282  0.5605 -0.1949  0.6238
   44MOL   H26229588   0.402   1.570   7.081  0.3737 -0.1054  0.2974
   44MOL   H26329589   0.311   1.550   6.856 -0.2832 -1.8738 -0.4269
   44MOL   H26429590   0.714   1.498   6.696 -0.2320  2.7432  0.0854
   44MOL   H26529591   0.799   1.499   6.907 -0.5210 -1.7814 -1.4698
   44MOL   H26629592   0.726   1.644   7.414  1.2593 -0.7960 -1.0789
   44MOL   H26729593   0.609   1.583   7.608  0.1609  1.3486 -1.1507
   44MOL   H26829594   0.175   1.288   7.609 -0.7189 -1.5358 -0.6962
   44MOL   H26929595   0.100   1.053   7.661 -1.4011  2.3678 -1.1709
   44MOL   H27029596   0.511   0.939   7.729  2.0498  1.7996  0.3426
   44MOL   H27129597   0.590   1.173   7.688 -0.0490 -0.5146 -0.5195
   44MOL   H27229598   0.388   1.277   7.390 -1.2088  0.9474  2.4796
   44MOL   H27329599   0.505   1.359   7.186  2.6954 -2.9352  0.9349
   44MOL   C27429600   0.378   0.503   7.754  0.0784  0.7585  0.1115
   44MOL   C27529601   0.308   0.624   7.778 -0.3471  0.2170  0.0964
   44MOL   C27629602   0.306   0.733   7.686 -0.4421 -0.1960  0.6391
   44MOL   O27729603   0.249   0.858   7.719  0.2273 -0.0168  0.3155
   44MOL   C27829604   0.375   0.713   7.565 -0.8373  0.7025 -0.5417
   44MOL   C27929605   0.440   0.587   7.537  0.1178  0.1648  0.1071
   44MOL   C28029606   0.443   0.484   7.630  0.5743  0.4855 -0.0793
   44MOL   C28129607   0.508   0.348   7.608  0.2338  0.1780  0.0908
   44MOL   O28229608   0.552   0.290   7.709  0.0632 -0.9223  0.1473
   44MOL   C28329609   0.505   0.291   7.469 -1.0924  0.2846 -0.6232
   44MOL   C28429610   0.597   0.191   7.435 -0.5887  0.4068  0.5521
   44MOL   C28529611   0.578   0.114   7.318  0.3593  0.1193 -0.5170
   44MOL   C28629612   0.465   0.134   7.232 -0.3275 -0.2247  0.0464
   44MOL   O28729613   0.443   0.062   7.116  0.2732  0.2209 -0.2905
   44MOL   C28829614   0.495   0.121   7.000  0.1006 -0.1872 -0.3832
   44MOL   C28929615   0.632   0.106   6.972  0.5480 -0.3884 -0.1969
   44MOL   C29029616   0.688   0.149   6.854 -0.0187  0.7909  0.2967
   44MOL   C29129617   0.604   0.188   6.745 -0.1246  0.2661  0.3603
   44MOL   C29229618   0.465   0.207   6.769 -0.3444 -0.2928  0.4749
   44MOL   C29329619   0.415   0.174   6.900 -0.2001 -0.0396  0.5812
   44MOL   C29429620   0.382   0.245   7.262  1.0197 -0.3465 -0.4738
   44MOL   C29529621   0.405   0.325   7.374  0.5181 -0.6031 -0.1169
   44MOL   H29629622   0.381   0.427   7.832 -3.3005  0.6793  0.2280
   44MOL   H29729623   0.275   0.632   7.880  0.1746 -2.6181  0.5218
   44MOL   H29829624   0.385   0.791   7.491 -0.2149 -0.3976 -1.6297
   44MOL   H29929625   0.487   0.574   7.441  0.8372  0.4896  0.4109
   44MOL   H30029626   0.684   0.177   7.498 -1.7261 -1.9821  1.6871
   44MOL   H30129627   0.639   0.027   7.299  2.0123  1.3003 -0.7158
   44MOL   H30229628   0.691   0.067   7.054  0.1172  0.7570  0.6718
   44MOL   H30329629   0.793   0.149   6.828  0.0883 -2.8404  0.3734
   44MOL   H30429630   0.401   0.252   6.696 -0.1390 -1.2528 -0.3109
   44MOL   H30529631   0.310   0.191   6.921 -0.1376  1.0217  0.1126
   44MOL   H30629632   0.298   0.271   7.199 -1.1356  1.7555  3.0746
   44MOL   H30729633   0.337   0.408   7.388  0.9145 -0.3345  0.2596
   44MOL   C30829634   0.514   0.521   6.449  0.2796  0.1525 -0.2035
   44MOL   C30929635   0.555   0.437   6.557  0.2019 -1.0732  0.2679
   44MOL   C31029636   0.603   0.311   6.529 -0.4727  0.1425 -0.6265
   44MOL   O31129637   0.661   0.228   6.623 -0.3140  0.0480 -0.5405
   44MOL   C31229638   0.606   0.268   6.395 -0.5981 -0.2573  0.0872
   44MOL   C31329639   0.565   0.350   6.287  0.3307 -0.2513  0.4058
   44MOL   C31429640   0.516   0.481   6.315 -0.7517 -0.3518 -0.0856
   44MOL   C31529641   0.480   0.568   6.205  0.0353  0.2452 -0.4107
   44MOL   O31629642   0.413   0.529   6.111 -0.5456  0.8239 -0.3945
   44MOL   C31729643   0.522   0.708   6.212 -0.1981  0.3974 -0.2067
   44MOL   C31829644   0.435   0.812   6.170 -0.4711  0.2405  0.3416
   44MOL   C31929645   0.461   0.949   6.181  0.0267  0.5922  0.4020
   44MOL   C32029646   0.592   0.980   6.230 -0.4000 -0.0772  0.2057
   44MOL   O32129647   0.638   1.109   6.248  0.5984  0.1191  0.3634
   44MOL   C32229648   0.566   1.216   6.194 -0.2726 -0.2560  0.0334
   44MOL   C32329649   0.584   1.256   6.064  0.1753 -0.7009  0.9723
   44MOL   C32429650   0.513   1.368   6.017 -0.4820  0.4227 -0.2800
   44MOL   C32529651   0.421   1.433   6.099  0.1855  0.1021 -0.3400
   44MOL   C32629652   0.393   1.386   6.226 -0.6878  0.2846 -0.5208
   44MOL   C32729653   0.467   1.274   6.274 -0.9137 -0.3243 -0.1113
   44MOL   C32829654   0.676   0.877   6.273  0.5403  0.0086 -0.6323
   44MOL   C32929655   0.647   0.736   6.268  0.1150 -0.4127 -0.2473
   44MOL   H33029656   0.464   0.613   6.478 -2.2168 -0.5547 -2.0498
   44MOL   H33129657   0.550   0.473   6.659  1.2530  1.2128 -0.4563
   44MOL   H33229658   0.653   0.173   6.376  0.0720 -0.2770  1.7283
   44MOL   H33329659   0.576   0.313   6.186  0.9479 -0.6453  0.6152
   44MOL   H33429660   0.339   0.787   6.128  0.5086 -0.7838 -1.3440
   44MOL   H33529661   0.392   1.023   6.145 -2.6244 -1.5646  0.8417
   44MOL   H33629662   0.669   1.219   6.009  1.8249  1.4406  1.9834
   44MOL   H33729663   0.533   1.399   5.915  1.0256  0.3175 -0.0315
   44MOL   H33829664   0.328   1.441   6.293 -2.4667  0.8351 -2.6162
   44MOL   H33929665   0.458   1.253   6.379  0.0175  2.4994  0.5486
   44MOL   H34029666   0.769   0.910   6.317  0.0089  0.1851  0.3695
   44MOL   H34129667   0.710   0.661   6.313 -0.6144 -0.5250  0.6165
   44MOL   C34229668   0.020   1.412   5.978 -0.3732  0.6287  0.2670
   44MOL   C34329669   0.160   1.424   5.971 -0.3626  0.0506 -0.0634
   44MOL   C34429670   0.219   1.536   6.033 -0.0518 -0.0101 -0.5093
   44MOL   O34529671   0.359   1.541   6.047  0.0085  0.0074 -1.1347
   44MOL   C34629672   0.144   1.635   6.096  0.0035 -0.0470  0.2072
   44MOL   C34729673   0.004   1.627   6.096 -0.0770  0.6664 -0.2713
   44MOL   C34829674   8.250   1.516   6.035 -0.5620  0.1324  0.7729
   44MOL   C34929675   8.103   1.501   6.039 -0.2765  0.5089  0.3933
   44MOL   O35029676   8.036   1.571   6.122  0.5999  0.2180  0.2638
   44MOL   C35129677   8.044   1.410   5.944 -0.6258  0.1365 -0.9645
   44MOL   C35229678   7.928   1.342   5.994  0.1251 -0.6608 -0.0653
   44MOL   C35329679   7.858   1.257   5.905  0.5456 -0.5396  0.5955
   44MOL   C35429680   7.901   1.238   5.770 -0.2114  0.9075  0.3830
   44MOL   O35529681   7.837   1.150   5.685 -0.7235 -0.5095 -0.3526
   44MOL   C35629682   7.883   1.019   5.694 -0.0796  0.2130  0.2330
   44MOL   C35729683   7.801   0.922   5.761 -0.7888  0.7597  0.1145
   44MOL   C35829684   7.843   0.793   5.778  0.9625 -0.2345  0.3598
   44MOL   C35929685   7.961   0.744   5.719 -0.1838 -0.0109 -0.1742
   44MOL   C36029686   8.043   0.840   5.648  0.5274 -0.3485 -0.6055
   44MOL   C36129687   8.002   0.974   5.637 -0.0804 -0.2120 -0.6508
   44MOL   C36229688   8.001   1.320   5.717  0.0072 -0.8005  0.6751
   44MOL   C36329689   8.077   1.396   5.809 -0.4082 -0.3683  0.3230
   44MOL   H36429690   8.278   1.323   5.951 -2.0137  1.2918  1.3160
   44MOL   H36529691   0.227   1.350   5.929  1.5539  1.8189 -0.2222
   44MOL   H36629692   0.184   1.722   6.144  1.2438 -1.5536  1.9646
   44MOL   H36729693   8.259   1.706   6.143  0.4542  0.4958  0.6835
   44MOL   H36829694   7.891   1.349   6.096  0.8213  1.7093  0.0451
   44MOL   H36929695   7.774   1.205   5.947 -1.7045  0.5606 -2.3509
   44MOL   H37029696   7.714   0.960   5.812 -0.2989  1.1232  0.6852
   44MOL   H37129697   7.791   0.724   5.842 -1.2948  0.1315 -1.0384
   44MOL   H37229698   8.135   0.813   5.598 -0.5262 -2.3379 -1.5184
   44MOL   H37329699   8.065   1.048   5.589  1.0875  0.6560  2.1043
   44MOL   H37429700   8.035   1.311   5.615  0.4172 -0.0182  0.7405
   44MOL   H37529701   8.156   1.452   5.762 -0.4228 -1.2554 -0.7602
   44MOL   C37629702   8.014   0.374   5.436 -0.1606  0.1450  0.7243
   44MOL   C37729703   8.048   0.447   5.551  0.9563 -0.4095 -0.0536
   44MOL   C37829704   7.953   0.543   5.603 -0.0782 -0.7230  0.8153
   44MOL   O37929705   7.987   0.610   5.715  0.2494 -0.7509  0.0715
   44MOL   C38029706   7.825   0.548   5.545 -0.2841  0.0417 -1.0374
   44MOL   C38129707   7.799   0.484   5.422 -0.4441  0.1425  0.3801
   44MOL   C38229708   7.888   0.384   5.367  0.2450  0.4389 -0.2873
   44MOL   C38329709   7.857   0.311   5.247 -0.6377  0.0509  0.4927
   44MOL   O38429710   7.771   0.348   5.173  0.3373 -0.1551 -0.1346
   44MOL   C38529711   7.935   0.189   5.212  0.0300  0.4532 -0.0752
   44MOL   C38629712   7.968   0.162   5.076  0.2590 -0.2093 -0.1166
   44MOL   C38729713   8.008   0.028   5.046  0.2166 -0.0052  0.7897
   44MOL   C38829714   8.043   8.252   5.145  0.2205 -0.0663  0.2300
   44MOL   O38929715   8.097   8.127   5.109  0.3902  0.4416 -0.6279
   44MOL   C39029716   8.222   8.122   5.054  0.0922 -0.0422  0.4657
   44MOL   C39129717   0.020   8.152   5.141  0.9039 -0.1313  0.2084
   44MOL   C39229718   0.148   8.145   5.085 -0.3288  0.1608  0.6429
   44MOL   C39329719   0.170   8.111   4.951  0.3009 -0.4556 -0.8223
   44MOL   C39429720   0.058   8.077   4.873  0.2190  0.2869  0.2032
   44MOL   C39529721   8.240   8.080   4.923 -0.9244 -0.1364  0.8644
   44MOL   C39629722   8.005   8.280   5.281  0.3793  0.2005  0.4499
   44MOL   C39729723   7.949   0.088   5.311  0.4034  0.2877 -0.7411
   44MOL   H39829724   8.097   0.316   5.397  0.8635  0.4389  2.4390
   44MOL   H39929725   8.141   0.430   5.603  1.5071  1.4975 -0.3910
   44MOL   H40029726   7.746   0.611   5.583 -3.1046 -1.9666 -3.4321
   44MOL   H40129727   7.717   0.527   5.368  0.0072  1.3464  0.6397
   44MOL   H40229728   7.953   0.236   4.998  1.3645  0.3777  0.2038
   44MOL   H40329729   8.045   0.010   4.946 -0.9722 -0.1672  0.3678
   44MOL   H40429730   0.008   8.169   5.247  0.8181 -0.5096  0.2563
   44MOL   H40529731   0.233   8.171   5.146 -0.0729  0.6032  0.1077
   44MOL   H40629732   0.083   8.052   4.771 -1.8506  1.0837 -0.5111
   44MOL   H40729733   8.154   8.043   4.869 -0.4813 -1.3134  0.9362
   44MOL   H40829734   8.004   8.206   5.360  0.9274  0.3380  0.5924
   44MOL   H40929735   7.922   0.104   5.414  1.2412  0.5776 -0.5697
   44MOL   C41029736   0.344   8.287   4.584  0.5911  0.1768 -0.6956
   44MOL   C41129737   0.323   8.187   4.677  0.2661  0.4866 -0.3356
   44MOL   C41229738   0.312   8.218   4.813  0.3752  0.1361  0.4785
   44MOL   O41329739   0.293   8.117   4.897 -0.2319  0.0136 -0.2669
   44MOL   C41429740   0.326   0.041   4.855  0.2258  0.0732 -0.1825
   44MOL   C41529741   0.346   0.149   4.763 -0.3860 -0.1370 -0.6363
   44MOL   C41629742   0.359   0.111   4.625 -0.4661  0.1215  0.3903
   44MOL   C41729743   0.373   0.215   4.523  0.7755  0.4795 -0.3486
   44MOL   O41829744   0.444   0.311   4.546  0.6541 -0.2832 -0.2913
   44MOL   C41929745   0.280   0.208   4.397 -0.4716  0.4667 -0.1246
   44MOL   C42029746   0.159   0.139   4.399  0.1965 -0.5050  0.0939
   44MOL   C42129747   0.086   0.124   4.280  0.4934 -0.4175  0.2242
   44MOL   C42229748   0.121   0.198   4.167  0.6184 -0.4571  0.6712
   44MOL   O42329749   0.043   0.193   4.051 -0.6707 -0.3506 -0.1534
   44MOL   C42429750   0.006   0.065   4.010  0.4507 -0.9856  0.0531
   44MOL   C42529751   8.189   0.022   4.029 -0.0082  0.2389  0.4517
   44MOL   C42629752   8.152   8.200   4.000 -0.2604  0.2589 -0.1876
   44MOL   C42729753   8.246   8.121   3.938  0.8390 -0.1798 -0.7267
   44MOL   C42829754   0.066   8.163   3.913  0.1507 -0.7217  0.5000
   44MOL   C42929755   0.100   8.296   3.948 -0.0323 -0.2599 -0.5183
   44MOL   C43029756   0.237   0.276   4.166 -0.5555 -0.1331 -0.2285
   44MOL   C43129757   0.321   0.278   4.281 -0.3398 -0.6393  0.4652
   44MOL   H43229758   0.340   8.260   4.480  1.4167  1.3055 -1.0212
   44MOL   H43329759   0.322   8.087   4.636  0.8901  0.6850 -0.8483
   44MOL   H43429760   0.323   0.061   4.961 -2.1591 -1.1829  0.0175
   44MOL   H43529761   0.352   0.251   4.798  0.5129 -0.5948  0.5528
   44MOL   H43629762   0.123   0.082   4.484  1.2526 -0.3129  0.6856
   44MOL   H43729763   8.298   0.085   4.286 -0.7188  2.3670 -0.8528
   44MOL   H43829764   8.122   0.094   4.072 -2.0340 -0.3955 -1.5260
   44MOL   H43929765   8.049   8.169   4.015 -0.2158  0.9232  1.5823
   44MOL   H44029766   0.144   8.094   3.885  0.5217 -0.8611  1.8217
   44MOL   H44129767   0.204   0.012   3.938 -0.9586  2.9413 -1.2723
   44MOL   H44229768   0.263   0.337   4.081  0.4337  0.6621  0.6348
   44MOL   H44329769   0.415   0.332   4.281 -0.6865  0.0045  2.1975
   44MOL   C44429770   0.118   7.723   3.819 -0.2685 -0.0566 -0.0779
   44MOL   C44529771   0.046   7.815   3.896 -0.9768 -0.6987  0.5531
   44MOL   C44629772   8.286   7.917   3.836 -0.5326  0.1689 -0.3954
   44MOL   O44729773   8.205   7.992   3.913 -0.3502 -0.3065  0.0040
   44MOL   C44829774   8.283   7.930   3.697  0.3300 -0.3994  0.1067
   44MOL   C44929775   0.048   7.836   3.613 -0.5186  0.3169 -0.5775
   44MOL   C45029776   0.129   7.739   3.678 -0.1476 -0.3775 -0.4640
   44MOL   C45129777   0.193   7.638   3.596 -0.3624  0.0608  0.3368
   44MOL   O45229778   0.244   7.535   3.639  0.1586 -0.5836  0.0650
   44MOL   C45329779   0.199   7.648   3.442  0.9987 -0.6248  0.0860
   44MOL   C45429780   0.121   7.556   3.363 -0.2763  0.1045 -0.2329
   44MOL   C45529781   0.120   7.565   3.226  0.5098  0.5442  0.3779
   44MOL   C45629782   0.200   7.656   3.158  0.4036  0.6114  0.1557
   44MOL   O45729783   0.207   7.654   3.023  0.7770 -0.1714  0.3979
   44MOL   C45829784   0.329   7.669   2.969 -0.2501 -0.5831 -0.3640
   44MOL   C45929785   0.431   7.574   2.983  0.1479 -0.0086  0.1117
   44MOL   C46029786   0.556   7.595   2.926 -0.6573 -0.2169 -0.7221
   44MOL   C46129787   0.582   7.708   2.843 -0.1277 -0.0858 -0.5069
   44MOL   C46229788   0.481   7.804   2.831 -0.0028 -0.5973  0.1162
   44MOL   C46329789   0.353   7.782   2.891 -0.3723 -0.1554  0.1957
   44MOL   C46429790   0.281   7.744   3.237 -0.1252  0.5523 -0.7281
   44MOL   C46529791   0.289   7.736   3.379  0.1318  0.1940  0.3507
   44MOL   H46629792   0.172   7.651   3.880  1.0393  0.5362 -0.5154
   44MOL   H46729793   0.058   7.802   4.002 -0.7084 -1.1510  0.4702
   44MOL   H46829794   8.220   8.009   3.658  2.7824  0.8917 -1.3755
   44MOL   H46929795   0.034   7.838   3.505  1.3558 -1.8247 -0.8783
   44MOL   H47029796   0.057   7.488   3.418 -0.1090 -0.4804 -0.7531
   44MOL   H47129797   0.062   7.490   3.173  0.5699  0.8115 -0.0661
   44MOL   H47229798   0.417   7.491   3.050  1.3912  0.7386  1.3424
   44MOL   H47329799   0.633   7.523   2.950  0.2793  0.8443 -0.5630
   44MOL   H47429800   0.499   7.898   2.781  0.4138 -1.0314 -0.5618
   44MOL   H47529801   0.273   7.853   2.877 -0.1961  0.3114  1.5462
   44MOL   H47629802   0.344   7.821   3.194  0.4081  0.3154 -0.3693
   44MOL   H47729803   0.365   7.792   3.430 -0.7280  1.5547  0.1718
   44MOL   C47829804   0.829   7.431   2.626  0.6283 -0.1035 -0.7374
   44MOL   C47929805   0.742   7.535   2.672 -0.5401 -0.0061 -0.8254
   44MOL   C48029806   0.788   7.641   2.757  0.0373  0.0708  0.8221
   44MOL   O48129807   0.707   7.742   2.799  0.6233 -0.3887  0.3244
   44MOL   C48229808   0.928   7.637   2.791 -0.2563 -0.1289  0.8024
   44MOL   C48329809   1.013   7.547   2.730 -0.3912  0.7416 -0.1458
   44MOL   C48429810   0.962   7.441   2.652  0.2041 -0.2873 -0.1330
   44MOL   C48529811   1.064   7.355   2.580 -1.0477  0.1601 -0.2199
   44MOL   O48629812   1.180   7.393   2.558  0.3690 -0.5432 -0.3563
   44MOL   C48729813   1.024   7.217   2.546 -1.0203 -0.0324  0.2019
   44MOL   C48829814   1.057   7.176   2.416 -0.0324 -0.4153  0.3710
   44MOL   C48929815   1.030   7.047   2.371 -0.5468 -0.0366 -0.2924
   44MOL   C49029816   0.975   6.951   2.459  0.3430  0.2269 -1.4281
   44MOL   O49129817   0.962   6.818   2.421 -0.4771 -0.4733 -0.1870
   44MOL   C49229818   0.877   6.793   2.318 -1.2238  0.1332 -0.4965
   44MOL   C49329819   0.924   6.764   2.190  0.8289 -0.6060  0.8844
   44MOL   C49429820   0.838   6.732   2.084 -0.4136  0.3116 -0.7199
   44MOL   C49529821   0.698   6.730   2.112  0.1412 -0.0846 -0.7548
   44MOL   C49629822   0.652   6.741   2.244 -0.2402  0.0025 -0.1546
   44MOL   C49729823   0.742   6.777   2.347 -0.1903 -0.2776 -0.2351
   44MOL   C49829824   0.951   6.995   2.600 -0.3769 -0.3696  0.1485
   44MOL   C49929825   0.970   7.129   2.638 -0.4024  0.1088  0.2146
   44MOL   H50029826   0.793   7.346   2.571 -1.2577  0.1063  0.1209
   44MOL   H50129827   0.639   7.543   2.639 -0.6569  0.0004 -0.4587
   44MOL   H50229828   0.971   7.708   2.861  0.4665  0.1518  0.0771
   44MOL   H50329829   1.120   7.553   2.740 -0.2997  0.4971 -0.9625
   44MOL   H50429830   1.112   7.244   2.353 -0.6523 -1.3580 -1.2110
   44MOL   H50529831   1.059   7.013   2.273  0.3948 -0.9347  0.2921
   44MOL   H50629832   1.030   6.753   2.171  0.7745 -1.5871  1.1145
   44MOL   H50729833   0.874   6.707   1.986 -0.1368 -0.7026 -0.3585
   44MOL   H50829834   0.549   6.716   2.263 -0.1596 -0.8312 -0.7879
   44MOL   H50929835   0.714   6.797   2.449  0.7282 -1.6639  0.3042
   44MOL   H51029836   0.914   6.922   2.670  1.5870 -0.9343  0.6271
   44MOL   H51129837   0.937   7.154   2.737 -0.2776 -0.1586  0.3254
   44MOL   C51229838   0.525   6.939   1.756 -0.2906 -0.2289  0.1358
   44MOL   C51329839   0.580   6.824   1.814  0.0149  0.1335  0.2441
   44MOL   C51429840   0.550   6.801   1.948  0.1871  0.0455  0.0656
   44MOL   O51529841   0.613   6.700   2.012  0.1974 -0.4559 -0.1120
   44MOL   C51629842   0.468   6.889   2.028 -0.4395 -0.4341 -0.0013
   44MOL   C51729843   0.412   6.995   1.968 -0.1168  0.3388 -0.1059
   44MOL   C51829844   0.445   7.027   1.833 -0.1190  0.0727 -0.6012
   44MOL   C51929845   0.385   7.142   1.765 -0.9291 -0.5156 -0.2460
   44MOL   O52029846   0.373   7.244   1.828  0.6477  0.1676  0.7810
   44MOL   C52129847   0.317   7.126   1.632  0.3596  0.0424  0.0659
   44MOL   C52229848   0.277   7.242   1.564 -0.3229 -0.2358 -0.1556
   44MOL   C52329849   0.192   7.233   1.449  0.6042 -0.5675  0.0806
   44MOL   C52429850   0.159   7.102   1.398  0.6803 -0.3092 -0.1919
   44MOL   O52529851   0.074   7.072   1.294 -0.0472  0.8425 -0.0408
   44MOL   C52629852   8.257   7.077   1.304 -0.4662  0.0750 -0.2418
   44MOL   C52729853   8.179   7.137   1.203 -0.0589 -0.6060 -0.3325
   44MOL   C52829854   8.043   7.153   1.216  0.0266  0.3063 -0.2108
   44MOL   C52929855   7.972   7.125   1.339  0.2410  0.4595  0.4534
   44MOL   C53029856   8.045   7.066   1.438 -0.2052  0.0195  0.9186
   44MOL   C53129857   8.184   7.041   1.423  0.5317  0.2679  0.7101
   44MOL   C53229858   0.202   6.982   1.467  0.5943 -0.4325  0.5058
   44MOL   C53329859   0.276   6.996   1.584  0.8512  0.6112  0.1596
   44MOL   H53429860   0.550   6.966   1.654 -0.2082  1.3294  0.5562
   44MOL   H53529861   0.626   6.754   1.746  1.5598  2.9662 -1.7578
   44MOL   H53629862   0.443   6.866   2.131  0.8787  1.3958  0.7718
   44MOL   H53729863   0.361   7.072   2.024 -2.4065  0.0868 -1.7636
   44MOL   H53829864   0.292   7.338   1.610  1.8762 -0.4412 -0.3819
   44MOL   H53929865   0.154   7.326   1.408  2.7697 -0.0949 -0.9028
   44MOL   H54029866   8.220   7.171   1.109 -0.0003  0.8821  0.2195
   44MOL   H54129867   7.984   7.203   1.139 -0.3830 -0.4179 -0.3679
   44MOL   H54229868   7.999   7.038   1.531  0.0514 -0.8822  0.7791
   44MOL   H54329869   8.235   6.990   1.503 -0.2381 -0.2663  0.8545
   44MOL   H54429870   0.176   6.884   1.429 -0.3712 -0.1394  0.4027
   44MOL   H54529871   0.299   6.906   1.639  1.8176  0.2328 -0.8453
   44MOL   C54629872   7.531   6.972   1.427 -0.1197  0.1578  0.4535
   44MOL   C54729873   7.627   7.073   1.412  0.0180  0.3797 -0.0339
   44MOL   C54829874   7.759   7.044   1.377  0.2354 -0.1232  0.6189
   44MOL   O54929875   7.839   7.152   1.359 -1.1889 -0.1866 -0.5312
   44MOL   C55029876   7.788   6.907   1.336  0.1200 -0.6367 -0.0328
   44MOL   C55129877   7.688   6.807   1.347 -0.6983  0.1433  1.0072
   44MOL   C55229878   7.563   6.839   1.392  0.1377 -0.2024  0.3067
   44MOL   C55329879   7.463   6.729   1.412  1.3341 -1.0269 -0.1198
   44MOL   O55429880   7.503   6.623   1.450 -0.1286  0.4270  0.0254
   44MOL   C55529881   7.322   6.756   1.384 -0.3350 -0.1337  0.4402
   44MOL   C55629882   7.225   6.708   1.473 -0.7743 -0.0026 -0.4380
   44MOL   C55729883   7.086   6.732   1.458 -0.3099  0.0952  0.1039
   44MOL   C55829884   7.051   6.829   1.361  0.1158 -0.4497  0.3868
   44MOL   O55929885   6.916   6.843   1.340  0.1609 -0.1984 -0.2106
   44MOL   C56029886   6.861   6.964   1.320 -0.5943  0.0531 -0.6784
   44MOL   C56129887   6.888   7.077   1.406  0.0032  0.1568  0.2552
   44MOL   C56229888   6.817   7.201   1.386 -0.4212  0.1605  0.3300
   44MOL   C56329889   6.727   7.206   1.272 -0.2922 -0.1018 -0.3964
   44MOL   C56429890   6.712   7.095   1.185  0.0796 -0.2649 -0.2203
   44MOL   C56529891   6.771   6.973   1.215 -0.5234  0.3618  0.3935
   44MOL   C56629892   7.150   6.893   1.281 -0.2712 -0.0466  0.9141
   44MOL   C56729893   7.283   6.852   1.290 -0.2215 -0.2136  0.1813
   44MOL   H56829894   7.432   7.009   1.450  0.2681  0.8479  1.0361
   44MOL   H56929895   7.602   7.176   1.436  0.3454  0.7804 -1.3656
   44MOL   H57029896   7.884   6.882   1.294  0.8883  0.5184  0.9992
   44MOL   H57129897   7.711   6.703   1.330  1.5560  0.8389 -0.4525
   44MOL   H57229898   7.254   6.632   1.544  0.6648  1.5857  0.7179
   44MOL   H57329899   7.010   6.683   1.516  1.5985 -0.1279  2.5198
   44MOL   H57429900   6.962   7.075   1.485  1.5421 -2.9620 -1.1993
   44MOL   H57529901   6.838   7.290   1.443  1.5031  1.6484 -2.6088
   44MOL   H57629902   6.656   7.110   1.094  2.5825 -1.8475 -2.0872
   44MOL   H57729903   6.759   6.883   1.156  1.6161  0.6191 -0.4815
   44MOL   H57829904   7.126   6.970   1.210  0.5353 -1.0920 -0.5136
   44MOL   H57929905   7.359   6.890   1.223  1.6759 -0.0629  2.3564
   44MOL   C58029906   6.992   7.465   1.069 -0.3854 -0.2592 -0.0392
   44MOL   C58129907   6.881   7.389   1.092  0.3324  0.2242 -0.1650
   44MOL   C58229908   6.790   7.419   1.198 -0.6407 -0.0834 -0.2102
   44MOL   O58329909   6.686   7.333   1.236  0.4659 -0.1749 -0.3075
   44MOL   C58429910   6.804   7.541   1.267 -0.1214  0.7039  0.1789
   44MOL   C58529911   6.913   7.623   1.243  0.0668  0.5093  0.5374
   44MOL   C58629912   7.016   7.578   1.154  0.5294  0.7962  0.4167
   44MOL   C58729913   7.137   7.660   1.122  0.4833 -0.5294 -1.2414
   44MOL   O58829914   7.132   7.787   1.129  0.0584 -0.1256  0.1304
   44MOL   C58929915   7.256   7.590   1.076  0.3758 -0.3138  0.1922
   44MOL   C59029916   7.343   7.664   0.994 -0.5037  0.2763  0.1827
   44MOL   C59129917   7.472   7.617   0.964  0.0855  0.6295 -0.5691
   44MOL   C59229918   7.510   7.492   1.005 -0.3181  0.1926  0.1587
   44MOL   O59329919   7.635   7.446   0.965  0.1364  0.0228  0.3854
   44MOL   C59429920   7.740   7.494   1.035 -0.1470  1.1493 -1.1828
   44MOL   C59529921   7.820   7.600   0.990  0.2127  0.4535 -0.5323
   44MOL   C59629922   7.933   7.639   1.060 -0.0543 -0.3033  0.2014
   44MOL   C59729923   7.965   7.595   1.193 -0.1037 -0.1447  0.4003
   44MOL   C59829924   7.884   7.482   1.244 -0.1965 -1.0686  0.7064
   44MOL   C59929925   7.778   7.431   1.161  0.5222 -1.2284  0.1714
   44MOL   C60029926   7.422   7.411   1.081 -0.3963  0.0436 -0.4349
   44MOL   C60129927   7.303   7.471   1.128  0.1217  0.5902 -0.1914
   44MOL   H60229928   7.058   7.432   0.990 -0.6909 -1.0267  0.0245
   44MOL   H60329929   6.860   7.297   1.039  2.8445 -1.2926  1.3798
   44MOL   H60429930   6.729   7.574   1.337 -0.8920  0.7840 -0.6705
   44MOL   H60529931   6.936   7.713   1.299  0.7498  0.5881  0.1440
   44MOL   H60629932   7.319   7.763   0.958  2.4599  0.4533 -1.4432
   44MOL   H60729933   7.531   7.677   0.896  0.0697  0.1219 -1.0429
   44MOL   H60829934   7.795   7.643   0.894  0.9882 -1.2484 -1.5198
   44MOL   H60929935   8.004   7.707   1.014 -0.2658 -0.4945 -0.4151
   44MOL   H61029936   7.899   7.449   1.346  1.9554 -0.1378  0.7109
   44MOL   H61129937   7.700   7.361   1.186  0.2211 -1.0754 -0.3330
   44MOL   H61229938   7.455   7.310   1.099 -0.1884  0.3942  1.2512
   44MOL   H61329939   7.239   7.416   1.195  0.0496  0.4570 -0.3700
   44MOL   C61429940   0.039   7.408   1.168 -0.5441 -1.0689 -0.4920
   44MOL   C61529941   8.241   7.467   1.240 -0.0621  0.3527  0.4152
   44MOL   C61629942   8.200   7.600   1.209 -0.1806  0.5715 -0.0380
   44MOL   O61729943   8.078   7.636   1.259 -0.2676 -0.0252  0.3076
   44MOL   C61829944   8.270   7.689   1.136 -0.3961 -0.0433  0.5339
   44MOL   C61929945   0.082   7.640   1.080  0.3172 -0.5613  0.0878
   44MOL   C62029946   0.120   7.503   1.092 -1.4627  0.1644 -0.2562
   44MOL   C62129947   0.247   7.462   1.031  0.2201 -0.0281 -0.1715
   44MOL   O62229948   0.264   7.348   0.973 -0.0868 -0.4169  0.0508
   44MOL   C62329949   0.362   7.557   1.043  0.8653  0.1423  0.5811
   44MOL   C62429950   0.457   7.560   0.937  0.3041 -0.0171  0.6403
   44MOL   C62529951   0.573   7.643   0.955 -0.1061  0.2047 -0.0394
   44MOL   C62629952   0.599   7.700   1.077  0.1796 -0.3263  0.6265
   44MOL   O62729953   0.715   7.764   1.103 -0.0270 -0.0242  0.3973
   44MOL   C62829954   0.697   7.901   1.110 -0.1881  0.8292  0.2915
   44MOL   C62929955   0.727   7.953   1.234 -0.7114  0.2790  0.2104
   44MOL   C63029956   0.709   8.088   1.256 -0.1067  0.4084 -0.1060
   44MOL   C63129957   0.664   8.176   1.159  0.1907 -0.2838  0.1480
   44MOL   C63229958   0.634   8.124   1.033  0.4038 -0.6956 -0.5998
   44MOL   C63329959   0.637   7.983   1.014  0.0986  0.2507  0.0412
   44MOL   C63429960   0.505   7.691   1.177 -0.5331  0.0160  0.3294
   44MOL   C63529961   0.387   7.623   1.161  0.6680 -0.8155 -0.7584
   44MOL   H63629962   0.072   7.305   1.173  2.0036 -0.2092  0.7840
   44MOL   H63729963   8.190   7.404   1.311 -0.9590 -0.4321 -0.8909
   44MOL   H63829964   8.230   7.789   1.131 -0.7689 -0.2059  0.2429
   44MOL   H63929965   0.141   7.712   1.025 -0.4873  0.5202  0.6216
   44MOL   H64029966   0.453   7.503   0.845  1.9315  2.7028 -1.2096
   44MOL   H64129967   0.642   7.650   0.872 -1.4036  0.3787 -1.1197
   44MOL   H64229968   0.776   7.891   1.308  0.0451  1.4444  0.7159
   44MOL   H64329969   0.738   8.135   1.350 -0.0724  3.1202 -1.4351
   44MOL   H64429970   0.600   8.194   0.958  0.1799  2.3647  2.2648
   44MOL   H64529971   0.610   7.945   0.916 -1.2978  0.9267  0.1517
   44MOL   H64629972   0.524   7.722   1.279 -1.8351  0.1367  0.5474
   44MOL   H64729973   0.324   7.609   1.248  3.8656 -2.5020  1.3886
   44MOL   C64829974   0.630   0.237   0.927 -0.2155 -0.8176 -0.1574
   44MOL   C64929975   0.668   0.135   1.009 -0.5009  0.3953  0.7426
   44MOL   C65029976   0.593   0.086   1.115 -0.0324  0.1678  0.1567
   44MOL   O65129977   0.635   8.298   1.203  0.5682 -0.1307  0.3826
   44MOL   C65229978   0.473   0.146   1.143  0.3315  0.2733  0.6659
   44MOL   C65329979   0.424   0.251   1.060  0.4138 -0.1986  0.0096
   44MOL   C65429980   0.505   0.295   0.945  0.0918 -0.4266  0.3383
   44MOL   C65529981   0.458   0.410   0.862 -0.4079 -1.2394 -0.4163
   44MOL   O65629982   0.380   0.500   0.904  0.4127  0.1568  0.4126
   44MOL   C65729983   0.499   0.402   0.716  0.0436 -0.0221 -0.1424
   44MOL   C65829984   0.556   0.516   0.649  0.6927  0.4558 -0.1912
   44MOL   C65929985   0.580   0.515   0.509  0.1666  0.8678 -0.0350
   44MOL   C66029986   0.549   0.397   0.438  0.6826  0.4365 -0.5899
   44MOL   O66129987   0.556   0.397   0.304  0.4536 -0.7131 -0.0828
   44MOL   C66229988   0.437   0.388   0.237  0.6452 -0.1736 -0.3945
   44MOL   C66329989   0.440   0.370   0.100 -0.3539  0.3219  0.2259
   44MOL   C66429990   0.321   0.362   0.024  0.2313  0.8826  0.3517
   44MOL   C66529991   0.198   0.394   0.081  0.4205  0.6675 -0.0988
   44MOL   C66629992   0.196   0.427   0.214 -0.3946 -0.2118 -0.4443
   44MOL   C66729993   0.310   0.420   0.292  0.1160  0.9107 -0.1418
   44MOL   C66829994   0.500   0.284   0.506 -0.0720 -0.1458 -0.0342
   44MOL   C66929995   0.471   0.286   0.646 -0.7704 -0.8469 -0.2911
   44MOL   H67029996   0.686   0.262   0.838  1.3131 -0.9190  0.7597
   44MOL   H67129997   0.766   0.093   0.992 -1.4537 -1.2639 -0.7816
   44MOL   H67229998   0.417   0.109   1.228 -0.4199 -0.1114  0.0145
   44MOL   H67329999   0.330   0.299   1.081  0.0649 -0.2964 -1.2985
   44MOL   H67430000   0.597   0.600   0.704  0.4716  0.5819 -0.2185
   44MOL   H67530001   0.629   0.597   0.459 -1.3345  0.5241 -2.1747
   44MOL   H67630002   0.541   0.350   0.066 -0.2968 -1.6348  1.4641
   44MOL   H67730003   0.331   0.337   8.233  1.2456  3.1146 -0.1240
   44MOL   H67830004   0.101   0.454   0.259 -0.1816  0.2562 -0.2711
   44MOL   H67930005   0.298   0.460   0.392  0.4090 -0.5399  0.4811
   44MOL   H68030006   0.479   0.194   0.452 -2.4990  0.5425 -0.3106
   44MOL   H68130007   0.426   0.197   0.687 -0.9932 -1.0720 -1.0143
   44MOL   H68230008   0.103   0.393   0.030  0.0321 -2.1565  0.5602
   45MOL     C130009   2.056   2.233   6.148 -0.1856  0.2882 -0.2199
   45MOL     C230010   2.114   2.101   6.123  0.1918 -0.1077  0.6040
   45MOL     C330011   2.039   1.985   6.160 -0.2976  0.0228  0.1498
   45MOL     O430012   2.077   1.859   6.124 -0.3473  0.7373  0.5524
   45MOL     C530013   1.925   2.001   6.242 -0.0778 -0.1424  0.0577
   45MOL     C630014   1.888   2.129   6.288  0.2713 -0.0028  0.7353
   45MOL     C730015   1.946   2.247   6.231 -0.4473 -0.5446 -0.3549
   45MOL     C830016   1.895   2.388   6.260 -0.3022 -0.5874  0.1606
   45MOL     O930017   1.923   2.474   6.174  0.8064 -0.6166 -0.0899
   45MOL    C1030018   1.809   2.415   6.376  0.2030  0.2541 -0.2529
   45MOL    C1130019   1.686   2.479   6.365  0.4779  0.0773  0.0279
   45MOL    C1230020   1.604   2.507   6.476 -0.2516 -0.4000 -0.9011
   45MOL    C1330021   1.644   2.466   6.603 -0.2955 -0.5464  0.0714
   45MOL    O1430022   1.572   2.506   6.706  0.1327 -0.3164  0.2127
   45MOL    C1530023   1.643   2.551   6.816  0.1013  0.0847 -0.3424
   45MOL    C1630024   1.617   2.498   6.940  0.3722 -0.3732  0.2246
   45MOL    C1730025   1.680   2.552   7.052 -0.3726  0.2224 -0.8915
   45MOL    C1830026   1.768   2.665   7.037 -1.2394 -0.6028 -0.0832
   45MOL    C1930027   1.800   2.714   6.909 -0.1116  0.3749 -0.0509
   45MOL    C2030028   1.735   2.656   6.799  0.2974 -0.5154  0.2049
   45MOL    C2130029   1.753   2.377   6.611 -0.4186  0.3399 -0.1878
   45MOL    C2230030   1.844   2.355   6.500  0.1800  0.0069  0.3848
   45MOL    H2330031   2.112   2.323   6.127  1.5455 -0.6228  0.3758
   45MOL    H2430032   2.208   2.086   6.071 -0.2080  2.6102 -1.0006
   45MOL    H2530033   1.878   1.908   6.273  1.6368 -1.2722 -0.6603
   45MOL    H2630034   1.800   2.139   6.350 -0.7950  0.6528 -0.8606
   45MOL    H2730035   1.651   2.502   6.266  0.0483 -0.1737  0.1206
   45MOL    H2830036   1.512   2.565   6.472 -0.3413 -0.3114  1.6232
   45MOL    H2930037   1.536   2.429   6.958  0.3698 -0.0739  1.3513
   45MOL    H3030038   1.666   2.518   7.153 -1.8761  1.2433 -0.7327
   45MOL    H3130039   1.870   2.790   6.880 -0.4584  0.5798 -0.3606
   45MOL    H3230040   1.765   2.686   6.700 -0.3161  2.1445  0.7805
   45MOL    H3330041   1.773   2.336   6.709 -2.0199 -1.7822 -0.7124
   45MOL    H3430042   1.933   2.294   6.496 -0.0248 -0.1530 -2.3360
   45MOL    H3530043   2.164   1.836   6.096 -0.9165 -0.2989 -0.4451
   45MOL    C3630044   2.146   2.814   7.287 -0.4357  0.7499  0.1931
   45MOL    C3730045   2.008   2.823   7.265  0.2572 -0.1936 -0.7212
   45MOL    C3830046   1.946   2.713   7.198 -0.5576  0.0223  0.1328
   45MOL    O3930047   1.814   2.734   7.154 -0.0317  0.0936  0.1969
   45MOL    C4030048   2.015   2.593   7.171 -0.3565 -0.0279  0.1551
   45MOL    C4130049   2.153   2.589   7.191  0.5689  0.0913  0.2455
   45MOL    C4230050   2.220   2.694   7.261 -0.0830  0.3317 -0.6634
   45MOL    C4330051   2.366   2.698   7.291  0.1937 -0.4267 -0.1773
   45MOL    O4430052   2.426   2.807   7.306 -0.0162  0.2419  0.2228
   45MOL    C4530053   2.444   2.571   7.289  0.3333 -0.2859  0.2645
   45MOL    C4630054   2.574   2.569   7.242 -0.4392  0.0593 -1.1606
   45MOL    C4730055   2.651   2.448   7.244  0.0622 -0.1271  0.3052
   45MOL    C4830056   2.588   2.326   7.283  0.2525 -0.2846 -0.1672
   45MOL    O4930057   2.661   2.214   7.282  0.3581 -0.2036 -0.5002
   45MOL    C5030058   2.698   2.153   7.399 -0.0243 -0.3132 -0.5603
   45MOL    C5130059   2.807   2.196   7.473  0.4534  0.3682 -0.2058
   45MOL    C5230060   2.845   2.121   7.582 -0.0691  0.4283  0.3652
   45MOL    C5330061   2.774   2.002   7.625 -0.1354 -0.9453 -0.0118
   45MOL    C5430062   2.671   1.955   7.546 -0.3088  0.0500 -0.0036
   45MOL    C5530063   2.637   2.026   7.433  0.0190  0.3665  0.7657
   45MOL    C5630064   2.454   2.332   7.330 -0.3778 -0.4541 -0.0118
   45MOL    C5730065   2.388   2.454   7.338  0.7650 -0.3263  0.2120
   45MOL    H5830066   2.202   2.897   7.327 -0.0689  0.0074  1.2465
   45MOL    H5930067   1.964   2.920   7.278  2.1302  0.7255 -1.0105
   45MOL    H6030068   1.962   2.514   7.118  1.8412 -0.6395 -1.1873
   45MOL    H6130069   2.202   2.497   7.162 -1.6818 -1.2378  0.5115
   45MOL    H6230070   2.629   2.652   7.200  1.3252 -0.0361  0.8612
   45MOL    H6330071   2.751   2.450   7.203  0.0564  2.9327  0.3041
   45MOL    H6430072   2.860   2.287   7.447  3.2602 -1.3166 -0.6522
   45MOL    H6530073   2.921   2.160   7.648  0.7670  0.2819 -0.4967
   45MOL    H6630074   2.623   1.860   7.563  2.4568 -1.1587  1.3716
   45MOL    H6730075   2.547   1.993   7.385  1.2762  1.2522 -2.2903
   45MOL    H6830076   2.408   2.246   7.377  0.8942 -0.3690  1.4429
   45MOL    H6930077   2.291   2.458   7.385 -1.0410 -0.1008 -3.4184
   45MOL    C7030078   3.108   1.726   7.652 -0.1622 -0.6132  0.6526
   45MOL    C7130079   2.990   1.798   7.640  0.0240  0.3747  0.2120
   45MOL    C7230080   2.944   1.883   7.745 -0.3317  0.6122 -0.4009
   45MOL    O7330081   2.817   1.936   7.736 -0.8312 -0.4489 -0.4910
   45MOL    C7430082   3.021   1.878   7.862 -0.8391 -0.9710  0.1469
   45MOL    C7530083   3.131   1.798   7.876 -0.1540  0.5042 -0.0675
   45MOL    C7630084   3.178   1.717   7.774  0.2265 -0.1299 -0.8520
   45MOL    C7730085   3.297   1.629   7.799 -0.5635 -0.1033  0.4955
   45MOL    O7830086   3.289   1.516   7.851 -0.0293 -0.3088 -0.5265
   45MOL    C7930087   3.434   1.679   7.761 -0.7227 -0.5047 -0.6328
   45MOL    C8030088   3.461   1.817   7.751 -0.0559  0.0292  0.0746
   45MOL    C8130089   3.585   1.872   7.736  0.3419 -0.5447  0.3973
   45MOL    C8230090   3.687   1.779   7.708  0.3954 -0.4387 -0.0125
   45MOL    O8330091   3.805   1.828   7.665 -0.1861 -0.3045  0.1550
   45MOL    C8430092   3.910   1.822   7.758  0.7415 -0.0240  0.1481
   45MOL    C8530093   4.006   1.710   7.759  0.2937 -0.0477  0.2417
   45MOL    C8630094   4.112   1.707   7.852 -0.6804  0.4354  0.7947
   45MOL    C8730095   4.125   1.820   7.937 -0.3445  0.2134  0.6220
   45MOL    C8830096   4.041   1.932   7.930 -0.2613 -0.4865  0.0678
   45MOL    C8930097   3.936   1.933   7.837  0.5783  0.0399  0.1822
   45MOL    C9030098   3.666   1.644   7.706  0.2946 -0.4613  0.5761
   45MOL    C9130099   3.541   1.588   7.745 -0.4487 -0.4957 -0.8226
   45MOL    H9230100   3.143   1.669   7.567  2.2994  1.2461  0.3618
   45MOL    H9330101   2.930   1.783   7.552 -0.6923 -0.8402  0.8955
   45MOL    H9430102   2.985   1.931   7.949 -1.1072 -0.1313 -0.4678
   45MOL    H9530103   3.193   1.802   7.965  0.6180  0.4939 -0.6051
   45MOL    H9630104   3.385   1.884   7.790  0.0107  0.7773 -1.0572
   45MOL    H9730105   3.609   1.977   7.735 -1.0326 -0.2062  1.1238
   45MOL    H9830106   3.984   1.631   7.689 -0.2589  0.3825 -0.0671
   45MOL    H9930107   4.187   1.633   7.876  0.0032  1.1099  0.7407
   45MOL   H10030108   4.058   2.016   7.996 -0.5895  1.0965 -1.8377
   45MOL   H10130109   3.859   2.009   7.832  1.0820  0.5144 -0.3570
   45MOL   H10230110   3.747   1.575   7.693  0.5317 -0.2249  0.7814
   45MOL   H10330111   3.535   1.480   7.748  0.0006 -0.5221 -0.8273
   45MOL   C10430112   4.366   1.553   8.226  0.2527 -0.3543 -0.3676
   45MOL   C10530113   4.357   1.653   8.129  0.4993  0.2367 -0.1691
   45MOL   C10630114   4.244   1.739   8.127 -0.6566  0.1371  0.4655
   45MOL   O10730115   4.227   1.832   8.024 -0.5614 -0.0250  0.3019
   45MOL   C10830116   4.147   1.727   8.229 -1.6177 -0.5049 -0.2384
   45MOL   C10930117   4.155   1.629   0.012 -0.0990  0.9443  0.0604
   45MOL   C11030118   4.269   1.539   0.012  0.5269  0.3568 -0.4531
   45MOL   C11130119   4.291   1.450   0.127  0.4043  0.1213 -0.5870
   45MOL   O11230120   4.407   1.420   0.159  0.5634  0.2824  0.5754
   45MOL   C11330121   4.174   1.394   0.196  0.2774  0.2721 -0.7027
   45MOL   C11430122   4.183   1.386   0.339 -1.0272 -0.0299  0.3252
   45MOL   C11530123   4.075   1.343   0.418  0.1017 -0.1584 -0.1162
   45MOL   C11630124   3.956   1.300   0.362  0.3016 -0.6263 -0.1999
   45MOL   O11730125   3.844   1.278   0.446  0.0026 -0.3679 -0.4437
   45MOL   C11830126   3.735   1.205   0.416 -0.0373  0.4583 -0.4147
   45MOL   C11930127   3.742   1.064   0.429 -0.4697  0.1265  0.0172
   45MOL   C12030128   3.638   0.982   0.386 -0.0248  0.7329 -0.4740
   45MOL   C12130129   3.518   1.037   0.337  0.3470  0.5417 -0.1981
   45MOL   C12230130   3.507   1.181   0.323 -0.4807 -0.4223 -0.3806
   45MOL   C12330131   3.617   1.262   0.366 -0.6719  0.5542  0.4056
   45MOL   C12430132   3.946   1.293   0.221  0.0322  0.3494 -0.3157
   45MOL   C12530133   4.044   1.354   0.143  0.0055 -0.0045  0.1844
   45MOL   H12630134   4.454   1.490   8.220  1.5906  1.4307 -0.0961
   45MOL   H12730135   4.439   1.669   8.060  0.7706  2.3300  0.6006
   45MOL   H12830136   4.066   1.797   8.218  0.1927  1.5008 -1.1212
   45MOL   H12930137   4.075   1.620   0.084  0.9388  1.1682  1.2539
   45MOL   H13030138   4.279   1.416   0.379 -0.1172  2.6013 -3.5429
   45MOL   H13130139   4.094   1.350   0.524  0.5188  1.7738 -0.3034
   45MOL   H13230140   3.828   1.012   0.469 -0.3545  0.3262  0.0299
   45MOL   H13330141   3.649   0.875   0.393  1.4191  1.0358  2.1852
   45MOL   H13430142   3.421   1.233   0.283  0.1020  1.0404  0.2501
   45MOL   H13530143   3.614   1.368   0.347 -2.1677  0.5056  0.3026
   45MOL   H13630144   3.854   1.251   0.183  0.0445 -0.7790  0.8662
   45MOL   H13730145   4.022   1.373   0.039 -0.0173  0.5896  0.2926
   45MOL   C13830146   3.425   0.735   0.019  0.0180  0.3581  0.0857
   45MOL   C13930147   3.408   0.846   0.096  0.7564 -0.1823  0.6620
   45MOL   C14030148   3.409   0.842   0.238  0.1260  0.4665 -0.2668
   45MOL   O14130149   3.400   0.963   0.314 -0.8653 -0.1158 -0.3536
   45MOL   C14230150   3.421   0.714   0.295  0.1700  0.3266 -0.5210
   45MOL   C14330151   3.435   0.599   0.220 -0.2293  0.0499 -0.4582
   45MOL   C14430152   3.441   0.608   0.080 -0.0122  0.4561 -1.7154
   45MOL   C14530153   3.458   0.486   0.002  0.5742  0.6988 -0.4043
   45MOL   O14630154   3.559   0.467   8.244  0.2154 -0.4052 -0.3873
   45MOL   C14730155   3.354   0.381   0.009  0.1139  0.4874 -0.0457
   45MOL   C14830156   3.243   0.398   0.085  0.0883  0.2069  0.4388
   45MOL   C14930157   3.141   0.298   0.091  0.5477  0.6962  0.4584
   45MOL   C15030158   3.148   0.190   0.007  0.4430  0.3842  1.0822
   45MOL   O15130159   3.063   0.085   0.022  0.3330  0.0298  0.0109
   45MOL   C15230160   3.118   8.297   0.095  0.0394  0.1899  0.5871
   45MOL   C15330161   3.214   8.204   0.042 -0.1625 -0.1797 -0.0378
   45MOL   C15430162   3.275   8.104   0.121 -0.2255 -1.0167 -0.3786
   45MOL   C15530163   3.236   8.092   0.252 -0.0419  0.0679  0.6846
   45MOL   C15630164   3.145   8.184   0.310  0.2741  0.6859 -0.2433
   45MOL   C15730165   3.082   8.282   0.232  0.3302  0.0678 -0.5502
   45MOL   C15830166   3.257   0.182   8.228  0.3576  0.4722 -0.6442
   45MOL   C15930167   3.365   0.273   8.230  0.1679  0.1486  0.3679
   45MOL   H16030168   3.420   0.740   8.224  0.1232 -1.3379 -0.0106
   45MOL   H16130169   3.402   0.939   0.040 -0.8889 -1.6306 -1.6878
   45MOL   H16230170   3.421   0.709   0.403 -3.3956  2.3881 -0.3395
   45MOL   H16330171   3.435   0.499   0.261  0.2884 -0.3059 -1.3097
   45MOL   H16430172   3.221   0.491   0.135  0.8224 -0.3113  1.7480
   45MOL   H16530173   3.055   0.304   0.156  1.0389 -1.2084  1.3360
   45MOL   H16630174   3.248   8.202   8.252 -1.5693 -0.0058 -0.5229
   45MOL   H16730175   3.346   8.036   0.078 -0.1626 -0.5349 -1.0483
   45MOL   H16830176   3.120   8.168   0.414  0.0623 -2.9982 -0.8174
   45MOL   H16930177   2.997   0.019   0.278 -0.1166  0.2961 -1.6183
   45MOL   H17030178   3.266   0.095   8.164  0.7825 -0.6528  0.8981
   45MOL   H17130179   3.459   0.257   8.180 -0.8247 -1.7758 -0.9457
   45MOL   C17230180   3.249   7.651   0.237 -0.3330 -0.3700  0.2246
   45MOL   C17330181   3.282   7.788   0.225 -0.2460  0.2981  0.2554
   45MOL   C17430182   3.236   7.874   0.330 -0.0239  0.6042 -0.9795
   45MOL   O17530183   3.293   7.998   0.330 -0.4706 -0.0425 -0.7026
   45MOL   C17630184   3.148   7.828   0.431  0.5900 -0.1340 -0.2843
   45MOL   C17730185   3.108   7.691   0.432 -0.7946  0.9155 -0.0096
   45MOL   C17830186   3.164   7.603   0.338  0.6682  0.2343  1.0899
   45MOL   C17930187   3.141   7.457   0.355  0.8066  0.2227 -0.9410
   45MOL   O18030188   3.219   7.370   0.305  0.1216 -0.1387 -0.9402
   45MOL   C18130189   3.032   7.413   0.443  0.0164  0.2307  0.3274
   45MOL   C18230190   3.050   7.330   0.556  0.5909 -0.4741  0.0807
   45MOL   C18330191   2.944   7.310   0.642  0.1016 -0.2270 -0.6223
   45MOL   C18430192   2.815   7.359   0.607  0.2689  0.4366 -0.9897
   45MOL   O18530193   2.708   7.324   0.690  0.8027  0.4505  0.0913
   45MOL   C18630194   2.655   7.419   0.771 -0.0022  0.0165  0.0895
   45MOL   C18730195   2.566   7.377   0.874  0.0971 -0.0494  0.2924
   45MOL   C18830196   2.501   7.457   0.963  0.1248 -0.2550 -0.6287
   45MOL   C18930197   2.533   7.595   0.959 -0.2596 -0.5828 -0.2475
   45MOL   C19030198   2.618   7.648   0.861 -0.3692 -0.1742 -0.0144
   45MOL   C19130199   2.690   7.558   0.772  0.3660  0.2886  0.8857
   45MOL   C19230200   2.795   7.432   0.490  0.2058  0.8188  0.1912
   45MOL   C19330201   2.904   7.461   0.412 -0.1147 -0.3289 -0.2010
   45MOL   H19430202   3.291   7.581   0.166 -1.9193 -2.9856  1.7875
   45MOL   H19530203   3.346   7.830   0.148  1.2593 -0.4560  1.0771
   45MOL   H19630204   3.117   7.904   0.502 -0.6091  1.4439 -2.4232
   45MOL   H19730205   3.055   7.657   0.520 -0.2534  1.3104  0.4737
   45MOL   H19830206   3.144   7.281   0.579  0.2640 -0.4768  1.4670
   45MOL   H19930207   2.957   7.254   0.734  2.0235 -1.1617 -1.4315
   45MOL   H20030208   2.540   7.272   0.867 -1.9663  0.2799  2.5058
   45MOL   H20130209   2.430   7.413   1.031 -0.2333 -0.5733 -1.2058
   45MOL   H20230210   2.638   7.754   0.857 -2.7162  0.3104  0.7363
   45MOL   H20330211   2.746   7.602   0.692  1.0315 -0.5863  0.8685
   45MOL   H20430212   2.691   7.457   0.473 -1.3978 -2.8287  3.7450
   45MOL   H20530213   2.886   7.513   0.318  0.1568  1.0064  0.4656
   45MOL   C20630214   2.568   7.913   1.314  0.1787  0.5555  0.4399
   45MOL   C20730215   2.523   7.862   1.186  0.7513 -0.2846  0.1856
   45MOL   C20830216   2.517   7.728   1.158  0.5859 -0.2142 -0.6395
   45MOL   O20930217   2.458   7.681   1.041  0.4198 -0.1969 -0.3146
   45MOL   C21030218   2.567   7.638   1.260 -0.3653  0.9132  0.3358
   45MOL   C21130219   2.622   7.691   1.386  0.0110  0.1230  0.6852
   45MOL   C21230220   2.638   7.830   1.413 -0.6556 -0.0854  0.4312
   45MOL   C21330221   2.720   7.873   1.531 -0.3062  0.5084  0.1807
   45MOL   O21430222   2.800   7.800   1.581  0.0491 -0.0674  0.1700
   45MOL   C21530223   2.704   8.018   1.576 -0.0117  0.2595  0.0321
   45MOL   C21630224   2.819   8.093   1.607 -0.1369 -0.7848  0.0477
   45MOL   C21730225   2.807   8.217   1.678  0.2447 -0.1589  0.2317
   45MOL   C21830226   2.686   8.265   1.719 -0.1211 -0.0502  0.7248
   45MOL   O21930227   2.686   0.064   1.790 -0.0849 -0.3738  0.0180
   45MOL   C22030228   2.606   0.173   1.756  0.1707  0.3877  0.7307
   45MOL   C22130229   2.555   0.252   1.856 -0.2452  0.3032  0.2842
   45MOL   C22230230   2.476   0.360   1.826 -0.3228  0.9096 -0.4555
   45MOL   C22330231   2.432   0.380   1.691 -0.3721 -0.1422 -0.4686
   45MOL   C22430232   2.484   0.299   1.587 -0.3290 -0.1992 -0.7110
   45MOL   C22530233   2.575   0.199   1.625  0.3592  0.0663 -0.4467
   45MOL   C22630234   2.569   8.193   1.687  0.5810  0.3432  0.3181
   45MOL   C22730235   2.573   8.075   1.607 -0.0043 -0.0957  0.2964
   45MOL   H22830236   2.569   8.020   1.328  3.6532  0.8947 -1.8750
   45MOL   H22930237   2.481   7.933   1.116  0.6216 -2.1645 -1.7019
   45MOL   H23030238   2.564   7.532   1.241 -0.5809  1.1153 -0.7941
   45MOL   H23130239   2.674   7.614   1.441 -0.8970 -1.3443 -0.4844
   45MOL   H23230240   2.921   8.059   1.599  0.5437  0.8595  1.5160
   45MOL   H23330241   2.893   8.277   1.703  1.0097 -0.1421 -2.3271
   45MOL   H23430242   2.585   0.220   1.954  0.9524 -2.3355 -0.8819
   45MOL   H23530243   2.439   0.414   1.912 -3.9361  1.5629 -2.3185
   45MOL   H23630244   2.447   0.310   1.486 -2.1523  1.5136  0.1082
   45MOL   H23730245   2.607   0.127   1.552  0.5401 -0.4327  0.1232
   45MOL   H23830246   2.470   8.226   1.714 -0.1828 -0.5358 -1.3142
   45MOL   H23930247   2.485   8.013   1.594  1.3012 -2.1759  1.1425
   45MOL   C24030248   1.998   0.427   1.829  0.4642  0.3603  0.5954
   45MOL   C24130249   2.132   0.466   1.809 -0.0616  0.7286  0.1680
   45MOL   C24230250   2.204   0.417   1.692 -0.0071 -0.6535  0.3479
   45MOL   O24330251   2.332   0.465   1.671  0.1233  0.6457  0.4023
   45MOL   C24430252   2.136   0.344   1.595 -0.9051 -0.5212  0.6069
   45MOL   C24530253   1.997   0.314   1.615  0.2192  0.2522  0.1179
   45MOL   C24630254   1.930   0.352   1.731 -0.4046  0.8085 -0.2085
   45MOL   C24730255   1.782   0.328   1.749  0.0383  0.9930 -0.0577
   45MOL   O24830256   1.708   0.417   1.789  0.5484 -0.6564  0.4673
   45MOL   C24930257   1.733   0.190   1.734 -0.1239  0.8803  0.7084
   45MOL   C25030258   1.593   0.178   1.738  0.4562 -0.1185 -0.5931
   45MOL   C25130259   1.530   0.055   1.711 -0.4766 -0.1604  0.0596
   45MOL   C25230260   1.605   8.256   1.689  0.0806  0.2934  0.0428
   45MOL   O25330261   1.546   8.135   1.666 -0.0739 -0.6237 -0.1787
   45MOL   C25430262   1.537   8.093   1.538 -0.4808  0.7850  0.0191
   45MOL   C25530263   1.649   8.031   1.477  0.3658 -0.3900  0.8563
   45MOL   C25630264   1.628   7.989   1.340  1.0345  1.1729 -0.3025
   45MOL   C25730265   1.516   8.030   1.263  0.0600 -0.5397 -0.0494
   45MOL   C25830266   1.415   8.099   1.331 -0.2947 -0.0419 -0.4224
   45MOL   C25930267   1.426   8.124   1.464 -0.3291  0.0590  0.2877
   45MOL   C26030268   1.743   8.270   1.687 -0.0464 -0.9830 -0.5166
   45MOL   C26130269   1.810   0.080   1.701 -0.4723 -0.2559 -0.5776
   45MOL   H26230270   1.936   0.464   1.909 -1.7881 -0.7326 -0.5824
   45MOL   H26330271   2.173   0.539   1.877 -1.3049  1.8883 -0.3159
   45MOL   H26430272   2.184   0.317   1.502  0.3835  1.6633  0.6014
   45MOL   H26530273   1.953   0.257   1.535  2.8977  0.1051 -1.3139
   45MOL   H26630274   1.525   0.257   1.764 -2.6593 -2.1390 -2.3592
   45MOL   H26730275   1.422   0.049   1.711 -0.4547 -0.5535  0.1484
   45MOL   H26830276   1.742   8.010   1.527  1.5159 -1.0160 -1.4496
   45MOL   H26930277   1.697   7.916   1.300 -1.5204 -0.9098 -1.0464
   45MOL   H27030278   1.321   8.120   1.281 -0.3409  2.1385  0.5682
   45MOL   H27130279   1.339   8.161   1.516 -2.3656 -1.2880 -2.0227
   45MOL   H27230280   1.798   8.180   1.665  2.4363  0.5602 -0.8513
   45MOL   H27330281   1.916   0.074   1.681 -0.3290 -0.3945  0.2268
   45MOL   C27430282   1.648   8.058   0.803  0.4041  0.3204 -0.0698
   45MOL   C27530283   1.577   8.007   0.910 -0.0973 -0.1919  0.1953
   45MOL   C27630284   1.569   8.058   1.038 -0.4929  0.2543  0.7413
   45MOL   O27730285   1.498   7.996   1.131 -0.2540 -0.1215  0.1973
   45MOL   C27830286   1.635   8.184   1.057 -0.1512 -0.2414  0.3573
   45MOL   C27930287   1.697   8.240   0.947  0.0105 -0.5871  0.4554
   45MOL   C28030288   1.717   8.177   0.819  0.7616 -0.3022  0.3404
   45MOL   C28130289   1.800   8.239   0.708  0.7990 -0.1288 -0.4632
   45MOL   O28230290   1.779   0.040   0.672 -0.1955 -0.2175 -0.2563
   45MOL   C28330291   1.897   8.144   0.635  0.2802  0.1624  0.2871
   45MOL   C28430292   1.936   8.164   0.495  0.0763 -0.2626 -0.2863
   45MOL   C28530293   2.033   8.090   0.417 -1.2825 -0.2461  0.1096
   45MOL   C28630294   2.087   7.983   0.488  0.6521 -0.2772 -0.3458
   45MOL   O28730295   2.178   7.900   0.431  0.1373 -0.0768  0.3361
   45MOL   C28830296   2.126   7.796   0.354 -0.5995 -0.3736  0.2726
   45MOL   C28930297   2.151   7.784   0.213 -0.4584  0.7929 -0.7409
   45MOL   C29030298   2.118   7.664   0.146 -0.2114  0.2707  0.5783
   45MOL   C29130299   2.056   7.563   0.213  0.2310 -0.2686 -0.3814
   45MOL   C29230300   2.033   7.571   0.354 -0.3462  0.2354 -0.9135
   45MOL   C29330301   2.076   7.683   0.422 -0.3131  0.6385 -0.0133
   45MOL   C29430302   2.048   7.953   0.621  0.0957 -0.5808 -0.1469
   45MOL   C29530303   1.951   8.028   0.697 -0.5921  1.0072 -0.1178
   45MOL   H29630304   1.645   8.020   0.702  0.1389  2.7623 -0.9910
   45MOL   H29730305   1.514   7.923   0.884 -0.7581  0.2669  0.3159
   45MOL   H29830306   1.637   8.236   1.152  1.2669  0.9169 -0.2909
   45MOL   H29930307   1.748   0.020   0.965 -0.2579 -0.1394 -0.9927
   45MOL   H30030308   1.871   8.235   0.446  0.5395  0.6136  0.3741
   45MOL   H30130309   2.057   8.112   0.314 -3.0292  0.6806 -0.1216
   45MOL   H30230310   2.212   7.862   0.171  1.3221 -0.4320 -0.5212
   45MOL   H30330311   2.129   7.658   0.039 -1.0659 -2.1989  0.6051
   45MOL   H30430312   1.990   7.490   0.411  0.3737  1.5262  1.5157
   45MOL   H30530313   2.060   7.687   0.528  0.7401  1.3546  0.1256
   45MOL   H30630314   2.094   7.861   0.655  1.9818 -0.1800 -1.5146
   45MOL   H30730315   1.932   7.995   0.798 -0.0076 -3.6000 -1.3809
   45MOL   C30830316   2.130   7.138   0.309  0.8154  0.2361  0.4765
   45MOL   C30930317   2.056   7.251   0.280  0.0776 -0.6875 -0.0689
   45MOL   C31030318   2.089   7.333   0.168 -0.6054  1.0666 -0.9000
   45MOL   O31130319   2.024   7.448   0.144 -0.1970  0.1473  0.1103
   45MOL   C31230320   2.197   7.279   0.090 -0.1644 -1.2456 -0.5369
   45MOL   C31330321   2.266   7.159   0.116  0.3510 -0.5262  0.3468
   45MOL   C31430322   2.238   7.089   0.229  0.5669  0.1112  0.4258
   45MOL   C31530323   2.318   6.966   0.265  0.2798 -0.4336  0.5469
   45MOL   O31630324   2.344   6.943   0.382  0.0772 -0.1263  0.5437
   45MOL   C31730325   2.381   6.890   0.153  0.2307 -0.3702  0.1860
   45MOL   C31830326   2.311   6.865   0.029  0.1700 -0.3891 -0.7439
   45MOL   C31930327   2.368   6.772   8.246 -0.2404  0.4258  0.7974
   45MOL   C32030328   2.485   6.699   8.279  0.2593  0.7439 -0.3278
   45MOL   O32130329   2.537   6.606   8.193 -0.1271  0.5698  0.4015
   45MOL   C32230330   2.540   6.471   8.215  0.0587  0.4939  0.6414
   45MOL   C32330331   2.476   6.408   0.011 -0.3557  0.3640  0.5083
   45MOL   C32430332   2.502   6.268   0.032  0.1169 -0.3108  1.1527
   45MOL   C32530333   2.573   6.192   8.246  0.1753  0.5672  0.5953
   45MOL   C32630334   2.638   6.261   8.135  0.1211  0.3618 -0.8184
   45MOL   C32730335   2.621   6.400   8.121 -0.0382  0.0872  0.1625
   45MOL   C32830336   2.553   6.736   0.081 -1.2251  0.5004 -0.0851
   45MOL   C32930337   2.511   6.830   0.174  0.4064 -0.3190 -0.0737
   45MOL   H33030338   2.103   7.078   0.394 -1.5165 -0.6088 -0.8338
   45MOL   H33130339   1.973   7.283   0.342  1.1301  1.1869  0.3961
   45MOL   H33230340   2.212   7.336   8.312  0.7812 -1.0184 -0.2480
   45MOL   H33330341   2.340   7.132   0.041  1.1000  0.7295  0.6113
   45MOL   H33430342   2.210   6.901   0.016  1.0539  1.8215 -1.7228
   45MOL   H33530343   2.314   6.747   8.156  0.8250 -3.8262  1.2371
   45MOL   H33630344   2.406   6.451   0.081  1.7548  0.2015  2.7715
   45MOL   H33730345   2.455   6.217   0.115 -2.5076 -0.5482 -0.4042
   45MOL   H33830346   2.687   6.202   8.059 -0.6068 -0.8266 -0.3836
   45MOL   H33930347   2.667   6.454   8.039  0.7221  1.6466  1.5851
   45MOL   H34030348   2.643   6.680   0.105 -0.7351  1.3564  0.0892
   45MOL   H34130349   2.567   6.844   0.265 -0.6901 -1.6501  0.8262
   45MOL   C34230350   2.379   5.767   8.181  0.1950  0.0450 -0.1447
   45MOL   C34330351   2.470   5.857   8.240  0.5572  0.0963 -0.1552
   45MOL   C34430352   2.466   5.989   8.199 -0.4398  0.3111  0.1816
   45MOL   O34530353   2.578   6.056   8.251 -0.0385  0.1609  0.9434
   45MOL   C34630354   2.374   6.034   8.101  0.3721  0.1313 -0.8515
   45MOL   C34730355   2.283   5.942   8.047 -0.2829 -0.3726 -0.4039
   45MOL   C34830356   2.282   5.809   8.092 -0.0371 -0.5128  0.5938
   45MOL   C34930357   2.179   5.724   8.038  0.6126 -0.5635 -0.0234
   45MOL   O35030358   2.067   5.769   8.038 -0.7900  0.1476  0.3243
   45MOL   C35130359   2.216   5.591   7.973  0.2467 -0.1094 -0.2330
   45MOL   C35230360   2.109   5.498   7.955  0.4136 -0.2340  0.0509
   45MOL   C35330361   2.136   5.380   7.899  0.9180  0.1670  0.3935
   45MOL   C35430362   2.265   5.342   7.857 -0.6278 -0.4963 -0.2678
   45MOL   O35530363   2.291   5.223   7.793  0.8203 -0.4575  0.0383
   45MOL   C35630364   2.223   5.200   7.674 -0.0580  0.0650  0.2311
   45MOL   C35730365   2.094   5.139   7.667  0.2619 -0.8778 -0.2352
   45MOL   C35830366   2.029   5.119   7.548 -0.5985  0.6370 -0.3883
   45MOL   C35930367   2.100   5.147   7.430 -0.1260 -0.2796 -0.7075
   45MOL   C36030368   2.232   5.183   7.435  1.0969 -0.2062  0.5133
   45MOL   C36130369   2.291   5.221   7.554 -0.0499  0.4410 -0.1925
   45MOL   C36230370   2.370   5.437   7.868 -0.1563  0.4604 -0.8742
   45MOL   C36330371   2.344   5.564   7.924  0.9675 -0.3778 -0.1824
   45MOL   H36430372   2.379   5.663   8.211  1.1703 -0.3648 -1.4922
   45MOL   H36530373   2.544   5.825   8.311  0.0614  0.1640  0.3970
   45MOL   H36630374   2.381   6.130   8.051 -1.3213  0.6995 -0.0527
   45MOL   H36730375   2.213   5.986   7.978 -0.4392 -0.0369 -0.0274
   45MOL   H36830376   2.011   5.528   7.988  0.0240 -1.7882  0.3571
   45MOL   H36930377   2.056   5.307   7.893  1.2973 -0.1283 -1.5044
   45MOL   H37030378   2.039   5.119   7.758  0.9301  2.2782  0.9375
   45MOL   H37130379   1.925   5.091   7.535  0.1990 -1.0274 -3.4527
   45MOL   H37230380   2.283   5.210   7.343 -3.1789  1.4928 -1.4724
   45MOL   H37330381   2.387   5.272   7.554  0.1698  0.0575  1.5778
   45MOL   H37430382   2.468   5.408   7.833  0.0960  1.0788 -0.6931
   45MOL   H37530383   2.422   5.639   7.929 -0.1797  0.7072  2.1974
   45MOL   C37630384   1.783   5.360   7.179  0.2379 -0.0359 -0.4841
   45MOL   C37730385   1.844   5.246   7.236 -0.1450  0.3323 -0.1437
   45MOL   C37830386   1.986   5.245   7.256  0.1104 -0.0129  0.0421
   45MOL   O37930387   2.051   5.132   7.305 -0.0235  0.5187 -0.2997
   45MOL   C38030388   2.065   5.359   7.228 -0.0583 -0.3800 -0.7339
   45MOL   C38130389   2.003   5.466   7.158  0.3341  0.3952  0.3595
   45MOL   C38230390   1.861   5.476   7.145  0.3394 -0.0943 -0.6224
   45MOL   C38330391   1.799   5.585   7.065 -0.5514  0.3810  0.1785
   45MOL   O38430392   1.756   5.564   6.949  0.0467 -0.4286  0.1324
   45MOL   C38530393   1.802   5.718   7.127  0.4500  0.2770  0.7639
   45MOL   C38630394   1.878   5.761   7.238  0.3725  0.8458  0.0240
   45MOL   C38730395   1.862   5.894   7.277 -0.3719  0.4564  0.3479
   45MOL   C38830396   1.768   5.982   7.217  0.0859  0.1265 -0.1671
   45MOL   O38930397   1.756   6.113   7.251  0.4879  0.1944 -0.2711
   45MOL   C39030398   1.654   6.186   7.200  0.5633 -0.1734  0.1859
   45MOL   C39130399   1.526   6.191   7.260  0.0004  0.2605 -0.3407
   45MOL   C39230400   1.420   6.257   7.194  0.4554 -0.0494  0.2481
   45MOL   C39330401   1.438   6.330   7.075 -0.1094  0.1217 -0.2700
   45MOL   C39430402   1.572   6.342   7.030 -0.2930 -0.5255  0.1039
   45MOL   C39530403   1.674   6.264   7.087 -0.7616 -0.6694 -0.0788
   45MOL   C39630404   1.690   5.935   7.109 -1.1937 -0.5846  0.2265
   45MOL   C39730405   1.701   5.804   7.073  0.8365 -0.3266  0.4288
   45MOL   H39830406   1.675   5.360   7.169  0.3476  0.3811 -1.7667
   45MOL   H39930407   1.786   5.157   7.258 -1.2914  1.1773  0.2694
   45MOL   H40030408   2.170   5.376   7.245 -0.4665  0.5605  1.0411
   45MOL   H40130409   2.069   5.545   7.126 -1.6409  0.5274 -3.6620
   45MOL   H40230410   1.938   5.685   7.285 -1.0346 -1.7564 -2.1834
   45MOL   H40330411   1.919   5.926   7.364 -0.4259  0.3364  0.4279
   45MOL   H40430412   1.504   6.135   7.349  0.5421  0.3327 -0.1605
   45MOL   H40530413   1.321   6.251   7.236  0.6012 -0.0927  0.5884
   45MOL   H40630414   1.589   6.400   6.941 -1.0801  1.4533  1.2005
   45MOL   H40730415   1.779   6.272   7.060 -0.7020  3.1330  0.9352
   45MOL   H40830416   1.616   5.989   7.052 -0.9660 -1.1784 -0.6447
   45MOL   H40930417   1.652   5.779   6.980  0.7355 -1.1355  0.7050
   45MOL   C41030418   1.263   6.701   7.233 -0.2518  0.1524  0.2314
   45MOL   C41130419   1.332   6.622   7.137 -0.5071 -1.2894 -0.7622
   45MOL   C41230420   1.278   6.499   7.100  0.6702  0.5999  0.4763
   45MOL   O41330421   1.341   6.411   7.020  0.3011  0.3435 -0.8427
   45MOL   C41430422   1.152   6.458   7.150  0.9315 -0.6096 -0.7420
   45MOL   C41530423   1.085   6.536   7.245  0.3661 -0.7647  0.4339
   45MOL   C41630424   1.143   6.656   7.294 -0.0842 -0.2563  0.0920
   45MOL   C41730425   1.071   6.733   7.405 -0.6009  1.0480  0.4392
   45MOL   O41830426   0.948   6.722   7.421 -0.0303  0.1442  0.3012
   45MOL   C41930427   1.157   6.802   7.495  0.7143 -0.4813  0.6112
   45MOL   C42030428   1.247   6.742   7.584  0.4748  0.4426 -0.3833
   45MOL   C42130429   1.330   6.817   7.671 -0.3966 -0.7168  0.6234
   45MOL   C42230430   1.329   6.958   7.664 -0.1546  0.2477 -0.1737
   45MOL   O42330431   1.407   7.039   7.739 -0.0319  0.5043 -0.2108
   45MOL   C42430432   1.405   7.023   7.876  0.9555 -0.7929  0.2267
   45MOL   C42530433   1.534   7.036   7.934  0.1207 -0.3282  0.2262
   45MOL   C42630434   1.541   7.021   8.075 -0.4741  0.0707  0.8026
   45MOL   C42730435   1.423   6.992   8.148 -0.2455 -0.2822 -0.3743
   45MOL   C42830436   1.302   6.963   8.086 -0.3986 -1.0095 -0.4855
   45MOL   C42930437   1.288   6.980   7.946 -0.0912 -0.2173  0.2581
   45MOL   C43030438   1.245   7.023   7.569 -0.4603  0.3231 -0.3964
   45MOL   C43130439   1.158   6.945   7.491  0.0230  0.4236 -0.7671
   45MOL   H43230440   1.301   6.798   7.260  1.1508  0.1634 -1.6552
   45MOL   H43330441   1.420   6.666   7.092 -0.1077 -1.8001 -0.4980
   45MOL   H43430442   1.112   6.361   7.121 -1.4672 -0.5530  2.1494
   45MOL   H43530443   0.988   6.510   7.283  0.5960 -0.1914  1.4243
   45MOL   H43630444   1.244   6.635   7.595 -1.7494  0.5769  0.5673
   45MOL   H43730445   1.394   6.771   7.745 -2.1051 -0.9611  1.9854
   45MOL   H43830446   1.624   7.064   7.883  0.0908 -1.1253 -0.2627
   45MOL   H43930447   1.631   7.034   8.132  0.3528  0.2247 -0.5044
   45MOL   H44030448   1.219   6.937   8.149 -1.2613 -0.5385 -1.4128
   45MOL   H44130449   1.198   6.955   7.891 -0.2645 -0.7154  0.7686
   45MOL   H44230450   1.235   7.130   7.564 -0.4801  0.3220 -0.3826
   45MOL   H44330451   1.101   7.002   7.419 -1.4756 -0.2023 -0.0919
   45MOL   C44430452   1.299   7.320   0.087 -0.2138  0.0688 -0.2383
   45MOL   C44530453   1.349   7.217   8.312 -0.3793 -0.3569 -0.3415
   45MOL   C44630454   1.377   7.090   0.051  0.0384  0.6890  0.0537
   45MOL   O44730455   1.424   6.982   8.287 -0.0896 -0.2503  0.0435
   45MOL   C44830456   1.333   7.060   0.181 -0.0280  0.5512 -0.5218
   45MOL   C44930457   1.272   7.162   0.267  0.1499  0.2727  0.5888
   45MOL   C45030458   1.252   7.290   0.213 -0.0728 -0.1218  0.1515
   45MOL   C45130459   1.163   7.381   0.287 -0.8435 -0.1129 -0.3568
   45MOL   O45230460   1.050   7.400   0.239  0.6650  0.1508  0.3722
   45MOL   C45330461   1.217   7.444   0.408  0.2209  0.3634  0.1046
   45MOL   C45430462   1.334   7.393   0.475  0.4200  0.1839  0.0019
   45MOL   C45530463   1.368   7.448   0.600  0.5998  0.1644  0.5969
   45MOL   C45630464   1.292   7.558   0.654  0.0988 -0.3345  0.5125
   45MOL   O45730465   1.325   7.621   0.769 -0.1968 -0.0801 -0.2567
   45MOL   C45830466   1.455   7.640   0.807  0.0237 -0.5670  0.1280
   45MOL   C45930467   1.488   7.617   0.943  0.4197 -0.0148  0.3816
   45MOL   C46030468   1.618   7.624   0.993 -0.2027 -0.9862  0.3443
   45MOL   C46130469   1.718   7.658   0.901 -0.0581  0.2197  0.8557
   45MOL   C46230470   1.689   7.695   0.767  0.5482  0.0126 -0.1993
   45MOL   C46330471   1.559   7.683   0.719  0.2446 -0.2963  0.2147
   45MOL   C46430472   1.176   7.604   0.584 -0.1223 -0.6654 -0.1905
   45MOL   C46530473   1.136   7.549   0.465 -0.5175 -0.3453 -0.1380
   45MOL   H46630474   1.278   7.419   0.051 -0.6639  0.0238 -0.0965
   45MOL   H46730475   1.365   7.255   8.212  0.3664 -2.7208 -1.1688
   45MOL   H46830476   1.344   6.959   0.217  1.4742  0.1675 -2.0103
   45MOL   H46930477   1.240   7.134   0.366 -1.0697  0.1316  0.1640
   45MOL   H47030478   1.395   7.318   0.426  1.2498  0.1434  1.1105
   45MOL   H47130479   1.453   7.414   0.657  0.9533  0.3241  0.1682
   45MOL   H47230480   1.407   7.594   1.010 -2.0650  1.9306 -1.8284
   45MOL   H47330481   1.644   7.610   1.097  2.3872  2.6719  0.3132
   45MOL   H47430482   1.761   7.730   0.695  0.3069 -1.0126 -0.9629
   45MOL   H47530483   1.532   7.680   0.615  0.9117 -2.4434  0.0800
   45MOL   H47630484   1.118   7.684   0.626  1.7170  0.2742  0.6497
   45MOL   H47730485   1.042   7.581   0.423  0.0883  3.5108  1.1759
   45MOL   C47830486   2.145   7.843   1.048  0.1128  0.0152 -0.2578
   45MOL   C47930487   2.064   7.744   0.995 -0.4189  0.2286 -0.0227
   45MOL   C48030488   1.924   7.753   0.994 -0.6558  0.5439  0.3721
   45MOL   O48130489   1.851   7.652   0.937 -0.1931  0.9130 -0.0547
   45MOL   C48230490   1.866   7.864   1.048  0.2359  0.1261 -0.0554
   45MOL   C48330491   1.943   7.959   1.113  0.7591 -0.0859 -0.7368
   45MOL   C48430492   2.085   7.950   1.120 -0.5284 -0.3116 -0.1551
   45MOL   C48530493   2.176   8.053   1.191  0.0890 -0.1769 -0.4085
   45MOL   O48630494   2.281   8.098   1.147  0.1916  0.4509 -0.6132
   45MOL   C48730495   2.135   8.086   1.329  1.2997  0.0170  0.5845
   45MOL   C48830496   2.042   8.006   1.403 -0.2965 -0.1874 -1.1185
   45MOL   C48930497   2.016   8.039   1.539 -0.2161  0.3822 -0.1495
   45MOL   C49030498   2.082   8.141   1.607 -0.0521  0.0397  0.3650
   45MOL   O49130499   2.057   8.165   1.743  0.2439  0.3407  0.2204
   45MOL   C49230500   2.157   8.194   1.831  0.1492  0.0529  0.5775
   45MOL   C49330501   2.196   0.013   1.855  1.0273 -0.5204 -0.0614
   45MOL   C49430502   2.300   0.035   1.948  0.1795  0.3187  0.6023
   45MOL   C49530503   2.349   8.243   2.031 -0.5045 -0.8674  0.1095
   45MOL   C49630504   2.302   8.113   2.010  0.3688  0.3431  0.2585
   45MOL   C49730505   2.209   8.089   1.909  0.3421 -0.1389 -0.2214
   45MOL   C49830506   2.168   8.220   1.530 -0.3196  0.5557 -0.1887
   45MOL   C49930507   2.202   8.194   1.394 -0.5808  0.5368 -0.3271
   45MOL   H50030508   2.252   7.828   1.050  0.1149  0.2393  1.5296
   45MOL   H50130509   2.097   7.656   0.942  0.1432 -1.0802  2.4130
   45MOL   H50230510   1.759   7.863   1.041  0.2039 -1.3643  0.3903
   45MOL   H50330511   1.896   8.049   1.148  1.8694  0.3858 -0.4429
   45MOL   H50430512   1.994   7.915   1.371  0.4494 -1.2337  0.6492
   45MOL   H50530513   1.949   7.971   1.590 -1.7636 -0.2764 -2.9756
   45MOL   H50630514   2.156   0.091   1.791 -0.0653  1.6363  3.1073
   45MOL   H50730515   2.328   0.139   1.948  1.2090  0.0613 -0.6168
   45MOL   H50830516   2.350   8.039   2.073  1.0871 -0.4203 -1.1529
   45MOL   H50930517   2.168   7.989   1.906  0.5971 -0.4749  3.8010
   45MOL   H51030518   2.209   8.301   1.588  1.2392  1.4132 -2.4192
   45MOL   H51130519   2.270   8.253   1.336 -1.0058  0.7968 -0.5648
   45MOL   C51230520   2.383   0.195   2.406  0.2676 -0.6080 -0.1175
   45MOL   C51330521   2.420   0.149   2.275  0.4762  0.7173  0.7213
   45MOL   C51430522   2.401   0.012   2.242 -0.1741  0.3412 -0.4227
   45MOL   O51530523   2.449   8.274   2.128 -0.4844  0.0048  0.2091
   45MOL   C51630524   2.328   8.239   2.325  0.2717  0.3133 -0.2784
   45MOL   C51730525   2.288   8.283   2.455 -0.1879  0.2184 -0.1319
   45MOL   C51830526   2.309   0.109   2.497  0.2668  0.4431  0.0360
   45MOL   C51930527   2.265   0.160   2.633 -0.5631  0.5161 -0.2164
   45MOL   O52030528   2.223   0.271   2.651  0.2087  0.2801 -0.2700
   45MOL   C52130529   2.255   0.056   2.742  0.2062 -0.1157 -0.6382
   45MOL   C52230530   2.359   8.281   2.772  0.5044 -0.3150 -0.7322
   45MOL   C52330531   2.347   8.177   2.866 -0.2141 -0.2666  0.2945
   45MOL   C52430532   2.231   8.172   2.941  0.0305  0.7411 -1.1527
   45MOL   O52530533   2.224   8.080   3.047 -0.2444 -0.4354  0.1782
   45MOL   C52630534   2.164   7.961   3.020 -0.3188  0.2208  0.2366
   45MOL   C52730535   2.238   7.848   2.976 -0.4088 -0.5736  0.4116
   45MOL   C52830536   2.185   7.722   2.964 -0.5986 -0.2951 -0.2832
   45MOL   C52930537   2.047   7.708   2.984  0.0835 -0.3431  0.0348
   45MOL   C53030538   1.970   7.816   3.033 -0.0323 -0.5216 -0.1404
   45MOL   C53130539   2.028   7.948   3.048 -0.7741  0.0125 -0.4309
   45MOL   C53230540   2.125   8.267   2.920 -0.2340  0.3911 -0.1241
   45MOL   C53330541   2.134   0.046   2.808 -0.3035  0.0237  0.2601
   45MOL   H53430542   2.403   0.295   2.441  0.5971 -0.7506  0.1008
   45MOL   H53530543   2.469   0.212   2.203 -1.3477 -0.8373 -1.9492
   45MOL   H53630544   2.320   8.136   2.293  2.1095  0.0678  0.0022
   45MOL   H53730545   2.236   8.208   2.512 -2.5409  0.3715 -2.0175
   45MOL   H53830546   2.449   8.294   2.715  1.6897  0.6366  1.3085
   45MOL   H53930547   2.432   8.111   2.871 -0.1881 -0.2694 -0.1411
   45MOL   H54030548   2.346   7.856   2.969 -0.5742  2.5674  0.9975
   45MOL   H54130549   2.242   7.633   2.943  0.3533  0.4910 -1.1203
   45MOL   H54230550   1.864   7.800   3.046 -0.1016  1.5329  2.4102
   45MOL   H54330551   1.970   8.033   3.082 -0.7539 -0.2307  0.2260
   45MOL   H54430552   2.036   8.250   2.979 -1.3263  2.5903 -1.1066
   45MOL   H54530553   2.057   0.116   2.776  0.3418 -0.0239 -1.4301
   45MOL   C54630554   2.062   7.341   2.712  0.5062  0.3312 -0.0089
   45MOL   C54730555   2.067   7.417   2.831  0.4622  0.0461 -0.1674
   45MOL   C54830556   1.982   7.531   2.846  1.2445 -0.4579  0.7875
   45MOL   O54930557   1.973   7.596   2.965  0.2705 -0.1694  0.0164
   45MOL   C55030558   1.895   7.562   2.742 -0.0690  0.0820  0.5593
   45MOL   C55130559   1.886   7.482   2.620  0.9018 -1.1460 -0.3780
   45MOL   C55230560   1.971   7.366   2.609  0.0987  0.3586  0.0935
   45MOL   C55330561   1.972   7.300   2.471 -0.3089 -0.3694  0.3456
   45MOL   O55430562   1.946   7.367   2.363 -0.0042 -0.3197  0.1449
   45MOL   C55530563   2.021   7.161   2.463  0.2401 -0.5758  0.4725
   45MOL   C55630564   2.080   7.111   2.345  0.4806  0.7867  0.0451
   45MOL   C55730565   2.114   6.975   2.333 -0.6586 -0.7579 -0.3508
   45MOL   C55830566   2.072   6.884   2.426 -0.2356 -0.4453 -0.3384
   45MOL   O55930567   2.090   6.749   2.412 -0.4024 -0.2324 -0.2224
   45MOL   C56030568   1.984   6.671   2.391 -0.0759  0.2940 -0.6839
   45MOL   C56130569   1.952   6.590   2.499  0.5392  0.4324 -0.0133
   45MOL   C56230570   1.856   6.489   2.482 -0.5959 -0.2946 -0.1284
   45MOL   C56330571   1.800   6.463   2.351  0.1781 -0.1158  0.2692
   45MOL   C56430572   1.829   6.552   2.245  0.3532 -0.6406 -0.5724
   45MOL   C56530573   1.924   6.653   2.270  0.8551 -0.6247 -0.3540
   45MOL   C56630574   2.015   6.930   2.548  0.5563  0.8454  0.2253
   45MOL   C56730575   1.992   7.068   2.564  0.3204  0.0660  0.2739
   45MOL   H56830576   2.111   7.245   2.714 -0.5500 -0.2191 -0.1186
   45MOL   H56930577   2.122   7.394   2.921 -0.1551  2.4935  0.8800
   45MOL   H57030578   1.831   7.648   2.755 -0.9403 -0.6335  1.0183
   45MOL   H57130579   1.824   7.509   2.536  0.2856 -2.3773 -0.3359
   45MOL   H57230580   2.101   7.176   2.261 -0.0425  1.8058  0.7070
   45MOL   H57330581   2.149   6.940   2.237  0.1889  0.8183 -0.6320
   45MOL   H57430582   1.992   6.599   2.598 -1.2290  0.8306  0.6957
   45MOL   H57530583   1.838   6.419   2.563 -1.9171  0.0735 -0.0950
   45MOL   H57630584   1.778   6.539   2.151  0.3639  2.5429 -1.0624
   45MOL   H57730585   1.954   6.712   2.185  1.1090 -0.0340  0.1463
   45MOL   H57830586   1.977   6.862   2.623 -0.7152  0.7405 -0.4853
   45MOL   H57930587   1.944   7.096   2.657 -1.6423 -0.9627 -0.4063
   45MOL   C58030588   1.531   6.164   2.081 -1.0450 -0.1953  0.1475
   45MOL   C58130589   1.563   6.229   2.204  0.3752  0.9439  0.2834
   45MOL   C58230590   1.690   6.288   2.219 -0.0256  0.4227 -0.1060
   45MOL   O58330591   1.718   6.354   2.341 -0.1209  0.5197 -0.5278
   45MOL   C58430592   1.785   6.270   2.117  0.0587 -0.2119 -0.5766
   45MOL   C58530593   1.757   6.206   1.999 -0.1372 -0.1548  0.1105
   45MOL   C58630594   1.626   6.161   1.977 -0.5245  0.1396 -0.5617
   45MOL   C58730595   1.587   6.099   1.849  0.2384  0.3249  0.2454
   45MOL   O58830596   1.467   6.103   1.809 -0.3559 -0.7054  0.6772
   45MOL   C58930597   1.701   6.037   1.775 -0.7822  0.3761 -0.3058
   45MOL   C59030598   1.806   5.965   1.838  0.8577  0.1159 -0.6486
   45MOL   C59130599   1.905   5.903   1.763 -0.2775  0.1509  0.3493
   45MOL   C59230600   1.918   5.921   1.631  0.2889  0.0998  0.0108
   45MOL   O59330601   2.028   5.874   1.559 -0.9416  0.4690 -0.0512
   45MOL   C59430602   2.150   5.942   1.571  1.0412 -0.1724  0.2035
   45MOL   C59530603   2.219   5.957   1.451  0.2589  0.3168 -0.5945
   45MOL   C59630604   2.344   6.019   1.451  0.2223 -0.8681 -0.1198
   45MOL   C59730605   2.395   6.074   1.576 -0.2806 -0.0995 -0.8746
   45MOL   C59830606   2.326   6.046   1.703  0.5737 -0.2588  0.9016
   45MOL   C59930607   2.199   5.983   1.697 -0.1353 -0.2461 -0.0566
   45MOL   C60030608   1.814   5.991   1.560 -0.2924  0.1682 -0.1757
   45MOL   C60130609   1.710   6.046   1.633  0.1056 -0.5111 -0.2173
   45MOL   H60230610   1.441   6.110   2.059  0.0923 -1.5428 -1.3363
   45MOL   H60330611   1.491   6.238   2.283  0.5099 -1.1093  0.6698
   45MOL   H60430612   1.886   6.304   2.138  0.1039 -0.2916 -0.6656
   45MOL   H60530613   1.824   6.200   1.915  1.1042  1.0216  0.9919
   45MOL   H60630614   1.810   5.946   1.944  0.1834 -0.1015 -0.6603
   45MOL   H60730615   1.994   5.854   1.801 -1.1210 -2.5464 -1.0200
   45MOL   H60830616   2.171   5.919   1.362  0.6303 -2.2359  0.2742
   45MOL   H60930617   2.403   6.017   1.361  0.6381  1.2119  0.0775
   45MOL   H61030618   2.357   6.085   1.799  2.0161 -1.5768  0.9860
   45MOL   H61130619   2.138   5.975   1.786 -1.8518 -2.1655 -1.3645
   45MOL   H61230620   1.809   6.003   1.453  2.1259 -2.0608 -0.5752
   45MOL   H61330621   1.638   6.113   1.587  1.4431  1.5597  0.6419
   45MOL   C61430622   2.556   6.396   1.339 -0.5557 -0.2928  0.3911
   45MOL   C61530623   2.498   6.293   1.411  0.1837 -0.2432  0.3564
   45MOL   C61630624   2.575   6.220   1.502 -0.0830  0.4749 -0.7114
   45MOL   O61730625   2.522   6.121   1.582 -0.6398  0.2397  0.0391
   45MOL   C61830626   2.717   6.243   1.507  0.1440 -0.0790  0.0696
   45MOL   C61930627   2.776   6.340   1.427  0.5364  0.1368 -0.1688
   45MOL   C62030628   2.695   6.418   1.345 -0.4053 -0.0451 -0.1534
   45MOL   C62130629   2.754   6.527   1.268  1.0471 -0.1364  0.0297
   45MOL   O62230630   2.836   6.602   1.324 -0.1774  0.1326 -0.1431
   45MOL   C62330631   2.705   6.553   1.134  0.1557  0.9577 -0.8282
   45MOL   C62430632   2.621   6.468   1.058 -0.0565 -0.4741 -0.0552
   45MOL   C62530633   2.581   6.495   0.930  0.4349  1.6801 -0.0397
   45MOL   C62630634   2.622   6.616   0.868  0.4419  0.6359  0.2876
   45MOL   O62730635   2.570   6.644   0.738 -1.1513 -0.6313  0.1931
   45MOL   C62830636   2.666   6.674   0.646  0.2255 -0.8879 -0.3074
   45MOL   C62930637   2.658   6.794   0.576  0.1176 -0.3390  0.5211
   45MOL   C63030638   2.760   6.834   0.486 -0.1873 -0.1275  0.6383
   45MOL   C63130639   2.879   6.763   0.476  0.0975 -0.3071  1.1014
   45MOL   C63230640   2.887   6.643   0.545 -0.7995  0.2098 -0.7102
   45MOL   C63330641   2.776   6.590   0.622 -1.1749  0.3574  0.1496
   45MOL   C63430642   2.703   6.706   0.942  0.5294 -0.2687 -0.5079
   45MOL   C63530643   2.745   6.677   1.073  0.5859  0.0281 -0.0844
   45MOL   H63630644   2.486   6.456   1.282 -1.5149 -0.3585  1.4677
   45MOL   H63730645   2.390   6.280   1.415  0.1132  0.8708  2.9252
   45MOL   H63830646   2.764   6.168   1.568 -2.9348 -0.5610  1.9849
   45MOL   H63930647   2.881   6.364   1.433  1.0025 -1.8603  0.1804
   45MOL   H64030648   2.597   6.366   1.087  0.6915 -1.1828 -1.9074
   45MOL   H64130649   2.513   6.427   0.879  2.5795 -2.3007  2.1274
   45MOL   H64230650   2.566   6.851   0.585 -0.2446 -0.4972 -1.8522
   45MOL   H64330651   2.747   6.927   0.433  1.1296  0.4162  1.2351
   45MOL   H64430652   2.977   6.586   0.529 -0.2090  0.4736  1.5306
   45MOL   H64530653   2.776   6.498   0.678 -1.1497 -0.2422 -0.8140
   45MOL   H64630654   2.742   6.795   0.894  0.1350  0.0523 -0.2384
   45MOL   H64730655   2.800   6.754   1.124  1.7548 -0.3360 -0.7721
   45MOL   C64830656   2.856   6.877   0.056 -0.1132 -0.4995 -0.6946
   45MOL   C64930657   2.889   6.810   0.179  0.3899  0.2581 -0.0857
   45MOL   C65030658   2.959   6.872   0.283  0.1809 -0.6214  0.2997
   45MOL   O65130659   2.979   6.818   0.404 -0.0067 -0.2116 -0.4326
   45MOL   C65230660   3.010   7.004   0.258  0.2418  0.1374 -0.1781
   45MOL   C65330661   2.980   7.067   0.134  0.4977 -0.6424  0.6684
   45MOL   C65430662   2.901   7.010   0.033 -0.0273 -0.4790 -0.2265
   45MOL   C65530663   2.888   7.082   8.216 -0.1364  0.1837  0.3766
   45MOL   O65630664   2.907   7.204   8.207 -0.5382  0.1941  0.6826
   45MOL   C65730665   2.851   7.012   8.092 -0.3257  0.0094 -0.0994
   45MOL   C65830666   2.781   7.092   7.997 -0.2879  0.4996 -0.2647
   45MOL   C65930667   2.725   7.027   7.883  0.6267 -0.2531 -0.5232
   45MOL   C66030668   2.743   6.893   7.858 -0.4677  0.0110 -0.3621
   45MOL   O66130669   2.681   6.840   7.746  0.0373 -0.0226 -0.0640
   45MOL   C66230670   2.612   6.727   7.775  0.1379  0.1725  0.4435
   45MOL   C66330671   2.621   6.626   7.682  0.7090 -0.8990 -0.2790
   45MOL   C66430672   2.547   6.507   7.704  0.0178  0.1219  0.5118
   45MOL   C66530673   2.447   6.501   7.813 -0.0618  0.0785  0.1909
   45MOL   C66630674   2.449   6.604   7.906 -0.8622  0.0063 -0.4286
   45MOL   C66730675   2.529   6.712   7.891 -0.1720  0.4606  0.4821
   45MOL   C66830676   2.822   6.815   7.946 -0.2726 -0.4889  0.3299
   45MOL   C66930677   2.874   6.877   8.058  0.4875 -0.0395  0.4932
   45MOL   H67030678   2.794   6.824   8.298  0.9639 -3.9264  0.8546
   45MOL   H67130679   2.834   6.720   0.201 -0.3619 -0.1685 -3.3601
   45MOL   H67230680   3.066   7.059   0.332  2.3096  0.4464 -1.9165
   45MOL   H67330681   3.016   7.168   0.117 -1.9720  0.0462 -0.7497
   45MOL   H67430682   2.762   7.198   8.009 -0.9963  0.3895 -0.4057
   45MOL   H67530683   2.657   7.080   7.817 -1.7411 -0.0273  2.0047
   45MOL   H67630684   2.683   6.633   7.594  0.9092 -0.7636 -0.1285
   45MOL   H67730685   2.568   6.431   7.630  1.0792 -0.0385  0.9627
   45MOL   H67830686   2.382   6.603   7.991  1.1420 -1.3637  1.1809
   45MOL   H67930687   2.513   6.794   7.960 -2.8403  1.9833 -1.8606
   45MOL   H68030688   2.853   6.712   7.934 -0.9666 -0.6839  0.2260
   45MOL   H68130689   2.946   6.820   8.115  0.7352 -2.1238 -1.8300
   45MOL   H68230690   2.380   6.416   7.812 -0.3872  0.3402 -0.8228
   46MOL     C130691   5.699   4.079   6.504 -0.1252  0.1182 -0.0282
   46MOL     C230692   5.750   4.206   6.466 -0.3796 -0.5787  0.4808
   46MOL     C330693   5.893   4.211   6.429  0.0247 -0.3544  1.0868
   46MOL     O430694   5.948   4.333   6.393  0.2153  0.2466  0.1765
   46MOL     C530695   5.972   4.090   6.442  0.1178 -0.7819  0.2291
   46MOL     C630696   5.915   3.968   6.479  0.6610  0.1412  0.1118
   46MOL     C730697   5.778   3.959   6.510  0.4711  0.3361 -0.2868
   46MOL     C830698   5.712   3.829   6.554 -0.2737 -0.6095 -0.1987
   46MOL     O930699   5.778   3.761   6.626  0.0968  0.6507 -0.0860
   46MOL    C1030700   5.580   3.782   6.503  0.1347  0.1576 -0.0759
   46MOL    C1130701   5.500   3.852   6.410 -0.3254  0.5680  0.6855
   46MOL    C1230702   5.373   3.808   6.373  0.2292 -0.3942 -0.2432
   46MOL    C1330703   5.331   3.675   6.406  0.5781 -0.2851  0.4959
   46MOL    O1430704   5.208   3.620   6.360  0.2315  0.8353 -0.3357
   46MOL    C1530705   5.097   3.687   6.404 -0.3424 -0.6345 -0.6738
   46MOL    C1630706   4.998   3.732   6.310  0.0027  0.9813  0.0005
   46MOL    C1730707   4.876   3.789   6.360  0.3169 -0.2648  0.2988
   46MOL    C1830708   4.853   3.795   6.495  0.1211 -0.3514  0.0792
   46MOL    C1930709   4.943   3.735   6.584  0.0671  0.9500 -0.0931
   46MOL    C2030710   5.065   3.682   6.544 -0.0039 -0.2140 -0.3909
   46MOL    C2130711   5.411   3.602   6.493  0.1386 -0.0368  0.2790
   46MOL    C2230712   5.531   3.654   6.547  0.2177 -0.1278  0.1187
   46MOL    H2330713   5.597   4.076   6.539 -0.6925 -0.4296 -1.7050
   46MOL    H2430714   5.685   4.292   6.460 -0.5823 -0.7457  0.2783
   46MOL    H2530715   6.079   4.096   6.429  0.0140  0.2020 -0.1883
   46MOL    H2630716   5.971   3.876   6.489 -1.1434 -1.4554 -3.2669
   46MOL    H2730717   5.524   3.949   6.370 -0.8717  0.2564 -0.4326
   46MOL    H2830718   5.319   3.866   6.300  0.5745 -1.8168 -1.6759
   46MOL    H2930719   5.008   3.726   6.203  2.7200  0.0990  0.2633
   46MOL    H3030720   4.795   3.818   6.295  0.2825  1.5111  1.1095
   46MOL    H3130721   4.925   3.738   6.691 -0.1633  1.6249 -0.1442
   46MOL    H3230722   5.125   3.630   6.618 -2.8050 -1.7138  0.9083
   46MOL    H3330723   5.397   3.499   6.522  1.5151 -0.7255 -1.4314
   46MOL    H3430724   5.586   3.591   6.614 -0.6134 -2.0680 -0.9869
   46MOL    H3530725   6.038   4.316   6.370  0.9255  0.8520  2.4340
   46MOL    C3630726   4.457   3.686   6.690 -0.1467 -0.5194 -0.3741
   46MOL    C3730727   4.588   3.738   6.670  0.7818  0.6093 -0.5322
   46MOL    C3830728   4.624   3.784   6.542 -0.1373 -0.2285  0.4482
   46MOL    O3930729   4.737   3.858   6.529  0.5328 -0.5288 -0.2151
   46MOL    C4030730   4.536   3.770   6.429 -0.0376 -0.0322  0.4940
   46MOL    C4130731   4.408   3.715   6.450 -0.4528 -0.5325 -0.4336
   46MOL    C4230732   4.362   3.674   6.575 -0.3035  0.3115 -0.0139
   46MOL    C4330733   4.226   3.613   6.582  0.0087 -0.0486 -0.3906
   46MOL    O4430734   4.206   3.494   6.611 -0.0207  0.1609 -0.1947
   46MOL    C4530735   4.115   3.705   6.536  0.2339 -0.4955  0.1375
   46MOL    C4630736   4.090   3.838   6.583  0.6112  0.7793 -0.2271
   46MOL    C4730737   3.980   3.917   6.544 -0.3360 -0.2287 -0.1705
   46MOL    C4830738   3.897   3.869   6.443 -0.0569 -0.6303 -0.4600
   46MOL    O4930739   3.783   3.934   6.398 -0.0074  0.4019 -0.1415
   46MOL    C5030740   3.745   4.051   6.458  0.3404  0.3978  0.2264
   46MOL    C5130741   3.804   4.177   6.437  0.1718  0.3881  0.2346
   46MOL    C5230742   3.753   4.294   6.504  0.5174  0.7158  0.9845
   46MOL    C5330743   3.658   4.276   6.599  0.7556  0.4099  0.7233
   46MOL    C5430744   3.607   4.146   6.631 -0.3767  0.4306 -0.2030
   46MOL    C5530745   3.644   4.034   6.552  0.6616 -0.9020 -0.3172
   46MOL    C5630746   3.918   3.736   6.394 -0.2571  0.7748 -0.2157
   46MOL    C5730747   4.027   3.654   6.437 -0.3375 -0.2103 -0.1834
   46MOL    H5830748   4.416   3.668   6.788  0.3443  0.5516  0.0311
   46MOL    H5930749   4.655   3.755   6.753  1.7689  2.8024 -1.7184
   46MOL    H6030750   4.576   3.797   6.333 -0.9188 -0.4057  0.0232
   46MOL    H6130751   4.341   3.707   6.366 -1.3379  1.3077  0.0497
   46MOL    H6230752   4.147   3.869   6.669 -1.0195  0.3433  1.0553
   46MOL    H6330753   3.966   4.008   6.601 -2.5755  0.9256 -2.4661
   46MOL    H6430754   3.877   4.189   6.358  1.6689  1.3114  1.7229
   46MOL    H6530755   3.788   4.393   6.479  0.6685  0.1068 -1.2480
   46MOL    H6630756   3.526   4.139   6.702  0.1665 -1.5010  0.2511
   46MOL    H6730757   3.592   3.941   6.571 -1.3785  0.4083  0.6988
   46MOL    H6830758   3.854   3.702   6.314 -0.4326  1.5822 -0.4305
   46MOL    H6930759   4.048   3.557   6.396 -0.6345 -0.8613  1.1763
   46MOL    C7030760   3.799   4.472   6.963  0.2483  0.2669 -0.6019
   46MOL    C7130761   3.760   4.453   6.827 -0.4912 -0.0179  1.0382
   46MOL    C7230762   3.631   4.406   6.787  0.3878  0.7097 -0.5863
   46MOL    O7330763   3.602   4.384   6.656 -0.4729 -0.3557  0.2712
   46MOL    C7430764   3.532   4.381   6.885 -0.2295  0.0796 -0.3087
   46MOL    C7530765   3.575   4.383   7.020  1.1777  0.3070  0.0244
   46MOL    C7630766   3.697   4.440   7.063  0.9638 -0.1505  0.2856
   46MOL    C7730767   3.733   4.440   7.214  0.5412  0.5515  0.6036
   46MOL    O7830768   3.667   4.378   7.299  0.2557 -0.2196  0.7044
   46MOL    C7930769   3.854   4.517   7.259 -0.1462 -0.6014 -0.0893
   46MOL    C8030770   3.886   4.643   7.205 -0.3988 -0.6038  0.4864
   46MOL    C8130771   4.006   4.707   7.241 -0.0732  0.3263  0.7910
   46MOL    C8230772   4.099   4.637   7.320 -0.3665  0.0444  0.5151
   46MOL    O8330773   4.221   4.698   7.338 -0.1846  0.4310  0.0561
   46MOL    C8430774   4.241   4.773   7.453  0.1549  0.1820  0.3852
   46MOL    C8530775   4.368   4.764   7.512  0.2527 -0.3399 -0.0574
   46MOL    C8630776   4.417   4.846   7.614 -0.0065 -0.0413  0.0865
   46MOL    C8730777   4.323   4.929   7.679 -0.4938  0.3539  0.0078
   46MOL    C8830778   4.188   4.943   7.631  0.2545  0.0644  0.7411
   46MOL    C8930779   4.154   4.865   7.518  0.6405  0.0925  0.8870
   46MOL    C9030780   4.069   4.508   7.375 -0.1788 -0.2149 -0.7764
   46MOL    C9130781   3.947   4.450   7.345  0.3200 -0.2394  0.1147
   46MOL    H9230782   3.895   4.507   6.998  0.1138 -2.0624  2.2549
   46MOL    H9330783   3.830   4.472   6.748 -2.4154 -0.2321 -0.7743
   46MOL    H9430784   3.436   4.342   6.857 -0.2006 -0.0065 -0.2888
   46MOL    H9530785   3.512   4.341   7.097  0.3522  0.5441 -0.5123
   46MOL    H9630786   3.818   4.706   7.150 -0.8183  0.5917  2.3108
   46MOL    H9730787   4.020   4.803   7.193 -0.7176 -0.6683 -1.4603
   46MOL    H9830788   4.440   4.696   7.467  0.5335  0.1140 -0.2990
   46MOL    H9930789   4.512   4.820   7.658 -0.9248 -0.3173  1.9774
   46MOL   H10030790   4.117   5.013   7.673 -0.9058  0.2917 -1.5335
   46MOL   H10130791   4.048   4.859   7.495  0.5035  2.8937  0.6794
   46MOL   H10230792   4.143   4.456   7.434  0.9720  2.4106  0.1882
   46MOL   H10330793   3.926   4.353   7.387 -0.8434  0.1870  0.5453
   46MOL   C10430794   4.351   4.833   8.114 -0.3505 -0.1490  0.3512
   46MOL   C10530795   4.389   4.866   7.984 -0.1614 -0.4007  0.2299
   46MOL   C10630796   4.321   4.962   7.913  0.3715  0.4349  0.4385
   46MOL   O10730797   4.360   4.999   7.788  0.5102 -0.0725  0.4989
   46MOL   C10830798   4.215   5.030   7.977 -0.0828  0.4766 -0.0289
   46MOL   C10930799   4.180   5.001   8.105 -0.1488  0.9331 -0.5546
   46MOL   C11030800   4.243   4.899   8.179  0.1224  0.9591  0.1302
   46MOL   C11130801   4.200   4.847   0.003 -0.0769 -0.2840 -0.2641
   46MOL   O11230802   4.265   4.764   0.062 -0.0216  0.1922 -0.1255
   46MOL   C11330803   4.077   4.893   0.063  0.1162  0.4246 -0.0660
   46MOL   C11430804   3.993   4.791   0.114  0.5145 -0.2990  0.8847
   46MOL   C11530805   3.875   4.822   0.186  0.6092 -0.1558  0.2326
   46MOL   C11630806   3.844   4.955   0.219 -0.0205 -0.5129 -0.0310
   46MOL   O11730807   3.737   5.006   0.285  0.2208  0.5845 -0.2363
   46MOL   C11830808   3.606   4.976   0.241  0.0775  0.5352 -0.3583
   46MOL   C11930809   3.532   5.079   0.180  0.4783  0.0290  0.0663
   46MOL   C12030810   3.394   5.056   0.151 -0.0169  0.4262 -0.0186
   46MOL   C12130811   3.332   4.930   0.169  0.2307 -0.3624 -0.1188
   46MOL   C12230812   3.409   4.821   0.218 -0.0736 -0.1891 -0.5680
   46MOL   C12330813   3.543   4.851   0.254 -0.3985  0.5754 -0.1525
   46MOL   C12430814   3.939   5.053   0.181 -0.1068 -0.2971 -0.4372
   46MOL   C12530815   4.053   5.026   0.099  0.2322 -0.1757  0.1682
   46MOL   H12630816   4.411   4.757   8.163  0.3894 -0.0013 -0.3275
   46MOL   H12730817   4.480   4.823   7.944  0.4252 -0.9823  2.1252
   46MOL   H12830818   4.169   5.107   7.916  0.1075 -0.5187 -1.4647
   46MOL   H12930819   4.112   5.066   8.157  0.1600  0.4152  0.5100
   46MOL   H13030820   4.012   4.687   0.094  0.8392 -0.3841  1.6184
   46MOL   H13130821   3.809   4.738   0.204  3.3203 -2.0593  1.6945
   46MOL   H13230822   3.570   5.179   0.167  1.2635  0.3327  3.9932
   46MOL   H13330823   3.339   5.134   0.101 -0.2284  1.7361  2.1803
   46MOL   H13430824   3.369   4.724   0.240  0.1079  0.2019  1.6531
   46MOL   H13530825   3.592   4.764   0.295 -0.4962 -0.2415 -1.7344
   46MOL   H13630826   3.938   5.158   0.203  0.8368 -0.5898  1.0491
   46MOL   H13730827   4.112   5.105   0.056 -0.2787  0.9749  1.5474
   46MOL   C13830828   2.954   5.158   0.023  0.1852 -0.5764 -0.2301
   46MOL   C13930829   3.034   5.082   0.114  0.1414 -0.2681 -0.5506
   46MOL   C14030830   3.132   4.993   0.066 -0.6565  0.1011  0.2436
   46MOL   O14130831   3.195   4.912   0.151  0.3863  0.1096  0.0881
   46MOL   C14230832   3.147   4.973   8.242 -0.2919 -0.0570  0.3500
   46MOL   C14330833   3.064   5.045   8.148  0.0612 -0.5850  0.1494
   46MOL   C14430834   2.967   5.136   8.199  0.5756 -0.3894  0.5057
   46MOL   C14530835   2.881   5.210   8.108  0.0745 -0.9330  0.6016
   46MOL   O14630836   2.938   5.280   8.020 -0.1122  0.4764 -0.0041
   46MOL   C14730837   2.739   5.224   8.134  0.2331 -0.2046 -0.3504
   46MOL   C14830838   2.661   5.112   8.180 -0.0245 -0.2371  0.9681
   46MOL   C14930839   2.525   5.138   8.209 -0.3766  0.6938 -0.1461
   46MOL   C15030840   2.470   5.267   8.198  0.3539  0.6175 -0.2782
   46MOL   O15130841   2.340   5.287   8.240 -0.1985 -0.5571 -0.3019
   46MOL   C15230842   2.320   5.382   0.024  1.9621 -0.1503 -0.9903
   46MOL   C15330843   2.402   5.386   0.136  0.3974 -0.0822  0.3339
   46MOL   C15430844   2.360   5.471   0.242  0.3104  0.2909  0.3304
   46MOL   C15530845   2.241   5.555   0.237  0.0082 -0.0620  0.5127
   46MOL   C15630846   2.161   5.546   0.122 -0.8247  0.6026  0.9072
   46MOL   C15730847   2.205   5.467   0.013 -0.9197 -0.0130  0.3918
   46MOL   C15830848   2.543   5.379   8.149 -0.3146  0.5922  0.1304
   46MOL   C15930849   2.677   5.354   8.110  0.8635 -0.6357 -0.5663
   46MOL   H16030850   2.884   5.228   0.066 -0.0269 -1.1024  0.2883
   46MOL   H16130851   3.021   5.091   0.221 -0.1488  1.5460 -0.7063
   46MOL   H16230852   3.215   4.898   8.205  1.9395  2.0189  0.1054
   46MOL   H16330853   3.077   5.031   8.042  3.5620  0.9888  0.3039
   46MOL   H16430854   2.709   5.015   8.190  0.9266  0.2713  1.4126
   46MOL   H16530855   2.460   5.065   8.255  1.1430  0.0544  1.0431
   46MOL   H16630856   2.482   5.316   0.154  1.3083  0.7513 -0.4913
   46MOL   H16730857   2.424   5.476   0.330  0.9823 -1.8723 -0.0222
   46MOL   H16830858   2.074   5.609   0.111 -1.6302 -0.8153 -1.3898
   46MOL   H16930859   2.146   5.464   8.235  2.3690  0.1259 -1.8535
   46MOL   H17030860   2.490   5.471   8.129 -1.1678 -0.1231 -0.9760
   46MOL   H17130861   2.741   5.429   8.064  0.2872  1.0378  1.2788
   46MOL   C17230862   2.493   5.788   0.512  0.7389 -0.1626 -0.8481
   46MOL   C17330863   2.380   5.708   0.484  0.5351  0.0200 -0.1742
   46MOL   C17430864   2.309   5.732   0.365  0.6039 -0.4073  0.6654
   46MOL   O17530865   2.209   5.646   0.337  0.0479 -0.2115 -0.3566
   46MOL   C17630866   2.344   5.831   0.271 -0.3180 -0.2973  0.1257
   46MOL   C17730867   2.464   5.904   0.292  0.2576  0.0484  0.4206
   46MOL   C17830868   2.535   5.887   0.415 -0.2093  0.6999 -0.6163
   46MOL   C17930869   2.637   5.981   0.452 -0.0056  0.3889 -0.1502
   46MOL   O18030870   2.681   5.972   0.566  0.4386 -0.3671 -0.0439
   46MOL   C18130871   2.690   6.088   0.362  0.5951 -0.3404 -0.1078
   46MOL   C18230872   2.687   6.220   0.409  0.1439  0.4888 -0.3442
   46MOL   C18330873   2.727   6.328   0.326 -0.3109  0.1099 -0.2714
   46MOL   C18430874   2.777   6.302   0.197 -0.1337  0.7410 -0.2484
   46MOL   O18530875   2.822   6.403   0.115 -0.0866  0.2278  0.7416
   46MOL   C18630876   2.953   6.439   0.104 -0.5977 -0.3612 -0.3409
   46MOL   C18730877   3.002   6.484   8.295  0.2885 -0.3147  0.2828
   46MOL   C18830878   3.136   6.524   8.275 -0.1263  0.8024 -0.0620
   46MOL   C18930879   3.229   6.485   0.057  0.4739  0.5394  0.3594
   46MOL   C19030880   3.184   6.451   0.185 -0.0483 -0.1812  0.1817
   46MOL   C19130881   3.047   6.426   0.209 -0.0467  0.0067  0.9941
   46MOL   C19230882   2.792   6.171   0.153 -0.2909 -0.1448 -0.1209
   46MOL   C19330883   2.745   6.068   0.235 -0.1751  0.0227  0.4753
   46MOL   H19430884   2.533   5.774   0.611 -0.1752  0.2642 -0.4175
   46MOL   H19530885   2.339   5.633   0.551  0.9514  0.5107  0.6445
   46MOL   H19630886   2.294   5.841   0.176  0.8234 -1.0001 -0.5551
   46MOL   H19730887   2.497   5.976   0.219  2.8054 -2.0588 -0.5870
   46MOL   H19830888   2.643   6.237   0.506  1.9960 -1.5428  0.9000
   46MOL   H19930889   2.714   6.429   0.361 -1.0543 -0.2607  0.5335
   46MOL   H20030890   2.934   6.481   8.211 -0.1275 -0.4523  0.6243
   46MOL   H20130891   3.172   6.576   8.188 -0.4452 -0.5292 -0.9952
   46MOL   H20230892   3.255   6.428   0.263 -1.5008 -0.2133  1.5294
   46MOL   H20330893   3.006   6.399   0.305  0.9376 -1.0817  1.1194
   46MOL   H20430894   2.841   6.149   0.060  0.0682 -0.2617  0.0954
   46MOL   H20530895   2.740   5.969   0.191 -0.6882  0.0076  0.5663
   46MOL   C20630896   3.552   6.204   8.207 -0.6402 -0.4500  0.1094
   46MOL   C20730897   3.480   6.323   8.212  0.0668  0.3521  0.2269
   46MOL   C20830898   3.446   6.385   0.020  0.3082  0.0106 -0.9127
   46MOL   O20930899   3.362   6.494   0.027  0.8402 -0.4827 -0.1759
   46MOL   C21030900   3.500   6.332   0.141  0.1549 -0.6614  0.0423
   46MOL   C21130901   3.582   6.213   0.131  0.0207 -0.3289 -0.2349
   46MOL   C21230902   3.609   6.151   0.011  0.1025 -0.2078 -0.3688
   46MOL   C21330903   3.678   6.025   0.011  0.5981  0.1797  0.2474
   46MOL   O21430904   3.641   5.930   0.084 -0.1338 -0.2695  0.0270
   46MOL   C21530905   3.801   6.017   8.234  0.0810  0.5116 -0.1301
   46MOL   C21630906   3.861   6.125   8.165  0.2085  0.2456  0.1310
   46MOL   C21730907   3.964   6.096   8.080  0.2904  0.4780 -0.0877
   46MOL   C21830908   4.020   5.965   8.070  0.3274  0.1078 -0.3930
   46MOL   O21930909   4.117   5.935   7.979 -0.0883  0.0255  0.6513
   46MOL   C22030910   4.246   5.897   8.031 -0.1262  0.7829  0.6437
   46MOL   C22130911   4.276   5.758   8.021  0.7390  0.0064  0.3114
   46MOL   C22230912   4.409   5.717   8.053  0.4526 -0.2231 -0.1929
   46MOL   C22330913   4.508   5.813   8.089 -0.9931  0.3726  0.1748
   46MOL   C22430914   4.478   5.948   8.083  0.6655 -0.4881  0.0834
   46MOL   C22530915   4.351   5.992   8.048 -0.8090 -0.2109  0.3330
   46MOL   C22630916   3.957   5.856   8.137 -0.4420  0.1743 -0.6143
   46MOL   C22730917   3.846   5.884   8.216  0.2080 -0.0540 -0.3128
   46MOL   H22830918   3.563   6.160   8.109 -2.4310 -0.5792 -0.0468
   46MOL   H22930919   3.446   6.372   8.122  1.4305  0.8276 -0.0319
   46MOL   H23030920   3.464   6.375   0.234 -0.3248 -0.1859 -0.3611
   46MOL   H23130921   3.619   6.185   0.229 -0.1477  1.3964  0.3527
   46MOL   H23230922   3.829   6.227   8.184 -0.1069  0.4228 -1.3279
   46MOL   H23330923   4.018   6.179   8.037  0.8216 -0.6553 -1.6738
   46MOL   H23430924   4.203   5.680   8.005  0.6080 -0.3743  2.7072
   46MOL   H23530925   4.425   5.611   8.063  3.5236  0.2685  0.3891
   46MOL   H23630926   4.551   6.022   8.113 -0.5980  0.4011  1.0035
   46MOL   H23730927   4.326   6.095   8.029  0.4171  0.5712  2.7417
   46MOL   H23830928   3.984   5.752   8.141 -3.5714 -0.6679  0.8322
   46MOL   H23930929   3.802   5.804   8.273  0.6178 -0.7369 -0.9455
   46MOL   C24030930   4.778   5.630   0.118 -0.0787  0.7584 -0.0064
   46MOL   C24130931   4.732   5.645   8.298 -0.3811  0.4612 -0.1933
   46MOL   C24230932   4.658   5.758   8.260 -0.2602 -0.1332  0.0204
   46MOL   O24330933   4.633   5.768   8.128 -0.5851  0.1961 -0.1318
   46MOL   C24430934   4.630   5.855   0.042 -0.1151  0.6803  0.1417
   46MOL   C24530935   4.669   5.842   0.174 -0.5539  0.0576 -0.7164
   46MOL   C24630936   4.750   5.729   0.216 -0.2069 -0.9254 -0.0676
   46MOL   C24730937   4.798   5.722   0.355 -0.3907 -0.2938  0.7082
   46MOL   O24830938   4.726   5.757   0.452 -0.2142 -0.1075  0.0881
   46MOL   C24930939   4.934   5.659   0.367  0.1959  0.0195  0.4723
   46MOL   C25030940   4.964   5.568   0.474  0.3256  0.6378  0.2837
   46MOL   C25130941   5.096   5.514   0.488  0.0688 -0.0320 -0.2791
   46MOL   C25230942   5.199   5.550   0.393 -0.1208 -0.1404 -0.0975
   46MOL   O25330943   5.328   5.499   0.405 -0.3206  0.0131  0.4134
   46MOL   C25430944   5.348   5.382   0.348 -0.7029  0.0644  0.0556
   46MOL   C25530945   5.311   5.259   0.403  1.2913 -0.3154 -0.5978
   46MOL   C25630946   5.355   5.137   0.353  0.1972  0.7772  0.4297
   46MOL   C25730947   5.427   5.138   0.233  0.1022 -0.4822  1.0823
   46MOL   C25830948   5.469   5.258   0.179 -0.0666  0.5273  0.4287
   46MOL   C25930949   5.430   5.382   0.229 -0.4358 -0.4176 -0.0377
   46MOL   C26030950   5.165   5.638   0.292  0.6393  0.2698 -0.2214
   46MOL   C26130951   5.039   5.691   0.275 -0.7257 -1.0218  0.0596
   46MOL   H26230952   4.844   5.547   0.139 -0.7697  0.5590  1.4172
   46MOL   H26330953   4.760   5.570   8.225  0.0009  1.5251 -1.1552
   46MOL   H26430954   4.586   5.949   0.010 -0.0988 -0.0684 -2.1435
   46MOL   H26530955   4.632   5.919   0.240  1.2710 -0.8394  1.4064
   46MOL   H26630956   4.878   5.539   0.532 -0.5477  0.1589 -1.2074
   46MOL   H26730957   5.121   5.451   0.572  1.9669  1.7516  0.5413
   46MOL   H26830958   5.257   5.256   0.497 -0.5391 -1.4411 -1.6611
   46MOL   H26930959   5.328   5.050   0.412 -2.6352  0.5483 -1.1100
   46MOL   H27030960   5.540   5.255   0.098  0.7506 -0.1654  1.1596
   46MOL   H27130961   5.465   5.476   0.188  2.0229 -1.5083 -0.4868
   46MOL   H27230962   5.243   5.657   0.220  1.8422 -1.0529  0.7136
   46MOL   H27330963   5.029   5.768   0.199  2.5524 -1.7150 -1.1485
   46MOL   C27430964   5.435   4.678   0.286 -0.0590 -0.0474 -0.0038
   46MOL   C27530965   5.407   4.798   0.212 -0.0862 -0.1036 -0.4883
   46MOL   C27630966   5.492   4.911   0.232  0.5004 -0.2314  0.5338
   46MOL   O27730967   5.461   5.025   0.161  0.0057 -0.4996  0.5601
   46MOL   C27830968   5.607   4.903   0.314 -0.0566  0.2771 -0.7811
   46MOL   C27930969   5.626   4.789   0.396  0.0556  1.0903  0.1239
   46MOL   C28030970   5.535   4.678   0.384 -0.2317 -0.1634  0.0503
   46MOL   C28130971   5.572   4.553   0.463  0.1195  0.5512  0.3276
   46MOL   O28230972   5.692   4.533   0.478  0.5020 -0.4787  0.3723
   46MOL   C28330973   5.467   4.472   0.536  0.9080  0.0860  0.9742
   46MOL   C28430974   5.333   4.515   0.556 -0.7476 -0.0594 -0.2753
   46MOL   C28530975   5.236   4.437   0.615  0.5101 -0.4281  0.1301
   46MOL   C28630976   5.278   4.315   0.663  0.2376  0.1493  0.5244
   46MOL   O28730977   5.181   4.235   0.726  0.1472  0.4433  0.2204
   46MOL   C28830978   5.143   4.270   0.854 -0.5031 -0.4799 -0.7167
   46MOL   C28930979   5.028   4.348   0.879 -0.4106  0.0238 -0.1950
   46MOL   C29030980   4.993   4.377   1.012 -0.5221 -0.4289 -0.2411
   46MOL   C29130981   5.066   4.324   1.116  0.3331 -0.1356  0.3040
   46MOL   C29230982   5.170   4.235   1.096  1.0969  0.0536  0.1702
   46MOL   C29330983   5.215   4.215   0.969  0.2394 -0.0647  0.1371
   46MOL   C29430984   5.408   4.265   0.651 -0.0103  0.0598  0.3619
   46MOL   C29530985   5.506   4.344   0.585  0.2158 -0.4853 -0.5332
   46MOL   H29630986   5.372   4.592   0.273 -1.3796  0.9442 -0.3772
   46MOL   H29730987   5.323   4.805   0.145 -0.8370  1.2066  0.5877
   46MOL   H29830988   5.669   4.991   0.321 -0.5466  0.8536 -3.3891
   46MOL   H29930989   5.717   4.786   0.454  0.1294  0.2931 -0.0245
   46MOL   H30030990   5.307   4.615   0.524 -1.0571  0.2369  0.8862
   46MOL   H30130991   5.138   4.484   0.620  1.7473  2.5537 -2.1829
   46MOL   H30230992   4.966   4.388   0.800 -0.8308 -0.3996 -0.0854
   46MOL   H30330993   4.910   4.438   1.045  0.8480  0.8479  0.9181
   46MOL   H30430994   5.222   4.184   1.175 -0.9191 -1.3006  0.6455
   46MOL   H30530995   5.289   4.141   0.942  0.4896  0.0560  0.4865
   46MOL   H30630996   5.444   4.172   0.694 -3.1087 -1.7189 -0.7061
   46MOL   H30730997   5.605   4.304   0.573 -0.2211 -2.1631  1.2934
   46MOL   C30830998   5.179   4.660   1.346  0.4910 -0.4733  0.5260
   46MOL   C30930999   5.155   4.542   1.271  0.3112 -0.6664  0.1962
   46MOL   C31031000   5.066   4.449   1.315 -0.0220  0.0171  0.2759
   46MOL   O31131001   5.026   4.343   1.243  0.5077  0.1517 -0.3740
   46MOL   C31231002   4.999   4.470   1.434 -0.3871 -0.6562  0.1548
   46MOL   C31331003   5.024   4.582   1.518  0.3543 -0.1559  0.4888
   46MOL   C31431004   5.118   4.677   1.475  0.1097  0.4223  0.0201
   46MOL   C31531005   5.149   4.797   1.555 -0.2385  0.0407 -0.1005
   46MOL   O31631006   5.176   4.902   1.504  0.2606 -0.5406  0.7253
   46MOL   C31731007   5.159   4.777   1.703 -0.4360 -0.5992 -0.1347
   46MOL   C31831008   5.204   4.652   1.751 -0.5843 -0.4783 -0.0704
   46MOL   C31931009   5.212   4.636   1.894  0.0696 -0.9048 -0.4772
   46MOL   C32031010   5.172   4.733   1.981 -0.0698  0.2196 -0.3624
   46MOL   O32131011   5.189   4.709   2.117 -0.3764 -0.1971 -0.0563
   46MOL   C32231012   5.107   4.769   2.212  0.3157  0.1409  0.8997
   46MOL   C32331013   4.971   4.733   2.222 -0.1393 -0.1687  0.7733
   46MOL   C32431014   4.888   4.803   2.305 -0.6452  1.0203  0.1517
   46MOL   C32531015   4.942   4.897   2.392  0.4286  0.9306  0.3725
   46MOL   C32631016   5.070   4.940   2.377 -0.1344 -0.1949 -0.1768
   46MOL   C32731017   5.155   4.875   2.286  0.4433 -0.1437  0.3608
   46MOL   C32831018   5.130   4.858   1.929 -0.2570 -0.3272 -0.0331
   46MOL   C32931019   5.128   4.882   1.792  0.0186  0.0094  0.0025
   46MOL   H33031020   5.248   4.734   1.310  0.2675 -0.8503 -0.7139
   46MOL   H33131021   5.209   4.527   1.178 -2.6565 -0.3627 -1.6296
   46MOL   H33231022   4.936   4.389   1.468  0.0683 -0.8580  0.5310
   46MOL   H33331023   4.966   4.594   1.608 -2.0442  3.1587 -1.3717
   46MOL   H33431024   5.239   4.584   1.674  2.4904  1.6778 -0.6829
   46MOL   H33531025   5.256   4.544   1.930 -0.3426 -0.3202  1.6023
   46MOL   H33631026   4.940   4.649   2.161  0.0452  1.0534 -1.0539
   46MOL   H33731027   4.782   4.786   2.308 -1.0396  2.3753 -3.3125
   46MOL   H33831028   5.115   5.025   2.426 -1.2564  0.3686 -0.1243
   46MOL   H33931029   5.258   4.906   2.281  0.0465  1.0271 -1.0033
   46MOL   H34031030   5.099   4.937   1.996 -1.7241 -1.2128  0.3662
   46MOL   H34131031   5.104   4.985   1.773 -0.6618  0.0871  1.2572
   46MOL   C34231032   4.537   5.091   2.588  0.2941  0.5627  0.2419
   46MOL   C34331033   4.658   5.024   2.594  0.2210  0.5443  0.1719
   46MOL   C34431034   4.736   5.014   2.482  0.4803 -0.1472  0.4361
   46MOL   O34531035   4.866   4.957   2.497  0.4547 -0.7165  0.2021
   46MOL   C34631036   4.683   5.061   2.357 -0.0038  0.5773 -0.1380
   46MOL   C34731037   4.568   5.140   2.351  0.1824 -0.1082  0.2961
   46MOL   C34831038   4.488   5.155   2.468 -0.2434  0.6570 -0.4921
   46MOL   C34931039   4.365   5.239   2.473 -0.4930  0.0665 -0.0281
   46MOL   O35031040   4.296   5.253   2.573  0.3260  0.2483 -0.3843
   46MOL   C35131041   4.327   5.304   2.346 -0.0590  1.0799  0.2269
   46MOL   C35231042   4.202   5.276   2.292  0.8118  0.0849  0.5153
   46MOL   C35331043   4.152   5.345   2.183 -0.4036 -0.2643 -0.4581
   46MOL   C35431044   4.230   5.444   2.122  0.5465  1.0779 -0.4997
   46MOL   O35531045   4.178   5.503   2.011 -0.5111  0.8122 -0.4875
   46MOL   C35631046   4.221   5.459   1.884 -0.6181  0.2409 -0.2092
   46MOL   C35731047   4.176   5.341   1.831 -1.0539  0.7068  0.2781
   46MOL   C35831048   4.207   5.303   1.695  0.2074  0.1834 -0.5448
   46MOL   C35931049   4.282   5.389   1.617 -0.6942 -0.1411 -0.2025
   46MOL   C36031050   4.331   5.508   1.675 -0.3542 -0.3498 -0.7152
   46MOL   C36131051   4.302   5.543   1.809 -0.8946  0.4006 -0.2935
   46MOL   C36231052   4.362   5.472   2.176 -0.0526  0.0151  0.0765
   46MOL   C36331053   4.412   5.406   2.288  0.9564  1.0010 -0.0820
   46MOL   H36431054   4.481   5.108   2.678 -1.6281 -1.4477 -0.5162
   46MOL   H36531055   4.689   4.977   2.686 -1.8426 -0.9165  0.1509
   46MOL   H36631056   4.736   5.048   2.264  1.4971 -0.3491  0.8322
   46MOL   H36731057   4.534   5.164   2.251 -0.0501  0.4215  0.5025
   46MOL   H36831058   4.130   5.218   2.347 -0.4605  2.7397  1.7622
   46MOL   H36931059   4.050   5.326   2.151 -0.4861  0.8182 -0.8648
   46MOL   H37031060   4.124   5.271   1.895  0.3217  0.0370  0.6949
   46MOL   H37131061   4.183   5.208   1.651  1.7676 -1.0227  1.1106
   46MOL   H37231062   4.390   5.574   1.613  2.4602 -2.5894 -0.5200
   46MOL   H37331063   4.345   5.634   1.851 -1.3194 -0.1401  1.3428
   46MOL   H37431064   4.420   5.542   2.118 -0.4723 -0.2534 -0.6617
   46MOL   H37531065   4.513   5.425   2.321  2.1128 -2.8431 -1.0485
   46MOL   C37631066   4.655   5.239   1.467  1.3678  0.2316  0.3251
   46MOL   C37731067   4.521   5.248   1.510  0.2220 -0.3697 -0.5406
   46MOL   C37831068   4.440   5.354   1.459  0.3075  0.2319 -0.0686
   46MOL   O37931069   4.306   5.365   1.488 -0.2456  0.0871  0.0197
   46MOL   C38031070   4.488   5.435   1.361 -0.7527  0.7306  0.0707
   46MOL   C38131071   4.616   5.427   1.309  0.1690 -0.5929  0.9103
   46MOL   C38231072   4.700   5.326   1.366  0.6508 -0.0568  0.5018
   46MOL   C38331073   4.838   5.327   1.315  0.2506 -0.8335 -0.4646
   46MOL   O38431074   4.870   5.289   1.204  0.5550  0.8179  0.2507
   46MOL   C38531075   4.935   5.381   1.410  0.7436 -0.4133  0.2165
   46MOL   C38631076   4.928   5.351   1.550  0.0124  0.2020  0.4390
   46MOL   C38731077   5.018   5.408   1.637 -0.0469  1.1491  0.2896
   46MOL   C38831078   5.125   5.491   1.595  0.4464 -0.4448  0.5048
   46MOL   O38931079   5.227   5.537   1.686  0.0068 -0.1336  0.6604
   46MOL   C39031080   5.196   5.572   1.815  0.4447  0.1977 -0.2797
   46MOL   C39131081   5.076   5.639   1.848  0.1125  0.2159  0.7542
   46MOL   C39231082   5.043   5.682   1.975  0.0693 -0.0551 -0.1233
   46MOL   C39331083   5.131   5.652   2.081 -0.1791  0.2550  0.6360
   46MOL   C39431084   5.251   5.587   2.054 -0.7936 -0.5400  1.0460
   46MOL   C39531085   5.283   5.546   1.922 -0.0714  0.2332 -0.0330
   46MOL   C39631086   5.134   5.519   1.460 -0.5626  0.0968 -0.4469
   46MOL   C39731087   5.045   5.463   1.371 -0.2996 -1.3417 -0.3199
   46MOL   H39831088   4.713   5.160   1.512 -1.0400 -2.1403 -0.6045
   46MOL   H39931089   4.482   5.167   1.570  0.3425 -0.3154 -0.3902
   46MOL   H40031090   4.421   5.504   1.312  1.0298  0.0410 -3.5483
   46MOL   H40131091   4.645   5.492   1.228  2.5102  0.0082  2.1842
   46MOL   H40231092   4.852   5.286   1.591  1.8776 -0.8272  2.3334
   46MOL   H40331093   5.006   5.396   1.744  0.2716  2.8567  0.5251
   46MOL   H40431094   5.004   5.660   1.771  0.0709  1.6323  1.1755
   46MOL   H40531095   4.950   5.736   1.982  0.6711  0.9306  0.5719
   46MOL   H40631096   5.324   5.562   2.130  1.3703 -1.9078 -1.4209
   46MOL   H40731097   5.376   5.500   1.894 -0.8742 -1.2812 -0.2683
   46MOL   H40831098   5.213   5.581   1.421 -1.6785  2.3843  0.8057
   46MOL   H40931099   5.052   5.485   1.266 -0.4316 -2.8319 -0.6621
   46MOL   C41031100   5.040   6.021   2.337  0.0708  0.2195  0.2426
   46MOL   C41131101   5.024   5.899   2.267 -1.0248 -0.1231  0.8804
   46MOL   C41231102   5.128   5.808   2.268  0.1665 -0.3284 -0.0090
   46MOL   O41331103   5.100   5.686   2.207 -0.0949 -0.1840 -0.0397
   46MOL   C41431104   5.258   5.846   2.324 -0.1025  0.2623  0.3957
   46MOL   C41531105   5.273   5.966   2.391 -0.5095  0.1803  0.2137
   46MOL   C41631106   5.164   6.059   2.398  0.2200  0.1089  0.1023
   46MOL   C41731107   5.166   6.176   2.493 -0.0287  0.5668 -0.0288
   46MOL   O41831108   5.056   6.220   2.525 -0.2986  0.4728  0.6058
   46MOL   C41931109   5.296   6.234   2.530  0.1856  0.0297 -0.1513
   46MOL   C42031110   5.338   6.246   2.661  0.3938 -0.8976  0.1066
   46MOL   C42131111   5.452   6.318   2.700 -0.2505 -0.0318  0.3053
   46MOL   C42231112   5.527   6.381   2.597  0.2372 -0.5394  0.2573
   46MOL   O42331113   5.639   6.458   2.624  0.1567  0.0191  0.3323
   46MOL   C42431114   5.621   6.579   2.688  0.2006  0.1155 -0.3513
   46MOL   C42531115   5.593   6.589   2.825  0.5530 -0.2652 -0.2569
   46MOL   C42631116   5.559   6.713   2.880  0.7327 -0.2430  0.1685
   46MOL   C42731117   5.555   6.831   2.801 -0.5569 -0.6103 -0.3080
   46MOL   C42831118   5.596   6.825   2.665  0.3920 -0.1045 -0.5918
   46MOL   C42931119   5.627   6.697   2.614 -0.2491 -0.3268  0.4938
   46MOL   C43031120   5.487   6.361   2.459  0.5182 -0.7800 -0.2148
   46MOL   C43131121   5.382   6.279   2.427  0.6566  0.4622 -0.3612
   46MOL   H43231122   4.955   6.088   2.335 -0.2361 -0.1344 -4.6031
   46MOL   H43331123   4.936   5.874   2.209  0.4534  0.0145 -1.4473
   46MOL   H43431124   5.342   5.778   2.313 -1.5219 -1.6490  1.0881
   46MOL   H43531125   5.372   5.992   2.426 -0.8644  0.0033  1.3761
   46MOL   H43631126   5.273   6.203   2.736 -1.1238 -0.1892 -0.7829
   46MOL   H43731127   5.474   6.318   2.805 -0.8809 -1.6200  0.4539
   46MOL   H43831128   5.595   6.507   2.896  2.8071 -0.5032 -0.5685
   46MOL   H43931129   5.538   6.728   2.985  1.6541  0.2345  0.2864
   46MOL   H44031130   5.601   6.910   2.599 -2.8375  0.2501 -0.4423
   46MOL   H44131131   5.649   6.693   2.508  2.1131  0.2284  0.9329
   46MOL   H44231132   5.540   6.412   2.380 -0.1161  0.0891 -0.0849
   46MOL   H44331133   5.369   6.265   2.320 -2.2864  2.2312 -0.3059
   46MOL   C44431134   5.336   7.247   2.701  0.1538  0.0783 -0.2439
   46MOL   C44531135   5.439   7.160   2.748 -0.2013  0.0315  0.3178
   46MOL   C44631136   5.417   7.031   2.799 -0.2126  0.0693 -0.0564
   46MOL   O44731137   5.508   6.947   2.858 -0.6286  0.0682 -0.2393
   46MOL   C44831138   5.283   6.986   2.788  0.2890 -0.2787  0.6939
   46MOL   C44931139   5.179   7.066   2.742  0.7454  0.2914  0.0618
   46MOL   C45031140   5.205   7.195   2.693 -0.0295 -0.2740  0.9744
   46MOL   C45131141   5.101   7.288   2.651 -0.6175 -0.3873  0.8545
   46MOL   O45231142   5.103   7.409   2.670  0.5578 -0.0802 -0.0831
   46MOL   C45331143   4.990   7.228   2.566  0.6788 -0.0845 -0.2229
   46MOL   C45431144   5.015   7.132   2.459  0.6462  0.4409 -0.6553
   46MOL   C45531145   4.900   7.071   2.405  0.0459 -0.3265 -0.0655
   46MOL   C45631146   4.771   7.113   2.439 -0.2087  0.4148  0.5244
   46MOL   O45731147   4.664   7.054   2.383  0.1342  0.0098  0.0165
   46MOL   C45831148   4.627   6.937   2.430 -0.0099 -0.3300 -0.7915
   46MOL   C45931149   4.545   6.858   2.343  0.2219  0.1365  0.0913
   46MOL   C46031150   4.506   6.729   2.382  0.0910 -0.5411  0.7891
   46MOL   C46131151   4.557   6.670   2.503 -0.3276 -0.3799  1.0961
   46MOL   C46231152   4.641   6.751   2.591  0.3552 -0.5163  0.8582
   46MOL   C46331153   4.672   6.886   2.555  0.2326 -0.8777  0.3090
   46MOL   C46431154   4.750   7.209   2.535 -0.4574  0.5797  0.1756
   46MOL   C46531155   4.859   7.267   2.605 -0.4106 -0.8935  0.0056
   46MOL   H46631156   5.361   7.345   2.663 -1.2639  0.6483  0.2546
   46MOL   H46731157   5.541   7.194   2.759  0.0520 -0.3438 -0.7995
   46MOL   H46831158   5.263   6.885   2.821 -2.2803  0.0290  0.1262
   46MOL   H46931159   5.075   7.035   2.749 -0.7432  4.3614 -2.2492
   46MOL   H47031160   5.112   7.093   2.431  2.2665  2.0763  2.4557
   46MOL   H47131161   4.908   7.003   2.322  0.2647  1.2764 -1.3760
   46MOL   H47231162   4.509   6.910   2.256  1.5935 -0.2452 -0.7291
   46MOL   H47331163   4.441   6.666   2.323 -0.1450  0.0149  0.4406
   46MOL   H47431164   4.670   6.706   2.684  2.3781  1.8341  1.4229
   46MOL   H47531165   4.733   6.954   2.614  0.8343 -0.0230 -1.2767
   46MOL   H47631166   4.650   7.244   2.557  0.1057  2.8939 -0.8046
   46MOL   H47731167   4.836   7.340   2.681  1.2946 -0.9852  0.6314
   46MOL   C47831168   4.329   6.394   2.831  0.8246  0.1422  0.0599
   46MOL   C47931169   4.435   6.426   2.741  0.6270 -0.4829 -0.1025
   46MOL   C48031170   4.417   6.521   2.633 -0.5442  0.0081 -0.3684
   46MOL   O48131171   4.521   6.540   2.537  0.7535 -0.1994 -0.1224
   46MOL   C48231172   4.290   6.590   2.628 -0.4979  0.3351 -0.5251
   46MOL   C48331173   4.184   6.558   2.714 -0.1572  0.7324 -0.0971
   46MOL   C48431174   4.205   6.461   2.814  0.4519  0.8031  0.5022
   46MOL   C48531175   4.089   6.411   2.890  0.3481  0.4127 -0.3127
   46MOL   O48631176   4.097   6.384   3.010 -0.1363  0.4284 -0.2020
   46MOL   C48731177   3.961   6.384   2.819  0.1224  0.1906  0.2196
   46MOL   C48831178   3.843   6.363   2.898 -1.1538  0.0036 -0.2765
   46MOL   C48931179   3.716   6.353   2.839 -0.0050 -0.2815 -0.3951
   46MOL   C49031180   3.703   6.347   2.699  0.0957 -0.4335 -0.0478
   46MOL   O49131181   3.581   6.336   2.642 -0.2256 -0.0080 -0.2550
   46MOL   C49231182   3.549   6.411   2.535 -0.6624 -0.3090  0.1858
   46MOL   C49331183   3.498   6.546   2.541  0.9370  0.0162  0.3114
   46MOL   C49431184   3.490   6.626   2.424  0.1913  0.1395  0.5798
   46MOL   C49531185   3.506   6.571   2.292 -0.5025  0.0503  0.3811
   46MOL   C49631186   3.542   6.436   2.291 -0.1027 -0.0588 -0.1078
   46MOL   C49731187   3.562   6.360   2.407  0.3061 -0.0678 -0.0204
   46MOL   C49831188   3.819   6.355   2.619 -0.0207 -0.4580  0.1518
   46MOL   C49931189   3.948   6.372   2.680  0.2718 -0.2378 -0.0217
   46MOL   H50031190   4.334   6.306   2.893 -1.1417  1.6771  2.5104
   46MOL   H50131191   4.525   6.365   2.739  1.1963  0.3882 -2.2995
   46MOL   H50231192   4.271   6.665   2.553  2.3923  0.3446 -1.3274
   46MOL   H50331193   4.091   6.612   2.707 -0.2267  0.8118  1.2964
   46MOL   H50431194   3.837   6.350   3.006  0.7096  1.2931 -0.0048
   46MOL   H50531195   3.624   6.333   2.891  0.4643 -0.4664  0.3662
   46MOL   H50631196   3.482   6.600   2.633  0.6909 -1.9129  1.4300
   46MOL   H50731197   3.453   6.727   2.427 -0.1588  0.0651 -1.1587
   46MOL   H50831198   3.554   6.392   2.193  3.1187  0.7774 -0.1364
   46MOL   H50931199   3.594   6.259   2.387  1.9756  0.7614 -1.7604
   46MOL   H51031200   3.812   6.363   2.511  3.2451  0.5112 -0.0415
   46MOL   H51131201   4.032   6.389   2.615  0.8680 -0.4995  0.6737
   46MOL   C51231202   3.740   6.905   2.180 -0.3039 -0.5493 -0.2644
   46MOL   C51331203   3.681   6.775   2.189 -0.3789  0.0445 -0.3436
   46MOL   C51431204   3.545   6.759   2.160 -0.2370  1.0752  0.3202
   46MOL   O51531205   3.479   6.642   2.178  0.6238  0.0763  0.7631
   46MOL   C51631206   3.472   6.872   2.115  0.1467 -0.6337 -0.2971
   46MOL   C51731207   3.526   7.002   2.104 -0.3496 -0.0259 -0.5608
   46MOL   C51831208   3.667   7.018   2.141  0.4920 -0.0806  0.0929
   46MOL   C51931209   3.732   7.149   2.131  0.0559 -0.4182  0.0691
   46MOL   O52031210   3.694   7.238   2.053 -0.1787 -0.1615  0.0456
   46MOL   C52131211   3.831   7.191   2.239  0.5121  0.1244  0.0040
   46MOL   C52231212   3.928   7.289   2.216  0.0761  0.0189 -0.1324
   46MOL   C52331213   4.014   7.329   2.322  0.1482 -0.0966  1.0748
   46MOL   C52431214   3.993   7.275   2.451 -0.0826 -0.0734  0.0183
   46MOL   O52531215   4.055   7.332   2.556 -1.3775 -0.1884  0.4618
   46MOL   C52631216   4.151   7.259   2.615  0.0647  0.3453  0.0487
   46MOL   C52731217   4.244   7.186   2.540 -0.4368  0.6981 -0.1617
   46MOL   C52831218   4.342   7.113   2.608  0.1047  0.3910 -0.1895
   46MOL   C52931219   4.345   7.105   2.745  0.5396 -0.8222  0.7917
   46MOL   C53031220   4.241   7.163   2.821 -0.4075  0.2776  0.0207
   46MOL   C53131221   4.149   7.245   2.755 -0.3022  0.6056  0.2444
   46MOL   C53231222   3.894   7.178   2.477  0.0526  0.2364  0.8594
   46MOL   C53331223   3.814   7.142   2.371 -0.0032 -0.9640  0.1108
   46MOL   H53431224   3.841   6.919   2.216 -0.6626 -0.9310  0.9213
   46MOL   H53531225   3.740   6.694   2.230  1.8232  1.5991 -0.3837
   46MOL   H53631226   3.365   6.857   2.109 -0.2460  1.0312  2.1909
   46MOL   H53731227   3.456   7.077   2.071  1.7293  1.2287 -2.2746
   46MOL   H53831228   3.944   7.342   2.123 -1.8753  0.5540 -0.1810
   46MOL   H53931229   4.099   7.394   2.307 -0.3013 -0.1143 -1.7595
   46MOL   H54031230   4.246   7.186   2.432 -0.3821  1.3049 -0.1611
   46MOL   H54131231   4.409   7.051   2.550 -0.4176 -1.9903  1.6938
   46MOL   H54231232   4.232   7.152   2.928 -3.6046  1.1048 -0.0963
   46MOL   H54331233   4.075   7.296   2.816 -1.0085 -2.0761  1.7275
   46MOL   H54431234   3.885   7.126   2.572  4.0277 -1.4913  0.3748
   46MOL   H54531235   3.736   7.071   2.391  0.1430 -1.0859  0.2459
   46MOL   C54631236   4.704   6.983   3.043  0.2631  0.3159 -0.3674
   46MOL   C54731237   4.598   6.950   2.961 -0.5162 -0.4712 -0.7931
   46MOL   C54831238   4.546   7.039   2.870  0.0958  0.9648  0.4161
   46MOL   O54931239   4.430   7.013   2.800  0.5955 -0.9237  0.3195
   46MOL   C55031240   4.599   7.169   2.868 -0.0799  0.1653  0.6795
   46MOL   C55131241   4.716   7.202   2.939  0.2730 -0.0943  0.4109
   46MOL   C55231242   4.771   7.109   3.026 -0.4127  0.0698 -0.1184
   46MOL   C55331243   4.893   7.145   3.095  0.0564  0.4404  0.2480
   46MOL   O55431244   4.907   7.262   3.140  0.2148  0.4684 -0.0148
   46MOL   C55531245   5.003   7.047   3.109 -0.0896 -0.2489  0.8203
   46MOL   C55631246   5.021   6.935   3.018  0.0933  0.5901 -0.8466
   46MOL   C55731247   5.126   6.845   3.049 -0.2130 -0.7410  0.1394
   46MOL   C55831248   5.208   6.854   3.160 -0.0793  0.1745  0.1929
   46MOL   O55931249   5.307   6.767   3.182  0.1709 -0.3188  0.2856
   46MOL   C56031250   5.297   6.694   3.294 -0.1979 -0.2329 -0.0457
   46MOL   C56131251   5.182   6.618   3.314  0.4902  0.2022  0.1963
   46MOL   C56231252   5.159   6.555   3.437  0.2403  0.3215  0.6634
   46MOL   C56331253   5.257   6.553   3.535  0.6668  0.4670  0.1739
   46MOL   C56431254   5.376   6.632   3.515  0.0795 -0.1039  0.0763
   46MOL   C56531255   5.399   6.701   3.392  0.1898  0.3927 -0.0322
   46MOL   C56631256   5.187   6.967   3.247 -0.4500  0.2230 -0.1682
   46MOL   C56731257   5.092   7.063   3.218 -0.4926  0.0690 -0.1898
   46MOL   H56831258   4.745   6.913   3.114 -1.3206 -0.8825 -0.5998
   46MOL   H56931259   4.546   6.855   2.970 -0.9063 -0.1350  0.7640
   46MOL   H57031260   4.553   7.243   2.804  0.1284  0.7588  1.2236
   46MOL   H57131261   4.759   7.300   2.918 -0.1683 -0.0628 -0.3781
   46MOL   H57231262   4.951   6.923   2.937 -0.3521 -1.0179 -0.2423
   46MOL   H57331263   5.144   6.762   2.983  0.3879 -0.5804  0.0938
   46MOL   H57431264   5.105   6.604   3.239  0.5189 -1.5280  0.4679
   46MOL   H57531265   5.068   6.506   3.468  0.6645 -1.2859 -0.5607
   46MOL   H57631266   5.459   6.627   3.584  1.0620 -0.1733 -1.0958
   46MOL   H57731267   5.492   6.750   3.366 -1.0169  1.9412 -1.5965
   46MOL   H57831268   5.254   6.981   3.330 -2.2749  0.9032  1.2249
   46MOL   H57931269   5.071   7.131   3.300 -2.2401 -0.9973  0.2789
   46MOL   C58031270   4.990   6.705   3.840  0.4519  0.2027 -0.1124
   46MOL   C58131271   5.041   6.590   3.779  0.5123  0.2915  0.3422
   46MOL   C58231272   5.180   6.584   3.751  0.2421  0.4060 -0.2568
   46MOL   O58331273   5.233   6.500   3.662 -0.8701 -0.0397 -0.4705
   46MOL   C58431274   5.269   6.682   3.806  0.3056 -0.0762  0.7529
   46MOL   C58531275   5.218   6.785   3.885 -0.6879  0.1468 -0.1090
   46MOL   C58631276   5.079   6.801   3.898 -0.0747  0.3434  0.6169
   46MOL   C58731277   5.024   6.925   3.965  0.3806  0.4208  0.6794
   46MOL   O58831278   5.096   6.990   4.040 -0.6640  0.4351  0.7417
   46MOL   C58931279   4.878   6.961   3.946  0.8147  0.1296 -0.8042
   46MOL   C59031280   4.782   6.963   4.056 -0.4803 -0.1681 -0.3883
   46MOL   C59131281   4.648   7.003   4.037 -0.1684 -0.2374  0.9558
   46MOL   C59231282   4.607   7.034   3.905 -0.3039  0.3064  0.0792
   46MOL   O59331283   4.474   7.058   3.884  0.4387 -0.0171 -0.1665
   46MOL   C59431284   4.401   6.956   3.842  0.5481 -0.1553  0.5897
   46MOL   C59531285   4.353   6.856   3.930 -0.1568 -0.1889 -0.0745
   46MOL   C59631286   4.268   6.760   3.872  0.2385  0.5933 -0.5651
   46MOL   C59731287   4.240   6.754   3.734  0.2281  0.0011  0.4331
   46MOL   C59831288   4.287   6.853   3.649 -0.3165 -0.0455  0.3834
   46MOL   C59931289   4.367   6.955   3.701  0.3544  1.0930  0.2345
   46MOL   C60031290   4.694   7.037   3.796  0.7741  0.5192  0.2164
   46MOL   C60131291   4.828   7.006   3.817 -0.4920 -0.1687  0.5376
   46MOL   H60231292   4.883   6.723   3.846 -0.0427 -1.7312 -2.2900
   46MOL   H60331293   4.986   6.521   3.717  1.4877  0.3238 -0.5791
   46MOL   H60431294   5.373   6.673   3.782 -0.1959  1.2490 -2.1373
   46MOL   H60531295   5.286   6.851   3.938  0.2124  0.5455 -1.7348
   46MOL   H60631296   4.814   6.935   4.155  2.3078  0.1570 -1.1532
   46MOL   H60731297   4.580   6.996   4.121  0.7792 -1.3642  1.6397
   46MOL   H60831298   4.364   6.863   4.037  1.2972  2.1263 -0.3373
   46MOL   H60931299   4.228   6.671   3.919 -1.0429  0.2553 -2.2489
   46MOL   H61031300   4.249   6.856   3.547  0.2799 -1.2028  0.1240
   46MOL   H61131301   4.389   7.034   3.632  0.1830  2.1526  1.3839
   46MOL   H61231302   4.660   7.066   3.698 -0.4933 -0.3915  0.3701
   46MOL   H61331303   4.889   7.026   3.730 -0.1583 -0.7008  0.6523
   46MOL   C61431304   4.353   6.484   3.410  0.2611 -0.2798  0.3362
   46MOL   C61531305   4.331   6.565   3.528  0.2770  0.0608  0.4194
   46MOL   C61631306   4.199   6.581   3.578  0.0048 -0.4357 -0.2090
   46MOL   O61731307   4.159   6.661   3.678  0.1901  0.4597  0.9154
   46MOL   C61831308   4.095   6.522   3.514 -0.5328 -0.0672  0.1811
   46MOL   C61931309   4.114   6.435   3.401  0.7707  0.5725 -0.9572
   46MOL   C62031310   4.244   6.414   3.360 -0.1686  0.4691  0.9449
   46MOL   C62131311   4.273   6.320   3.247 -0.7129 -0.2661 -0.2810
   46MOL   O62231312   4.374   6.335   3.174 -0.0564  0.8451 -0.4211
   46MOL   C62331313   4.190   6.188   3.237 -0.3395  0.6366  0.2758
   46MOL   C62431314   4.121   6.132   3.350  0.2159  0.1265 -0.0311
   46MOL   C62531315   4.053   6.010   3.329  0.0422 -0.1265  0.3923
   46MOL   C62631316   4.057   5.943   3.207 -0.6677 -0.3092  0.2793
   46MOL   O62731317   3.994   5.823   3.201 -0.0868 -0.1493 -0.1306
   46MOL   C62831318   4.072   5.718   3.238 -0.4885  0.2904  0.3278
   46MOL   C62931319   4.181   5.681   3.153  0.0079 -0.1019  0.0236
   46MOL   C63031320   4.261   5.565   3.181  0.0904  0.6041 -0.5291
   46MOL   C63131321   4.232   5.486   3.297 -0.0319 -0.4279 -0.0879
   46MOL   C63231322   4.131   5.534   3.384  0.3535 -0.1932  0.5020
   46MOL   C63331323   4.043   5.639   3.346 -0.0786 -0.7201  0.5551
   46MOL   C63431324   4.132   5.997   3.098 -0.4465  1.1480 -0.6720
   46MOL   C63531325   4.193   6.123   3.109  0.1377 -0.5517 -0.4463
   46MOL   H63631326   4.450   6.465   3.366 -0.4936 -3.2801 -0.1366
   46MOL   H63731327   4.418   6.609   3.574  0.6726 -1.2827  0.9976
   46MOL   H63831328   3.993   6.541   3.544 -0.2049 -0.7258  1.7834
   46MOL   H63931329   4.030   6.393   3.347  1.0622 -0.2668 -0.7549
   46MOL   H64031330   4.115   6.179   3.447 -0.0584  0.6259 -0.2866
   46MOL   H64131331   3.990   5.968   3.405 -0.9024 -0.2774 -0.4615
   46MOL   H64231332   4.201   5.746   3.070 -1.8433 -2.2185 -2.1594
   46MOL   H64331333   4.335   5.530   3.110 -0.4778 -0.9273 -0.3737
   46MOL   H64431334   4.112   5.480   3.475 -1.0709  3.3515  2.4257
   46MOL   H64531335   3.965   5.674   3.412 -1.2498 -0.7034 -0.8010
   46MOL   H64631336   4.127   5.929   3.014 -0.4405 -3.9989  3.2567
   46MOL   H64731337   4.240   6.169   3.024 -0.6619 -1.6429 -1.4937
   46MOL   C64831338   4.654   5.290   3.308  0.4444 -0.1249 -0.5987
   46MOL   C64931339   4.520   5.285   3.278  0.1017 -0.6051  0.0128
   46MOL   C65031340   4.430   5.372   3.350 -0.0652 -0.2760 -0.1561
   46MOL   O65131341   4.293   5.370   3.331 -0.4168  0.0135 -0.3355
   46MOL   C65231342   4.488   5.465   3.439  0.2067 -0.4308 -0.0889
   46MOL   C65331343   4.626   5.480   3.455 -0.7219  0.4540  0.0971
   46MOL   C65431344   4.712   5.386   3.398 -0.2696  0.2176  0.6446
   46MOL   C65531345   4.859   5.411   3.422  0.3928 -0.0569  0.3482
   46MOL   O65631346   4.895   5.529   3.413  0.3531 -0.3466 -0.1662
   46MOL   C65731347   4.955   5.297   3.460 -0.5499 -0.2348 -0.4019
   46MOL   C65831348   5.093   5.302   3.429  0.0235 -0.0835 -0.4805
   46MOL   C65931349   5.181   5.203   3.469  0.2000 -0.3385  0.3015
   46MOL   C66031350   5.135   5.088   3.533  0.0540  0.4451  0.3511
   46MOL   O66131351   5.214   4.980   3.572 -0.8073 -0.0520  0.0433
   46MOL   C66231352   5.183   4.907   3.690  0.0456 -0.0534  0.7093
   46MOL   C66331353   5.148   4.968   3.814 -0.5549 -0.5591  0.6431
   46MOL   C66431354   5.144   4.893   3.935  1.0592  0.0834  0.1018
   46MOL   C66531355   5.169   4.757   3.926  0.1436 -0.2486 -0.0487
   46MOL   C66631356   5.199   4.694   3.805 -0.1587 -0.3893  0.1107
   46MOL   C66731357   5.206   4.771   3.687  0.0103 -0.3926  0.1081
   46MOL   C66831358   4.991   5.073   3.555 -0.4104 -0.3121  0.3072
   46MOL   C66931359   4.907   5.181   3.516 -0.3742  0.5780  0.1708
   46MOL   H67031360   4.719   5.228   3.248 -0.0043  0.5417 -1.7908
   46MOL   H67131361   4.479   5.207   3.215 -1.4449 -0.5920  0.9657
   46MOL   H67231362   4.428   5.526   3.504 -0.5214 -1.0931 -0.1253
   46MOL   H67331363   4.670   5.556   3.518  0.7574 -1.9362  2.0408
   46MOL   H67431364   5.144   5.389   3.390 -0.9429  0.9031  0.4141
   46MOL   H67531365   5.287   5.206   3.452  0.1411  1.4143  0.1211
   46MOL   H67631366   5.145   5.076   3.807  2.1501 -0.4395  0.8511
   46MOL   H67731367   5.119   4.944   4.027  1.8676 -2.4169  1.7479
   46MOL   H67831368   5.224   4.589   3.804 -4.2771 -1.4554  0.4534
   46MOL   H67931369   5.234   4.733   3.590  5.1418 -0.8252  1.5883
   46MOL   H68031370   4.951   4.989   3.609  0.7699  0.6694  2.7917
   46MOL   H68131371   4.803   5.174   3.543  0.0430 -0.6964  1.5304
   46MOL   H68231372   5.160   4.689   4.009  0.7510 -2.2340 -1.5696
   47MOL     C131373   3.401   6.393   3.514  0.5575 -0.4117  0.5108
   47MOL     C231374   3.331   6.487   3.592 -0.5100 -0.0783 -0.8070
   47MOL     C331375   3.395   6.601   3.650  0.4769 -0.3917 -0.4858
   47MOL     O431376   3.317   6.696   3.704  0.3228  0.2017  0.0913
   47MOL     C531377   3.536   6.605   3.650 -0.4826  0.5077  0.7891
   47MOL     C631378   3.608   6.504   3.577 -0.3198 -0.4948 -0.3527
   47MOL     C731379   3.541   6.407   3.502 -0.9960 -0.1382 -0.0414
   47MOL     C831380   3.632   6.314   3.416  1.0900 -0.1516 -0.0703
   47MOL     O931381   3.755   6.311   3.427 -0.0926 -0.3054 -0.6190
   47MOL    C1031382   3.561   6.222   3.333  0.4371  0.3691 -0.0073
   47MOL    C1131383   3.583   6.232   3.192  0.2369  0.1720 -0.5719
   47MOL    C1231384   3.514   6.142   3.103 -0.9634 -0.2409 -0.5893
   47MOL    C1331385   3.432   6.039   3.153  0.3907  1.3823 -0.0906
   47MOL    O1431386   3.373   5.951   3.066 -0.2757  0.2181  0.0168
   47MOL    C1531387   3.292   6.000   2.969  0.4869  0.0252  0.2851
   47MOL    C1631388   3.316   5.957   2.842 -0.8014 -0.3720  0.1556
   47MOL    C1731389   3.246   6.009   2.734 -0.2336 -0.7393  0.2655
   47MOL    C1831390   3.143   6.101   2.752  0.2452 -0.1031 -0.6578
   47MOL    C1931391   3.111   6.142   2.884  0.1634  0.2643  0.1191
   47MOL    C2031392   3.189   6.098   2.991  0.0594 -0.2303 -0.6116
   47MOL    C2131393   3.427   6.025   3.295  0.0836 -0.6829 -0.1247
   47MOL    C2231394   3.488   6.110   3.380 -0.3078 -0.5056 -0.5104
   47MOL    H2331395   3.351   6.314   3.461  3.2685 -1.0681 -1.1577
   47MOL    H2431396   3.224   6.477   3.605 -0.3722 -0.6567 -0.0925
   47MOL    H2531397   3.588   6.688   3.694 -0.4827  1.8781 -1.6993
   47MOL    H2631398   3.716   6.501   3.564 -0.4447 -1.1930 -1.3423
   47MOL    H2731399   3.649   6.310   3.158  0.2040  0.8390  0.8962
   47MOL    H2831400   3.539   6.159   2.999  0.7035  3.4802  0.3356
   47MOL    H2931401   3.383   5.875   2.823  0.1593  0.6298 -0.8616
   47MOL    H3031402   3.269   5.969   2.636 -0.5349  1.5466 -0.7777
   47MOL    H3131403   3.031   6.214   2.896 -1.5080 -1.1486 -2.0493
   47MOL    H3231404   3.170   6.123   3.094 -2.0158 -2.9847 -0.2769
   47MOL    H3331405   3.369   5.940   3.329 -3.3591  0.7954 -2.0259
   47MOL    H3431406   3.481   6.089   3.486 -1.8828 -1.3207 -0.7639
   47MOL    H3531407   3.228   6.700   3.674  0.6685 -1.0274 -1.1356
   47MOL    C3631408   3.071   6.029   2.315 -0.1972 -0.3357  0.1726
   47MOL    C3731409   3.029   6.057   2.447 -0.6142  0.8010  0.8040
   47MOL    C3831410   3.100   6.147   2.527 -0.4691 -0.4292 -0.0388
   47MOL    O3931411   3.064   6.153   2.658 -0.5719  0.4958  0.2327
   47MOL    C4031412   3.202   6.223   2.473 -0.1933  0.4063  0.4507
   47MOL    C4131413   3.237   6.206   2.338  0.2704 -0.1616  0.4834
   47MOL    C4231414   3.167   6.115   2.253 -0.2078  0.5333  0.5246
   47MOL    C4331415   3.214   6.090   2.114  0.1563  0.1103  0.8671
   47MOL    O4431416   3.326   6.128   2.085  1.2758  0.1427  0.3351
   47MOL    C4531417   3.142   6.007   2.014  0.5506  0.8901  0.2282
   47MOL    C4631418   3.200   5.889   1.964  0.3537 -0.6659 -0.1271
   47MOL    C4731419   3.140   5.806   1.863 -0.4399  0.2688  0.6531
   47MOL    C4831420   3.016   5.847   1.809  0.0524  0.4762 -0.7814
   47MOL    O4931421   2.958   5.765   1.716  0.0637 -0.1229  0.4691
   47MOL    C5031422   2.889   5.813   1.615 -0.2250  0.3700  0.2834
   47MOL    C5131423   2.955   5.872   1.510 -0.0660  0.1518  0.3653
   47MOL    C5231424   2.889   5.921   1.397  0.0383 -0.2251 -0.5550
   47MOL    C5331425   2.752   5.906   1.395  0.1531  0.1545 -0.0856
   47MOL    C5431426   2.675   5.862   1.511  0.1723  0.0090  0.6337
   47MOL    C5531427   2.748   5.809   1.621  1.4640 -1.0674  0.8429
   47MOL    C5631428   2.955   5.957   1.869  0.0088  0.0488  0.3552
   47MOL    C5731429   3.012   6.038   1.970 -1.0431 -0.1612  0.6592
   47MOL    H5831430   3.032   5.942   2.263 -1.8450 -0.3622  1.4216
   47MOL    H5931431   2.946   6.000   2.487 -0.7329 -1.2456 -2.1664
   47MOL    H6031432   3.256   6.290   2.539 -1.0745  1.7125 -0.1316
   47MOL    H6131433   3.321   6.259   2.297  0.4004  0.6237  1.7645
   47MOL    H6231434   3.293   5.845   1.994  0.7372  1.6098  2.2381
   47MOL    H6331435   3.183   5.711   1.837  0.8191  0.0300  3.4832
   47MOL    H6431436   3.062   5.885   1.520 -0.4984  2.0217  2.9938
   47MOL    H6531437   2.950   5.950   1.313  0.1725  0.6723 -0.1508
   47MOL    H6631438   2.567   5.855   1.513  0.2348 -1.9110 -1.0705
   47MOL    H6731439   2.696   5.777   1.709  0.3196 -0.4275  0.4053
   47MOL    H6831440   2.868   5.996   1.818 -1.1101 -1.3505  1.2026
   47MOL    H6931441   2.955   6.122   2.007 -2.0327  1.5928 -4.4096
   47MOL    C7031442   2.733   6.024   0.933 -0.8304  0.2591  0.3952
   47MOL    C7131443   2.697   5.957   1.054  0.1531 -0.4335 -0.1628
   47MOL    C7231444   2.729   6.011   1.181 -0.0599 -0.3409  0.1926
   47MOL    O7331445   2.676   5.953   1.293  0.0731 -0.3741  0.2685
   47MOL    C7431446   2.812   6.127   1.186 -0.4643  0.2812 -0.2260
   47MOL    C7531447   2.841   6.202   1.069  0.3646  0.3722  0.2208
   47MOL    C7631448   2.796   6.150   0.944  0.4215 -0.0325  0.7359
   47MOL    C7731449   2.823   6.217   0.817 -0.2747 -0.1507 -0.2733
   47MOL    O7831450   2.734   6.271   0.749  0.2116 -0.0712 -0.1798
   47MOL    C7931451   2.961   6.208   0.762  0.0159 -0.5132 -0.1592
   47MOL    C8031452   2.999   6.275   0.640  0.1177  0.2157 -0.1995
   47MOL    C8131453   3.137   6.277   0.593 -0.1686 -0.0849  0.1488
   47MOL    C8231454   3.231   6.203   0.670  1.3402  0.1205  0.5975
   47MOL    O8331455   3.361   6.202   0.626 -0.7045  0.1971  0.1904
   47MOL    C8431456   3.418   6.075   0.606  0.4101  0.1216 -0.4785
   47MOL    C8531457   3.509   6.021   0.704 -0.3756 -1.0461 -0.2928
   47MOL    C8631458   3.561   5.892   0.690  0.1968  0.5867  0.1476
   47MOL    C8731459   3.533   5.813   0.576 -0.0235 -0.1265  0.0664
   47MOL    C8831460   3.448   5.872   0.478  0.1646  1.0040 -0.2914
   47MOL    C8931461   3.397   5.997   0.493 -0.3424 -0.4755 -0.3305
   47MOL    C9031462   3.201   6.133   0.788  0.4152 -0.6659  0.2738
   47MOL    C9131463   3.066   6.139   0.835 -0.1871 -0.1579 -0.6523
   47MOL    H9231464   2.714   5.984   0.834  0.3036  1.2427 -0.2269
   47MOL    H9331465   2.653   5.859   1.042  0.1347 -0.3807 -0.5294
   47MOL    H9431466   2.847   6.163   1.282 -0.6429  0.7390 -0.3307
   47MOL    H9531467   2.901   6.292   1.071  0.6530  0.1633  1.0686
   47MOL    H9631468   2.930   6.333   0.581  1.8571  1.0050 -1.5261
   47MOL    H9731469   3.167   6.332   0.505  0.2125 -0.3417  0.1168
   47MOL    H9831470   3.519   6.064   0.803 -2.0336 -2.8966  0.7026
   47MOL    H9931471   3.632   5.874   0.770  0.3575  0.6608  0.0204
   47MOL   H10031472   3.430   5.816   0.387 -0.1745 -0.6457  0.7616
   47MOL   H10131473   3.337   6.039   0.413  1.9874  2.7582 -0.5227
   47MOL   H10231474   3.270   6.072   0.844 -2.1027 -3.2613  0.6779
   47MOL   H10331475   3.046   6.092   0.930 -0.0734  1.9448  0.4456
   47MOL   C10431476   3.881   5.612   0.745 -0.0723 -0.1252 -0.1322
   47MOL   C10531477   3.793   5.680   0.662 -0.3935 -0.6218  0.2938
   47MOL   C10631478   3.661   5.634   0.650 -0.9655  0.5269 -0.7948
   47MOL   O10731479   3.588   5.691   0.559 -0.1579 -0.2225  0.0246
   47MOL   C10831480   3.610   5.521   0.719  0.1149  0.1527  0.4533
   47MOL   C10931481   3.704   5.454   0.806 -0.3217 -0.2030  0.2333
   47MOL   C11031482   3.837   5.500   0.819  0.0461  0.3634 -0.0752
   47MOL   C11131483   3.933   5.426   0.909 -0.1196 -0.5265 -0.0313
   47MOL   O11231484   3.937   5.301   0.895 -0.3428  0.2812 -0.3706
   47MOL   C11331485   4.022   5.503   0.990 -0.5303 -0.1033  0.1749
   47MOL   C11431486   3.981   5.617   1.066 -0.0081  0.6823 -0.6663
   47MOL   C11531487   4.078   5.700   1.130  0.2531  1.0141  0.1736
   47MOL   C11631488   4.209   5.652   1.138 -0.4535 -0.0401  0.0903
   47MOL   O11731489   4.306   5.719   1.213  0.0018  0.2767  0.1738
   47MOL   C11831490   4.372   5.809   1.133 -0.7623  0.7024  0.7771
   47MOL   C11931491   4.506   5.784   1.087  0.2282 -0.0511 -0.1819
   47MOL   C12031492   4.576   5.875   1.010  0.3764 -0.0847  0.3578
   47MOL   C12131493   4.521   6.005   0.985  0.3075  0.5102 -1.1641
   47MOL   C12231494   4.389   6.030   1.029 -0.5098 -0.5161  0.2732
   47MOL   C12331495   4.318   5.933   1.100 -0.0263 -0.4507  0.2282
   47MOL   C12431496   4.247   5.528   1.079  0.2952  0.3836  0.3209
   47MOL   C12531497   4.157   5.453   1.009  0.1330  0.1657  0.1369
   47MOL   H12631498   3.983   5.647   0.752  0.4908 -1.3683 -1.8075
   47MOL   H12731499   3.834   5.760   0.602 -0.1197 -1.0101 -0.0342
   47MOL   H12831500   3.507   5.498   0.699  0.9198  0.4705 -4.6677
   47MOL   H12931501   3.671   5.368   0.862  0.1320  0.0383  0.8712
   47MOL   H13031502   3.880   5.653   1.060 -0.3324  0.0024  0.6542
   47MOL   H13131503   4.048   5.797   1.167 -0.7284  1.2953 -1.3562
   47MOL   H13231504   4.554   5.691   1.112  0.9426  0.2079 -0.5674
   47MOL   H13331505   4.677   5.848   0.983 -0.7503 -2.9031 -1.2351
   47MOL   H13431506   4.340   6.124   1.009 -0.7834 -0.4706  1.1302
   47MOL   H13531507   4.216   5.958   1.124 -0.4399 -0.2541 -1.6301
   47MOL   H13631508   4.351   5.502   1.083  1.1079  3.4177  0.5189
   47MOL   H13731509   4.191   5.365   0.956 -0.8341 -0.0261 -0.1706
   47MOL   C13831510   4.543   6.044   0.552  0.4352  0.1840 -0.4406
   47MOL   C13931511   4.582   6.039   0.681 -0.4248  0.1848 -0.0672
   47MOL   C14031512   4.537   6.124   0.779  0.1774  0.3324 -0.9191
   47MOL   O14131513   4.581   6.102   0.911 -0.0947 -0.2523  0.2815
   47MOL   C14231514   4.444   6.230   0.751  0.1902  0.6801  0.1849
   47MOL   C14331515   4.407   6.245   0.609 -0.5794 -0.2030 -0.0463
   47MOL   C14431516   4.451   6.153   0.515 -0.1135 -0.2183 -0.1200
   47MOL   C14531517   4.416   6.162   0.373 -0.2480  0.4885 -0.1049
   47MOL   O14631518   4.420   6.267   0.307 -0.0290  0.1422 -0.6457
   47MOL   C14731519   4.352   6.038   0.311 -0.2932  0.0477  0.6541
   47MOL   C14831520   4.282   5.951   0.393  0.6768  0.5196 -0.3255
   47MOL   C14931521   4.215   5.843   0.328  0.8872 -0.4501 -1.0841
   47MOL   C15031522   4.219   5.815   0.193  0.0594 -0.0964 -0.2614
   47MOL   O15131523   4.148   5.701   0.151  0.1349 -0.5262 -0.0995
   47MOL   C15231524   4.222   5.585   0.122  0.0298  0.1110  0.4581
   47MOL   C15331525   4.145   5.485   0.056  0.1836  0.2227  0.2038
   47MOL   C15431526   4.216   5.375   0.003 -0.2926  0.6801  0.0601
   47MOL   C15531527   4.356   5.358   0.030 -1.1689 -0.1977 -1.0130
   47MOL   C15631528   4.433   5.460   0.103  0.4005 -0.7798 -0.4345
   47MOL   C15731529   4.358   5.570   0.152 -0.7015  0.5017 -0.1718
   47MOL   C15831530   4.286   5.911   0.111 -0.0355 -0.2294 -0.3166
   47MOL   C15931531   4.340   6.030   0.169  0.3766 -0.0171 -1.4023
   47MOL   H16031532   4.580   5.979   0.475  0.1422  1.0627 -1.3416
   47MOL   H16131533   4.650   5.960   0.707 -1.2994  0.7993  4.4936
   47MOL   H16231534   4.404   6.295   0.827  1.8061  1.1207  0.6635
   47MOL   H16331535   4.328   6.315   0.585 -1.8143 -1.8021 -0.7408
   47MOL   H16431536   4.288   5.959   0.500  1.1785  0.3640 -0.3374
   47MOL   H16531537   4.155   5.789   0.399  1.2253  0.5267 -0.0557
   47MOL   H16631538   4.043   5.503   0.028  0.6257 -0.7203 -2.1151
   47MOL   H16731539   4.182   5.294   8.252  0.6886  0.0117  0.3609
   47MOL   H16831540   4.534   5.434   0.132  0.2632 -1.8024 -0.8676
   47MOL   H16931541   4.412   5.651   0.198 -1.3745  1.2074 -0.6234
   47MOL   H17031542   4.288   5.906   0.003 -0.4270 -1.8939 -0.2594
   47MOL   H17131543   4.384   6.114   0.117 -2.2351  1.1450 -1.8439
   47MOL   C17231544   4.618   5.160   7.985 -0.6530 -0.5149 -0.4663
   47MOL   C17331545   4.547   5.149   8.107  0.3841  0.9264  0.4343
   47MOL   C17431546   4.515   5.267   8.184 -0.0842  0.0802  0.2773
   47MOL   O17531547   4.435   5.249   8.293  0.4762 -0.3663 -0.2848
   47MOL   C17631548   4.563   5.391   8.136  0.6484  0.0723  0.3035
   47MOL   C17731549   4.639   5.399   8.013 -0.3394  0.2600 -0.0724
   47MOL   C17831550   4.660   5.285   7.932 -0.4671  0.3056 -0.6520
   47MOL   C17931551   4.745   5.296   7.810 -0.0901 -0.4253 -0.8487
   47MOL   O18031552   4.853   5.350   7.829 -0.0161 -0.4953 -0.0154
   47MOL   C18131553   4.696   5.250   7.675  0.7460  0.0148  0.4782
   47MOL   C18231554   4.560   5.207   7.660  0.6296 -0.0004 -0.6475
   47MOL   C18331555   4.526   5.150   7.537 -0.2084  0.3801  0.1183
   47MOL   C18431556   4.615   5.138   7.426  0.0948 -1.0562 -0.0982
   47MOL   O18531557   4.582   5.076   7.308  0.0266  0.1447 -0.0237
   47MOL   C18631558   4.454   5.085   7.259 -0.6585 -0.2561 -0.0634
   47MOL   C18731559   4.380   5.207   7.250  0.0317 -0.3349  0.4492
   47MOL   C18831560   4.247   5.203   7.202 -0.3949 -0.1335 -0.0479
   47MOL   C18931561   4.196   5.081   7.156 -0.1389  0.1314  0.3328
   47MOL   C19031562   4.266   4.965   7.163 -0.5303  0.2893  0.6430
   47MOL   C19131563   4.397   4.962   7.213 -0.3891 -0.3455  0.0672
   47MOL   C19231564   4.749   5.173   7.449  0.5972 -0.2377  0.1154
   47MOL   C19331565   4.789   5.237   7.569 -0.2834 -0.6035  0.0683
   47MOL   H19431566   4.630   5.077   7.916  0.5975 -0.2169 -0.6265
   47MOL   H19531567   4.505   5.053   8.136  0.5983  0.0893 -1.9133
   47MOL   H19631568   4.538   5.483   8.185 -0.8110  0.8333 -1.7781
   47MOL   H19731569   4.675   5.498   7.992  1.5344 -0.8057 -2.1786
   47MOL   H19831570   4.490   5.216   7.742 -0.0947  0.8975 -1.3513
   47MOL   H19931571   4.423   5.117   7.526 -0.1318  0.4076 -0.6628
   47MOL   H20031572   4.426   5.301   7.276 -2.7244  0.8709  1.0448
   47MOL   H20131573   4.182   5.289   7.192  1.4349  1.0908 -1.5937
   47MOL   H20231574   4.229   4.877   7.111  0.0119  0.8316 -0.6974
   47MOL   H20331575   4.472   4.884   7.203  0.8926  1.0328 -1.4119
   47MOL   H20431576   4.821   5.155   7.371  0.8438  0.1775  0.2473
   47MOL   H20531577   4.887   5.284   7.577 -0.5870 -0.2379  1.7259
   47MOL   C20631578   3.787   5.297   7.099  0.1857  0.1739 -0.4691
   47MOL   C20731579   3.904   5.228   7.058 -0.4857 -0.7511 -0.7922
   47MOL   C20831580   3.966   5.142   7.141 -0.9170 -0.3720 -0.0912
   47MOL   O20931581   4.072   5.065   7.101  0.0325 -0.2076 -0.2251
   47MOL   C21031582   3.915   5.120   7.271  0.0334  0.1155  0.6515
   47MOL   C21131583   3.818   5.206   7.321  0.4472  0.3565 -0.5002
   47MOL   C21231584   3.750   5.297   7.231  0.0344 -0.0041  0.2925
   47MOL   C21331585   3.644   5.392   7.279 -0.2567 -1.0781 -0.1063
   47MOL   O21431586   3.584   5.466   7.196 -0.5616  0.1862 -0.0402
   47MOL   C21531587   3.607   5.397   7.423 -0.2981 -0.1108 -0.5730
   47MOL   C21631588   3.643   5.504   7.511  0.4776 -0.4693 -0.4326
   47MOL   C21731589   3.591   5.505   7.643  0.6741  0.0483 -0.0282
   47MOL   C21831590   3.502   5.405   7.688  0.0766 -0.6069  0.0160
   47MOL   O21931591   3.454   5.411   7.818 -0.1458 -0.4023  0.3642
   47MOL   C22031592   3.473   5.304   7.903  0.0394  0.4868  0.8511
   47MOL   C22131593   3.387   5.288   8.012 -0.3061 -0.3407  0.0163
   47MOL   C22231594   3.407   5.180   8.099  0.3640  0.4192  0.3607
   47MOL   C22331595   3.516   5.090   8.084 -0.0466 -0.3983 -0.5075
   47MOL   C22431596   3.613   5.116   7.985 -0.1469 -0.7065 -0.5878
   47MOL   C22531597   3.580   5.211   7.888 -0.1897  0.3353  0.0681
   47MOL   C22631598   3.466   5.297   7.598  0.2722  0.0809  0.5647
   47MOL   C22731599   3.515   5.295   7.467 -0.2924 -0.6826 -0.3195
   47MOL   H22831600   3.728   5.353   7.027 -0.9932  1.0758  1.1524
   47MOL   H22931601   3.937   5.255   6.958 -0.5312 -1.5765 -1.0285
   47MOL   H23031602   3.958   5.043   7.334  0.3194  0.0851  0.4209
   47MOL   H23131603   3.778   5.202   7.421 -1.2051  1.2120 -1.1171
   47MOL   H23231604   3.711   5.586   7.492 -1.8887  0.9212 -3.3374
   47MOL   H23331605   3.619   5.582   7.714 -3.2556  2.3966 -0.8639
   47MOL   H23431606   3.297   5.345   8.029 -0.1773 -0.2442  0.3867
   47MOL   H23531607   3.335   5.158   8.177  0.8742 -1.6559  0.2633
   47MOL   H23631608   3.707   5.063   7.977 -0.3308 -0.8310 -1.9546
   47MOL   H23731609   3.646   5.222   7.803  0.1306  1.7892  0.4823
   47MOL   H23831610   3.396   5.220   7.628  1.4226 -0.6351  1.4369
   47MOL   H23931611   3.490   5.224   7.389 -0.9588  1.4217 -2.0566
   47MOL   C24031612   3.435   4.701   7.969 -0.0013 -0.7216  0.6693
   47MOL   C24131613   3.426   4.826   8.036 -0.1592  0.0115  0.1100
   47MOL   C24231614   3.521   4.862   8.135 -0.2888  0.6837  0.2771
   47MOL   O24331615   3.517   4.992   8.182 -0.2632  0.4288 -0.3713
   47MOL   C24431616   3.617   4.776   8.169 -0.5967  0.6383  0.7703
   47MOL   C24531617   3.643   4.657   8.100  0.0252 -0.6909 -0.4448
   47MOL   C24631618   3.547   4.622   8.000 -0.1142 -0.7050 -0.2099
   47MOL   C24731619   3.562   4.491   7.929 -0.1508  0.0638  0.9372
   47MOL   O24831620   3.622   4.403   7.990  0.5627 -0.0722  0.0720
   47MOL   C24931621   3.516   4.467   7.788  0.0761  0.1401 -0.3106
   47MOL   C25031622   3.509   4.569   7.690  0.4991  0.3732 -0.2161
   47MOL   C25131623   3.459   4.541   7.562 -0.6503  0.6951 -0.4884
   47MOL   C25231624   3.428   4.412   7.524  1.0362  0.0458  0.2256
   47MOL   O25331625   3.378   4.373   7.392 -0.4277 -0.3242 -0.1033
   47MOL   C25431626   3.252   4.391   7.364 -0.5320  0.2016 -0.0168
   47MOL   C25531627   3.166   4.283   7.330 -0.1165  0.3356  0.5303
   47MOL   C25631628   3.035   4.313   7.287  0.2861  0.0295  0.7811
   47MOL   C25731629   2.986   4.444   7.272 -0.2447 -0.2194 -0.7431
   47MOL   C25831630   3.068   4.546   7.319 -0.1522 -0.5151  0.1953
   47MOL   C25931631   3.196   4.522   7.366  0.5375 -0.6520 -0.2436
   47MOL   C26031632   3.443   4.308   7.621  0.5729 -0.1930  0.3859
   47MOL   C26131633   3.490   4.336   7.749  0.0319 -0.0119 -0.0447
   47MOL   H26231634   3.358   4.678   7.897  0.4332 -1.7719  0.5298
   47MOL   H26331635   3.347   4.894   8.009  0.1158  0.6358  0.8662
   47MOL   H26431636   3.697   4.813   8.231  1.3948 -0.1317 -1.2722
   47MOL   H26531637   3.730   4.594   8.108  0.1524 -0.4101  0.4339
   47MOL   H26631638   3.543   4.668   7.718  1.7962 -0.1730  0.1994
   47MOL   H26731639   3.459   4.620   7.489 -2.1413  0.2501 -0.9743
   47MOL   H26831640   3.201   4.182   7.343 -1.0519 -0.0884 -0.1899
   47MOL   H26931641   2.961   4.236   7.268 -0.7750  1.3497 -0.5362
   47MOL   H27031642   3.035   4.649   7.316  1.8362  0.1227 -3.0041
   47MOL   H27131643   3.259   4.607   7.387  1.3889 -0.8374 -1.9827
   47MOL   H27231644   3.426   4.203   7.604 -1.6351 -0.2446  2.7242
   47MOL   H27331645   3.508   4.253   7.815  1.4438 -0.8009 -1.3997
   47MOL   C27431646   2.601   4.364   7.005  0.8429  0.0421 -0.7487
   47MOL   C27531647   2.663   4.419   7.117 -0.3123 -0.4041 -0.4367
   47MOL   C27631648   2.804   4.425   7.126  0.4555 -0.1063 -0.4725
   47MOL   O27731649   2.856   4.477   7.239  0.0631 -0.3060  0.3318
   47MOL   C27831650   2.883   4.366   7.030 -0.0118  0.2256  0.5078
   47MOL   C27931651   2.823   4.307   6.916 -0.0292  0.5550  0.3070
   47MOL   C28031652   2.682   4.316   6.899  0.3820  0.2224  0.0406
   47MOL   C28131653   2.619   4.249   6.785 -0.0737 -0.1495 -0.2838
   47MOL   O28231654   2.509   4.198   6.798 -0.2071  0.2525 -0.0995
   47MOL   C28331655   2.687   4.263   6.657 -0.4724 -0.6674  0.0964
   47MOL   C28431656   2.677   4.154   6.570 -0.3086  0.7387  0.0764
   47MOL   C28531657   2.761   4.141   6.451  0.3290 -0.6668  0.2699
   47MOL   C28631658   2.834   4.251   6.413  0.1351  0.0235  0.5496
   47MOL   O28731659   2.913   4.237   6.301 -0.5016 -0.0613 -0.2280
   47MOL   C28831660   3.038   4.288   6.312  0.1052 -0.7386 -0.2598
   47MOL   C28931661   3.080   4.371   6.202 -0.5242  0.0652  0.3243
   47MOL   C29031662   3.206   4.439   6.214  0.9819  0.2517  0.1949
   47MOL   C29131663   3.289   4.419   6.323  0.1040 -0.7865 -1.0708
   47MOL   C29231664   3.249   4.330   6.432 -0.2185  0.0597  0.1732
   47MOL   C29331665   3.120   4.273   6.424  0.6609 -0.5991 -0.4808
   47MOL   C29431666   2.821   4.371   6.486  0.2894  0.0218 -0.4370
   47MOL   C29531667   2.763   4.378   6.619  0.4844 -0.3836  0.7552
   47MOL   H29631668   2.495   4.350   7.012  0.7559  1.0704  0.0689
   47MOL   H29731669   2.593   4.458   7.190  1.5583  1.6630  0.3327
   47MOL   H29831670   2.991   4.363   7.037  0.0639 -1.8106 -0.9686
   47MOL   H29931671   2.887   4.256   6.846 -1.0078 -1.5946  0.9510
   47MOL   H30031672   2.611   4.070   6.586  0.1091  0.4356  0.1967
   47MOL   H30131673   2.768   4.045   6.403 -0.3396 -0.7918  0.4156
   47MOL   H30231674   3.007   4.383   6.123  2.0213 -0.0715 -2.1285
   47MOL   H30331675   3.240   4.506   6.136  0.6578  0.9155  0.6163
   47MOL   H30431676   3.310   4.315   6.520  1.9264 -0.4441 -1.3493
   47MOL   H30531677   3.067   4.224   6.503  0.9836 -0.0753  0.0703
   47MOL   H30631678   2.871   4.460   6.450  0.4254  0.1364  0.0427
   47MOL   H30731679   2.768   4.464   6.684 -0.4233 -0.8126  1.3994
   47MOL   C30831680   3.585   4.798   6.282 -0.0040  0.1016  0.1265
   47MOL   C30931681   3.540   4.662   6.260 -0.3264  0.0750  0.6499
   47MOL   C31031682   3.437   4.601   6.330  0.1877  0.6618 -0.2779
   47MOL   O31131683   3.416   4.467   6.327  0.5055  0.0805  0.1615
   47MOL   C31231684   3.364   4.683   6.419 -0.3975  0.4017  0.7233
   47MOL   C31331685   3.398   4.825   6.442 -0.7976 -0.1532 -0.5419
   47MOL   C31431686   3.516   4.880   6.375  0.6195 -0.5398  0.6300
   47MOL   C31531687   3.559   5.021   6.404 -0.7031 -0.1376 -0.2612
   47MOL   O31631688   3.467   5.101   6.435 -0.2957 -0.3546 -0.6406
   47MOL   C31731689   3.709   5.058   6.416  0.2435 -0.1134 -0.0220
   47MOL   C31831690   3.746   5.188   6.381  0.3915 -0.0023  0.2541
   47MOL   C31931691   3.877   5.224   6.379 -0.9855 -0.0865 -0.5347
   47MOL   C32031692   3.978   5.140   6.440  0.0809  0.0795 -0.1579
   47MOL   O32131693   4.106   5.177   6.446  0.0838  0.1782 -0.8345
   47MOL   C32231694   4.139   5.272   6.541  0.2146 -0.3883 -0.8458
   47MOL   C32331695   4.132   5.251   6.678 -0.7450 -0.4700 -0.0302
   47MOL   C32431696   4.143   5.363   6.768  0.6372 -0.8179 -0.8176
   47MOL   C32531697   4.185   5.488   6.720  0.1903 -0.0126  0.4409
   47MOL   C32631698   4.210   5.506   6.581 -0.7950  0.8440 -0.4790
   47MOL   C32731699   4.179   5.401   6.495 -0.1883  0.2374 -0.7115
   47MOL   C32831700   3.941   5.013   6.491 -0.5377  0.3902  0.5692
   47MOL   C32931701   3.806   4.970   6.474 -0.3838  0.0868 -0.5427
   47MOL   H33031702   3.676   4.831   6.234  0.4642 -1.1969  0.0777
   47MOL   H33131703   3.588   4.606   6.181  0.6622  1.5344  0.1976
   47MOL   H33231704   3.277   4.638   6.463 -1.3816  1.3257 -0.2424
   47MOL   H33331705   3.339   4.885   6.509  1.4203 -0.2646  1.5779
   47MOL   H33431706   3.673   5.257   6.343  0.4539  0.3756  0.8113
   47MOL   H33531707   3.910   5.318   6.336 -0.5445 -1.1362 -2.5884
   47MOL   H33631708   4.107   5.161   6.732  0.8485 -0.5977  0.5274
   47MOL   H33731709   4.122   5.352   6.873 -1.6094  0.9062 -1.0390
   47MOL   H33831710   4.229   5.604   6.539  1.5401  0.3246 -0.6527
   47MOL   H33931711   4.192   5.422   6.390 -0.4251 -0.0194 -0.7935
   47MOL   H34031712   4.017   4.948   6.531  0.2056  0.5545 -0.5403
   47MOL   H34131713   3.772   4.876   6.515  0.1826  0.3636  0.6085
   47MOL   C34231714   4.412   5.567   7.094  0.2011 -0.3054 -0.0950
   47MOL   C34331715   4.297   5.561   7.009  0.1253 -0.1707  0.5483
   47MOL   C34431716   4.300   5.622   6.878  0.1661 -0.0127 -0.4661
   47MOL   O34531717   4.192   5.603   6.799 -0.0002 -0.7186  0.1882
   47MOL   C34631718   4.413   5.696   6.837 -0.2290  0.1759 -0.0794
   47MOL   C34731719   4.530   5.704   6.918  0.1686 -0.6044 -0.2715
   47MOL   C34831720   4.525   5.644   7.049 -1.0595 -0.6561 -0.2103
   47MOL   C34931721   4.639   5.649   7.144 -1.2840 -0.1440 -0.5074
   47MOL   O35031722   4.676   5.547   7.194  0.3206 -0.5918  0.3618
   47MOL   C35131723   4.702   5.779   7.162 -0.4597  0.1386  0.4784
   47MOL   C35231724   4.843   5.792   7.152 -0.0049  0.1880 -0.0992
   47MOL   C35331725   4.899   5.919   7.156  0.1439  0.1994 -0.5316
   47MOL   C35431726   4.817   6.031   7.169  0.3812 -0.2977  0.6988
   47MOL   O35531727   4.868   6.153   7.145 -0.4267  0.0767  0.2899
   47MOL   C35631728   4.907   6.239   7.243 -0.9762 -0.0294 -0.3271
   47MOL   C35731729   4.879   6.218   7.378  0.1698  0.1155 -0.8153
   47MOL   C35831730   4.922   6.303   7.482  0.2273  0.0805  0.1157
   47MOL   C35931731   4.996   6.417   7.444  0.1122  0.1128  0.0559
   47MOL   C36031732   5.014   6.455   7.307  0.4195  0.3738  0.3585
   47MOL   C36131733   4.976   6.363   7.206  0.1728  0.2150 -0.2624
   47MOL   C36231734   4.674   6.019   7.183 -0.5680 -0.6743  0.1402
   47MOL   C36331735   4.617   5.893   7.178 -0.4660  0.2403  0.4833
   47MOL   H36431736   4.410   5.521   7.192 -2.5164  1.3826  0.7159
   47MOL   H36531737   4.214   5.500   7.041 -0.8060  0.6198 -0.3066
   47MOL   H36631738   4.413   5.757   6.748  0.8223 -0.9155 -0.8402
   47MOL   H36731739   4.624   5.752   6.895 -0.5415  0.8938 -0.1485
   47MOL   H36831740   4.899   5.700   7.151  1.8692  1.2975 -0.6779
   47MOL   H36931741   5.004   5.928   7.134  0.4883  1.6712  1.5277
   47MOL   H37031742   4.818   6.133   7.406 -1.1310  1.6122  0.9964
   47MOL   H37131743   4.898   6.286   7.586  1.5984  0.4666  0.5192
   47MOL   H37231744   5.069   6.540   7.269  1.2383 -0.3515 -0.0892
   47MOL   H37331745   4.998   6.378   7.101 -1.0127 -0.6228 -0.6367
   47MOL   H37431746   4.613   6.108   7.178  1.1913  0.5136 -0.6786
   47MOL   H37531747   4.509   5.896   7.180 -0.5176 -0.4647 -0.9326
   47MOL   C37631748   4.775   6.763   7.589  0.4505  0.1759  0.2623
   47MOL   C37731749   4.837   6.634   7.564  0.1718  0.2574 -0.7154
   47MOL   C37831750   4.978   6.616   7.556  0.1345 -0.6432 -0.2072
   47MOL   O37931751   5.037   6.494   7.544  0.4256  0.6499 -0.4833
   47MOL   C38031752   5.055   6.736   7.561 -0.2863 -0.2654  0.1691
   47MOL   C38131753   5.000   6.863   7.587 -0.3634 -0.7395 -0.2389
   47MOL   C38231754   4.859   6.874   7.606 -0.0308  0.4128 -0.0783
   47MOL   C38331755   4.800   7.001   7.653  0.6272  0.3517  0.1087
   47MOL   O38431756   4.732   7.075   7.584 -0.0364  0.1570  0.6498
   47MOL   C38531757   4.829   7.036   7.791  0.4594  0.0565  0.1156
   47MOL   C38631758   4.892   6.951   7.880  0.6257  0.5945 -0.3531
   47MOL   C38731759   4.931   6.997   8.008 -0.1223 -0.0896  0.0990
   47MOL   C38831760   4.902   7.130   8.049 -0.0460 -0.5084 -0.6794
   47MOL   O38931761   4.941   7.171   8.170 -0.1250 -0.0737 -0.3579
   47MOL   C39031762   4.941   7.089   8.282 -0.5974 -0.8114 -0.3508
   47MOL   C39131763   4.816   7.036   0.022 -0.2812 -0.0695 -0.4931
   47MOL   C39231764   4.813   6.949   0.128  0.1394 -0.2543  0.0606
   47MOL   C39331765   4.933   6.897   0.179  0.3153 -0.1039 -0.3523
   47MOL   C39431766   5.057   6.949   0.125  0.3069 -0.2117 -0.0540
   47MOL   C39531767   5.058   7.048   0.032 -0.3956 -0.1617 -0.0009
   47MOL   C39631768   4.843   7.215   7.957 -0.2024 -0.0841  0.0035
   47MOL   C39731769   4.809   7.168   7.831 -0.2306  0.4745 -1.0660
   47MOL   H39831770   4.671   6.770   7.615  0.1277 -0.5971 -0.7612
   47MOL   H39931771   4.774   6.547   7.553  1.8666 -1.1730  0.6618
   47MOL   H40031772   5.162   6.724   7.549 -0.2930  2.0634 -3.1977
   47MOL   H40131773   5.069   6.946   7.582  1.3610 -2.2358 -2.3820
   47MOL   H40231774   4.914   6.851   7.847 -2.0639  0.1116 -0.7506
   47MOL   H40331775   4.982   6.927   8.073  2.7318  1.0127 -0.8751
   47MOL   H40431776   4.717   7.046   8.292 -0.2501  1.0999 -0.3056
   47MOL   H40531777   4.719   6.918   0.171 -0.5955  2.1761  0.3353
   47MOL   H40631778   5.145   6.913   0.176 -0.1008  1.8058  2.1086
   47MOL   H40731779   5.153   7.097   0.018 -0.9235  1.0307  0.5375
   47MOL   H40831780   4.841   7.319   7.986 -2.9106 -0.0303 -0.3027
   47MOL   H40931781   4.788   7.242   7.755  0.8677 -1.1604 -3.0222
   47MOL   C41031782   4.735   6.493   0.161 -0.2590 -0.2682  0.5965
   47MOL   C41131783   4.764   6.629   0.196  0.4219 -0.1785 -0.7747
   47MOL   C41231784   4.903   6.673   0.205 -0.0143 -0.3059 -0.1702
   47MOL   O41331785   4.932   6.789   0.261  0.0066  0.0656  0.0608
   47MOL   C41431786   5.003   6.584   0.170  0.5961 -0.7066 -0.0229
   47MOL   C41531787   4.967   6.453   0.136 -0.3553 -0.2067 -0.2303
   47MOL   C41631788   4.836   6.401   0.141 -0.0120 -0.2234 -0.0556
   47MOL   C41731789   4.805   6.256   0.139 -0.2181  0.2522 -0.4431
   47MOL   O41831790   4.745   6.217   0.240 -0.0334  0.5810  0.3280
   47MOL   C41931791   4.874   6.175   0.028  0.6364  0.7677  0.0514
   47MOL   C42031792   4.890   6.233   8.213 -0.3592  0.4046 -0.0619
   47MOL   C42131793   4.939   6.156   8.105 -0.7600 -0.5076  0.3862
   47MOL   C42231794   4.961   6.017   8.119  0.0557  0.9190  0.3891
   47MOL   O42331795   5.002   5.941   8.015 -0.2512 -0.1676  0.0977
   47MOL   C42431796   4.925   5.912   7.905  0.2075  0.5608 -0.2952
   47MOL   C42531797   4.856   5.789   7.900 -0.1146  0.0738 -0.0353
   47MOL   C42631798   4.784   5.767   7.782 -0.7422  0.1736 -0.1739
   47MOL   C42731799   4.760   5.869   7.692  0.2300  0.1974 -0.0161
   47MOL   C42831800   4.836   5.986   7.695  0.7223 -0.8582 -0.7976
   47MOL   C42931801   4.920   6.005   7.798 -0.4875  0.0288 -0.8401
   47MOL   C43031802   4.935   5.961   8.243  0.0111 -0.1003  0.0815
   47MOL   C43131803   4.893   6.038   0.043 -0.4924  0.5985  0.0035
   47MOL   H43231804   4.634   6.455   0.161 -0.6148  0.6504 -0.6434
   47MOL   H43331805   4.680   6.690   0.228  0.5070  0.5299 -1.8597
   47MOL   H43431806   5.108   6.611   0.167  0.2754  0.8454  1.8696
   47MOL   H43531807   5.037   6.372   0.117 -0.8845 -0.2232 -2.2660
   47MOL   H43631808   4.861   6.336   8.202 -2.9087 -0.0387  2.0377
   47MOL   H43731809   4.960   6.197   8.007 -1.5753 -1.0309 -0.0114
   47MOL   H43831810   4.861   5.711   7.975  0.4064 -0.1647 -0.3196
   47MOL   H43931811   4.746   5.667   7.763 -0.4825  0.5208 -2.6572
   47MOL   H44031812   4.826   6.068   7.627 -1.3891  0.7413  1.3802
   47MOL   H44131813   4.974   6.098   7.813  3.4433 -2.4212  0.9357
   47MOL   H44231814   4.952   5.855   8.256  2.7048  0.4374  1.3188
   47MOL   H44331815   4.875   5.992   0.139  0.4540 -0.6197 -0.3993
   47MOL   C44431816   4.493   5.553   7.501  0.4521  0.2955 -0.4946
   47MOL   C44531817   4.592   5.653   7.499 -0.0115  1.2476  0.6193
   47MOL   C44631818   4.579   5.754   7.592  0.0103 -0.4003  0.4835
   47MOL   O44731819   4.679   5.852   7.583 -0.1616 -0.4804 -0.2613
   47MOL   C44831820   4.466   5.762   7.675  0.1588  0.4375 -0.2140
   47MOL   C44931821   4.368   5.661   7.673 -0.6459  0.1623 -0.1638
   47MOL   C45031822   4.379   5.550   7.582 -0.5972 -0.6979  0.2093
   47MOL   C45131823   4.274   5.451   7.558 -0.6061 -0.0365 -0.6265
   47MOL   O45231824   4.259   5.409   7.444 -0.1610 -0.1165 -0.3685
   47MOL   C45331825   4.184   5.408   7.675 -0.1708  0.1257 -0.4434
   47MOL   C45431826   4.056   5.370   7.645  0.6685  0.1360  0.2174
   47MOL   C45531827   3.965   5.330   7.754  0.5067 -0.0256  0.3555
   47MOL   C45631828   4.005   5.335   7.887 -0.2546  0.5971  0.4201
   47MOL   O45731829   3.930   5.288   7.992 -0.0192 -0.2877  0.2408
   47MOL   C45831830   3.852   5.362   8.076  0.2856  0.4476 -0.0229
   47MOL   C45931831   3.829   5.300   8.200 -0.3595 -0.1870 -0.2246
   47MOL   C46031832   3.743   5.368   8.290  0.2010  0.1095  0.2068
   47MOL   C46131833   3.692   5.494   8.254  0.4252  0.9560 -0.1668
   47MOL   C46231834   3.715   5.553   8.130 -0.9999 -0.4774  0.2859
   47MOL   C46331835   3.801   5.491   8.043  0.3097  0.1173 -0.0437
   47MOL   C46431836   4.137   5.367   7.916  0.7276  0.3894 -0.2895
   47MOL   C46531837   4.221   5.410   7.810 -0.1437 -0.0924  0.6776
   47MOL   H46631838   4.514   5.484   7.420  3.0371 -0.9631  1.2068
   47MOL   H46731839   4.672   5.650   7.426 -0.2607  0.9476  0.3561
   47MOL   H46831840   4.454   5.845   7.743  1.3227  0.4358  0.0027
   47MOL   H46931841   4.279   5.681   7.730 -2.6856 -1.2304 -2.7391
   47MOL   H47031842   4.019   5.360   7.544  4.4631 -0.3079 -1.1800
   47MOL   H47131843   3.865   5.300   7.725  0.0881  0.9161  0.7995
   47MOL   H47231844   3.866   5.202   8.225 -1.0893 -0.0420  1.4393
   47MOL   H47331845   3.704   5.326   0.069 -1.8395  0.9957 -0.2257
   47MOL   H47431846   3.661   5.641   8.097 -0.3309 -0.5428 -1.0097
   47MOL   H47531847   3.819   5.540   7.949  0.0442  0.3345  0.0176
   47MOL   H47631848   4.168   5.373   8.019 -1.2694 -1.0613  0.4343
   47MOL   H47731849   4.323   5.441   7.830  0.4037 -0.0456 -2.0409
   47MOL   C47831850   3.277   5.677   8.262  0.6964  0.1845  0.2752
   47MOL   C47931851   3.413   5.680   8.280  0.5758 -0.2898  0.1587
   47MOL   C48031852   3.475   5.555   0.007  0.3925 -0.1722 -0.2152
   47MOL   O48131853   3.611   5.560   0.034 -0.3152 -0.8306 -0.1304
   47MOL   C48231854   3.399   5.434   0.005 -0.0917 -0.1240  0.0912
   47MOL   C48331855   3.263   5.439   8.286 -0.1830  0.6053 -0.5655
   47MOL   C48431856   3.193   5.565   8.274 -0.6535  0.8414  0.4667
   47MOL   C48531857   3.048   5.572   8.263  0.2768 -0.4299 -0.4346
   47MOL   O48631858   2.999   5.636   8.171 -0.2854 -0.1556 -0.5095
   47MOL   C48731859   2.964   5.517   0.059  0.6798  0.8001  0.1788
   47MOL   C48831860   2.824   5.544   0.041 -0.7876  0.6141 -0.5529
   47MOL   C48931861   2.732   5.483   0.125  0.8752  0.3285 -0.4452
   47MOL   C49031862   2.775   5.397   0.233  0.2806 -0.2890  0.1150
   47MOL   O49131863   2.684   5.326   0.310 -0.3185  0.1156 -1.2471
   47MOL   C49231864   2.647   5.364   0.439 -0.3893  0.7080  0.8621
   47MOL   C49331865   2.713   5.470   0.510  0.4131  0.1508 -0.5057
   47MOL   C49431866   2.656   5.500   0.634 -0.4290 -0.8731 -0.0368
   47MOL   C49531867   2.555   5.424   0.691  1.1991 -0.5617 -0.1456
   47MOL   C49631868   2.481   5.330   0.615  0.2813 -0.2691  0.0167
   47MOL   C49731869   2.527   5.299   0.485 -0.0167  0.0110  0.4346
   47MOL   C49831870   2.910   5.369   0.246  0.3268  0.1350 -0.0152
   47MOL   C49931871   3.004   5.436   0.168 -0.3371 -0.2759  0.3723
   47MOL   H50031872   3.221   5.768   8.253 -1.7416 -1.3899 -0.9420
   47MOL   H50131873   3.473   5.770   8.277 -0.1598  0.3101  2.5551
   47MOL   H50231874   3.447   5.340   0.026 -0.7753 -0.7262 -1.0010
   47MOL   H50331875   3.205   5.348   8.277 -0.8168  1.0172 -0.6947
   47MOL   H50431876   2.777   5.606   8.279 -1.7492  0.9387  0.3004
   47MOL   H50531877   2.627   5.505   0.113  1.4346  2.8656 -0.9026
   47MOL   H50631878   2.802   5.524   0.481 -0.0331  1.3045  0.2570
   47MOL   H50731879   2.702   5.577   0.696 -1.1726 -0.7589  0.3735
   47MOL   H50831880   2.398   5.279   0.663 -1.7164  1.6805 -1.2565
   47MOL   H50931881   2.468   5.225   0.432  0.2345 -1.0191  1.5572
   47MOL   H51031882   2.942   5.296   0.319  1.2832  0.7243  0.1624
   47MOL   H51131883   3.107   5.409   0.186 -0.3663 -0.8681 -0.3440
   47MOL   C51231884   2.184   5.581   0.836  0.3968 -0.2301 -0.2916
   47MOL   C51331885   2.293   5.490   0.827  0.0916 -0.4368  0.4448
   47MOL   C51431886   2.427   5.539   0.836  0.5328  0.1866 -0.3848
   47MOL   O51531887   2.529   5.451   0.819 -0.1227 -0.2259 -0.3868
   47MOL   C51631888   2.449   5.678   0.857  0.4281  0.9447 -0.2886
   47MOL   C51731889   2.341   5.769   0.870 -0.2326 -0.1131 -0.2478
   47MOL   C51831890   2.210   5.721   0.856  0.2196 -0.4233  0.2715
   47MOL   C51931891   2.097   5.813   0.870 -0.3974  0.7019 -0.3642
   47MOL   O52031892   2.033   5.813   0.973 -0.1566 -0.4850  0.9474
   47MOL   C52131893   2.060   5.903   0.754 -0.8098 -0.5218  0.3498
   47MOL   C52231894   1.967   6.004   0.761 -0.0782 -0.0328 -0.2086
   47MOL   C52331895   1.933   6.092   0.657 -1.1490 -0.6361 -0.3025
   47MOL   C52431896   2.017   6.093   0.541 -0.3216 -0.2347 -0.5269
   47MOL   O52531897   2.006   6.188   0.445 -0.8202  0.0184  0.3288
   47MOL   C52631898   1.887   6.239   0.399  0.3071 -0.3060  0.4117
   47MOL   C52731899   1.879   6.375   0.354  0.1138  0.0102 -0.2197
   47MOL   C52831900   1.757   6.438   0.318 -0.5243 -0.0445  0.4550
   47MOL   C52931901   1.646   6.358   0.313 -0.0891 -0.5223  0.1007
   47MOL   C53031902   1.648   6.220   0.348  0.1931 -0.5865 -0.2537
   47MOL   C53131903   1.768   6.164   0.391  0.2960 -0.1691  0.3022
   47MOL   C53231904   2.110   5.990   0.530 -0.0395  0.0022  0.1862
   47MOL   C53331905   2.130   5.897   0.633  0.0837  0.4679 -0.0574
   47MOL   H53431906   2.085   5.540   0.823  0.8391 -1.2330 -0.5727
   47MOL   H53531907   2.275   5.384   0.824 -0.2608 -0.3331 -2.3103
   47MOL   H53631908   2.547   5.723   0.859  0.7593  0.2478 -0.7616
   47MOL   H53731909   2.362   5.874   0.883  1.9157 -0.4572 -0.6886
   47MOL   H53831910   1.921   6.005   0.859 -1.3836  0.5094 -0.8153
   47MOL   H53931911   1.853   6.165   0.664  0.4952  1.4867 -2.5490
   47MOL   H54031912   1.968   6.434   0.342 -0.3769  0.8527  0.2394
   47MOL   H54131913   1.762   6.540   0.283  1.4212  0.4956  2.2209
   47MOL   H54231914   1.562   6.155   0.353  1.2872 -2.0808 -0.6419
   47MOL   H54331915   1.781   6.059   0.413  0.6580  0.0182  0.9918
   47MOL   H54431916   2.173   5.977   0.443 -0.1587 -2.1692  0.3787
   47MOL   H54531917   2.208   5.823   0.628  1.3116  1.7422 -0.0941
   47MOL   C54631918   1.247   6.309   0.477 -0.0619  0.0490 -0.0950
   47MOL   C54731919   1.365   6.373   0.439 -0.7419  1.3056  0.4518
   47MOL   C54831920   1.408   6.359   0.305 -0.2138 -0.1531 -0.3329
   47MOL   O54931921   1.524   6.414   0.259 -0.6297 -0.3373 -0.3443
   47MOL   C55031922   1.326   6.286   0.215  0.0452  0.1944 -0.2734
   47MOL   C55131923   1.210   6.221   0.255 -0.3690  0.0261  0.4869
   47MOL   C55231924   1.166   6.232   0.390  0.4659 -0.0516 -0.5080
   47MOL   C55331925   1.030   6.169   0.428  1.0173  0.9179  0.2316
   47MOL   O55431926   0.987   6.066   0.369 -0.5060 -0.8315 -0.2515
   47MOL   C55531927   0.959   6.234   0.543 -0.2950  0.2997 -0.1380
   47MOL   C55631928   0.878   6.158   0.628  0.0751  0.1120 -0.0135
   47MOL   C55731929   0.811   6.218   0.735  0.2851 -0.4427  0.5814
   47MOL   C55831930   0.820   6.357   0.756  1.0644  0.6687 -0.4125
   47MOL   O55931931   0.758   6.416   0.866 -0.3603 -0.1364  0.4391
   47MOL   C56031932   0.629   6.449   0.848 -0.1066 -0.7061 -0.5882
   47MOL   C56131933   0.610   6.589   0.823 -0.4225  0.3660 -0.1512
   47MOL   C56231934   0.480   6.632   0.803  0.3273 -0.5064  0.0820
   47MOL   C56331935   0.365   6.551   0.803  0.2400  0.3474  0.4230
   47MOL   C56431936   0.385   6.411   0.823  0.4636  0.8620  0.2394
   47MOL   C56531937   0.515   6.364   0.850  0.2372 -1.1989 -0.0312
   47MOL   C56631938   0.895   6.437   0.669 -0.7788  0.1341  0.0157
   47MOL   C56731939   0.958   6.374   0.558  0.1813  0.0777  0.1639
   47MOL   H56831940   1.220   6.318   0.582  1.3704 -0.7845  0.3575
   47MOL   H56931941   1.428   6.413   0.516  0.0140 -0.6805  0.9057
   47MOL   H57031942   1.362   6.274   0.114  1.1887  3.2532 -0.2831
   47MOL   H57131943   1.159   6.163   0.180 -3.1683 -1.4472  3.3840
   47MOL   H57231944   0.870   6.055   0.596  0.2349  0.9105 -2.8374
   47MOL   H57331945   0.747   6.157   0.798 -1.4374  0.5127 -0.2101
   47MOL   H57431946   0.692   6.656   0.801 -0.9025  0.9660 -0.1402
   47MOL   H57531947   0.468   6.740   0.798 -1.5144 -0.5536  2.6656
   47MOL   H57631948   0.302   6.342   0.822  0.3590  0.9343  1.7724
   47MOL   H57731949   0.530   6.260   0.875  0.3139 -1.1989 -0.0809
   47MOL   H57831950   0.914   6.542   0.690 -0.0778  0.0455 -0.1512
   47MOL   H57931951   1.019   6.431   0.490 -0.6883  1.8828  0.8578
   47MOL   C58031952   0.004   6.481   1.031 -0.1986 -0.6271  0.2826
   47MOL   C58131953   0.082   6.494   0.910 -0.0549  0.6234 -0.9396
   47MOL   C58231954   0.165   6.602   0.897 -0.5396  0.2959  0.3931
   47MOL   O58331955   0.242   6.607   0.787  0.4030 -0.3227  0.4804
   47MOL   C58431956   0.164   6.701   0.993 -0.0557 -0.4494 -0.2580
   47MOL   C58531957   0.085   6.693   1.109  0.3096 -0.1497  0.4468
   47MOL   C58631958   0.002   6.583   1.130  0.7730  0.6628 -0.1880
   47MOL   C58731959   8.206   6.584   1.229 -0.1006  0.1760  0.2959
   47MOL   O58831960   8.177   6.689   1.283 -0.5074  0.2186  0.0732
   47MOL   C58931961   8.139   6.450   1.272  0.0756 -0.6439  0.5258
   47MOL   C59031962   8.004   6.449   1.300 -0.2291 -0.0409  0.3412
   47MOL   C59131963   7.932   6.330   1.322 -0.4431  0.7658 -1.2405
   47MOL   C59231964   8.009   6.214   1.341  0.8545  0.0708 -0.0356
   47MOL   O59331965   7.956   6.092   1.372 -0.4227 -0.3482 -0.1879
   47MOL   C59431966   7.874   6.032   1.278 -0.6511 -0.8503 -0.1102
   47MOL   C59531967   7.766   5.957   1.327  0.0732 -0.4430  0.6943
   47MOL   C59631968   7.680   5.906   1.235 -0.5191  0.5244 -0.2925
   47MOL   C59731969   7.690   5.932   1.095  0.5612 -0.5593 -0.0512
   47MOL   C59831970   7.799   6.012   1.046  0.6498 -0.2967 -0.2990
   47MOL   C59931971   7.895   6.054   1.138  0.4807  0.4180  0.0104
   47MOL   C60031972   8.150   6.213   1.330  0.6169 -0.0999  0.9136
   47MOL   C60131973   8.211   6.334   1.297 -0.0001  0.2107  0.0723
   47MOL   H60231974   8.260   6.389   1.032 -2.5023  0.7566  1.6343
   47MOL   H60331975   0.090   6.410   0.843  1.7042  0.5981 -0.7412
   47MOL   H60431976   0.208   6.796   0.963 -1.2340  0.1783 -0.0361
   47MOL   H60531977   0.076   6.784   1.167 -0.5396 -0.8886  1.4754
   47MOL   H60631978   7.954   6.545   1.293  3.7838  2.0333 -0.9557
   47MOL   H60731979   7.825   6.345   1.327 -0.3243  1.4205 -0.4325
   47MOL   H60831980   7.751   5.925   1.429  0.5148 -1.1406  0.5407
   47MOL   H60931981   7.602   5.840   1.270  0.5336 -0.1780  0.7920
   47MOL   H61031982   7.807   6.042   0.943  1.5996 -0.3270 -0.2391
   47MOL   H61131983   7.975   6.110   1.094  1.6620 -1.2223  0.0424
   47MOL   H61231984   8.206   6.124   1.354  0.6607 -0.4170 -0.3031
   47MOL   H61331985   0.005   6.341   1.283  0.0029  0.6943  0.3229
   47MOL   C61431986   7.298   6.098   0.991  0.0148  0.6883 -0.5567
   47MOL   C61531987   7.431   6.050   0.977  0.5915  0.3699 -0.0635
   47MOL   C61631988   7.468   5.921   1.014 -0.0310  0.2964 -0.3599
   47MOL   O61731989   7.602   5.883   1.004  0.0079 -0.3330 -0.0732
   47MOL   C61831990   7.374   5.831   1.079  0.1878  0.0721  0.4323
   47MOL   C61931991   7.246   5.887   1.103  0.0628 -0.4197  0.2025
   47MOL   C62031992   7.203   6.014   1.053  0.0947 -0.0676 -0.5123
   47MOL   C62131993   7.062   6.059   1.088 -0.8402 -0.5698 -0.5251
   47MOL   O62231994   7.043   6.143   1.175 -0.1609  0.2773 -0.1075
   47MOL   C62331995   6.944   5.994   1.021 -0.0914  0.1762 -0.0982
   47MOL   C62431996   6.925   6.013   0.880  0.3036  0.5651  0.0851
   47MOL   C62531997   6.807   5.967   0.817 -0.0817  0.4376 -0.3079
   47MOL   C62631998   6.712   5.894   0.892 -0.6843 -0.3847  0.1221
   47MOL   O62731999   6.606   5.839   0.825  0.4249 -0.2737  0.2565
   47MOL   C62832000   6.567   5.707   0.848 -0.4543  0.1883 -0.0004
   47MOL   C62932001   6.661   5.603   0.823  0.1233 -0.8541 -0.5001
   47MOL   C63032002   6.620   5.470   0.847  0.2273 -1.0608  0.0642
   47MOL   C63132003   6.495   5.441   0.904 -0.9700 -0.0572  0.2018
   47MOL   C63232004   6.404   5.546   0.921 -0.1949  0.4562  0.6623
   47MOL   C63332005   6.439   5.679   0.892 -0.0766  0.2143 -0.5121
   47MOL   C63432006   6.734   5.874   1.029  0.2985  0.4466  0.3129
   47MOL   C63532007   6.850   5.922   1.094  0.1352 -0.5702 -0.3695
   47MOL   H63632008   7.274   6.200   0.964 -3.5494 -0.3918 -1.8025
   47MOL   H63732009   7.506   6.121   0.945  1.0451 -0.6802 -1.4048
   47MOL   H63832010   7.409   5.735   1.113  0.6139  1.0662  2.9072
   47MOL   H63932011   7.170   5.829   1.153 -1.7282  2.1435  0.5888
   47MOL   H64032012   6.991   6.068   0.816 -1.2971  1.8376 -0.5172
   47MOL   H64132013   6.797   5.971   0.709 -1.2312  0.6977 -0.1953
   47MOL   H64232014   6.762   5.636   0.800 -0.6941  3.1394  1.2407
   47MOL   H64332015   6.692   5.390   0.837  1.6039  0.1943 -0.3782
   47MOL   H64432016   6.302   5.527   0.954 -1.3821  2.1398 -1.8837
   47MOL   H64532017   6.369   5.760   0.905 -0.6430 -0.2777 -0.4752
   47MOL   H64632018   6.656   5.821   1.081 -0.8901  0.5315 -1.3166
   47MOL   H64732019   6.866   5.914   1.201  2.0646 -1.7670 -0.7064
   47MOL   C64832020   6.137   5.211   1.038  0.2826 -0.2056 -0.6068
   47MOL   C64932021   6.274   5.257   1.047  0.6923  0.3700  0.3822
   47MOL   C65032022   6.347   5.272   0.932 -0.2376  0.5773 -0.1299
   47MOL   O65132023   6.470   5.312   0.937 -0.2141 -0.1077 -0.7173
   47MOL   C65232024   6.292   5.248   0.805 -0.2722 -0.5147 -0.5119
   47MOL   C65332025   6.154   5.216   0.789  0.1490 -0.8326  0.0128
   47MOL   C65432026   6.078   5.195   0.908  0.2832 -0.4698 -0.0874
   47MOL   C65532027   5.939   5.148   0.889  0.5962 -0.3361  0.7056
   47MOL   O65632028   5.885   5.122   0.780 -0.1608 -0.8814  0.6526
   47MOL   C65732029   5.854   5.119   1.006  0.3445 -0.2634 -0.5981
   47MOL   C65832030   5.855   4.988   1.051  0.3714  0.4234 -0.6914
   47MOL   C65932031   5.771   4.942   1.151 -0.9956  0.1141  0.1235
   47MOL   C66032032   5.688   5.034   1.216  0.4474 -1.0539  0.3934
   47MOL   O66132033   5.590   4.988   1.300  0.2372  0.2840  0.6093
   47MOL   C66232034   5.463   5.006   1.263  0.1978  0.3938 -0.2664
   47MOL   C66332035   5.383   5.103   1.330 -0.0516 -0.2463 -0.4513
   47MOL   C66432036   5.256   5.134   1.290 -0.1974 -0.0307 -0.4555
   47MOL   C66532037   5.192   5.064   1.185  0.6145  0.5914 -0.4225
   47MOL   C66632038   5.266   4.962   1.127  0.1096 -0.3235 -0.1769
   47MOL   C66732039   5.400   4.936   1.159  0.1973 -0.6015  0.3217
   47MOL   C66832040   5.689   5.169   1.175  0.6639  0.0088  0.3762
   47MOL   C66932041   5.773   5.210   1.074 -0.4439 -0.3367  0.5966
   47MOL   H67032042   6.083   5.206   1.131  0.9606  0.5759 -0.1651
   47MOL   H67132043   6.322   5.265   1.144  1.7686 -0.5439 -0.0676
   47MOL   H67232044   6.355   5.270   0.720 -0.4550  1.7417 -0.0939
   47MOL   H67332045   6.113   5.198   0.691 -1.8803 -2.0322  1.0382
   47MOL   H67432046   5.920   4.917   1.002  0.9426 -0.5182  1.3670
   47MOL   H67532047   5.772   4.838   1.180 -0.8203 -0.0728 -0.5490
   47MOL   H67632048   5.430   5.156   1.411 -0.4838  1.0931 -1.0578
   47MOL   H67732049   5.212   5.221   1.335 -1.8832 -1.5777  0.9320
   47MOL   H67832050   5.216   4.908   1.047 -1.1441 -0.9637  1.0124
   47MOL   H67932051   5.452   4.856   1.108 -0.8698 -0.2916 -1.2862
   47MOL   H68032052   5.633   5.247   1.224 -1.4805  0.6769 -3.0114
   47MOL   H68132053   5.772   5.314   1.043 -0.9942 -1.1388 -2.1680
   47MOL   H68232054   5.093   5.095   1.158  0.8753  1.7514 -0.0953
   48MOL     C132055   5.019   7.804   5.350  0.4019 -0.0393 -0.0613
   48MOL     C232056   5.080   7.869   5.238  0.3694  1.5197 -0.6139
   48MOL     C332057   5.219   7.899   5.247  0.4307 -0.0400  0.5150
   48MOL     O432058   5.282   7.964   5.139  0.1409  0.1439 -0.2929
   48MOL     C532059   5.291   7.875   5.367 -0.4921  0.2359 -0.5186
   48MOL     C632060   5.229   7.817   5.478 -0.1367  0.4184  0.5602
   48MOL     C732061   5.095   7.770   5.470 -0.1975  0.1345  0.5337
   48MOL     C832062   5.037   7.700   5.594  0.5267  0.3168  0.9163
   48MOL     O932063   5.102   7.681   5.695  0.1678 -0.5733 -0.5377
   48MOL    C1032064   4.909   7.631   5.590 -0.3166 -0.2944 -0.2003
   48MOL    C1132065   4.827   7.629   5.706  0.0495 -0.3360  0.3295
   48MOL    C1232066   4.701   7.570   5.703  0.5339 -0.1027 -0.4072
   48MOL    C1332067   4.652   7.510   5.587  0.1302  0.8086 -1.3078
   48MOL    O1432068   4.531   7.456   5.585 -0.0184 -0.3457 -0.2448
   48MOL    C1532069   4.440   7.502   5.492  0.2745  0.5850 -0.1957
   48MOL    C1632070   4.396   7.398   5.402 -0.3259 -0.0778 -0.6091
   48MOL    C1732071   4.294   7.433   5.315 -0.0781  0.3809 -0.0574
   48MOL    C1832072   4.235   7.561   5.315  0.7643  0.0939  0.1846
   48MOL    C1932073   4.285   7.662   5.400  0.6346 -0.2184  0.2105
   48MOL    C2032074   4.388   7.632   5.494 -0.1518  0.1303 -0.0939
   48MOL    C2132075   4.742   7.495   5.485  0.0214  0.1725  0.6305
   48MOL    C2232076   4.866   7.558   5.484 -0.2394 -0.1263 -0.5176
   48MOL    H2332077   4.915   7.774   5.345  0.0362  1.2266 -0.1229
   48MOL    H2432078   5.030   7.866   5.143 -1.4170  0.4006  0.3136
   48MOL    H2532079   5.397   7.896   5.376 -0.4673  0.1219 -0.5423
   48MOL    H2632080   5.302   7.807   5.557  1.9749 -0.0224 -1.4030
   48MOL    H2732081   4.862   7.684   5.792 -2.1608  0.2182  0.9291
   48MOL    H2832082   4.633   7.587   5.785  3.6533  0.3497  2.1934
   48MOL    H2932083   4.446   7.302   5.400 -0.0669 -0.0684  2.9623
   48MOL    H3032084   4.258   7.365   5.239  0.3314 -0.1037  0.1809
   48MOL    H3132085   4.233   7.756   5.415  2.7246  1.0744 -0.4901
   48MOL    H3232086   4.411   7.704   5.571 -0.4515  0.7815 -0.6089
   48MOL    H3332087   4.715   7.439   5.397  4.1136 -1.3400  0.2523
   48MOL    H3432088   4.923   7.545   5.393  0.3962 -0.7171 -0.0318
   48MOL    H3532089   5.230   7.965   5.060 -1.9761 -1.7709  0.9896
   48MOL    C3632090   4.283   7.739   4.935  0.2887 -0.2621 -0.1897
   48MOL    C3732091   4.260   7.654   5.047  0.6487  0.3462  0.1064
   48MOL    C3832092   4.146   7.672   5.131 -0.7577  0.4756  0.4214
   48MOL    O3932093   4.127   7.579   5.235  0.6854 -0.3535  0.1015
   48MOL    C4032094   4.060   7.782   5.105  0.0104  0.1916  0.2248
   48MOL    C4132095   4.079   7.863   4.989  0.1919  0.3895  0.0482
   48MOL    C4232096   4.189   7.842   4.900 -0.7094  0.2790 -0.0462
   48MOL    C4332097   4.208   7.917   4.775  0.5423  0.2316  0.0884
   48MOL    O4432098   4.249   7.862   4.671  0.8540 -0.7683 -0.1957
   48MOL    C4532099   4.187   8.065   4.781  0.1191  0.0605 -0.5584
   48MOL    C4632100   4.136   8.136   4.673 -0.3135  0.2592  0.0726
   48MOL    C4732101   4.122   8.276   4.687 -0.0460 -0.5416 -0.2870
   48MOL    C4832102   4.138   0.030   4.814  0.6690 -0.1705 -0.0392
   48MOL    O4932103   4.094   0.157   4.831 -0.1853  0.1252 -0.3194
   48MOL    C5032104   4.177   0.264   4.827  0.1393 -0.0021  0.3580
   48MOL    C5132105   4.115   0.386   4.831 -0.0952 -0.2178  0.2050
   48MOL    C5232106   4.192   0.500   4.821  0.5956 -0.2339 -0.5976
   48MOL    C5332107   4.327   0.495   4.811 -0.1967  0.2269  0.2052
   48MOL    C5432108   4.397   0.374   4.813 -0.1138 -0.0302  0.0310
   48MOL    C5532109   4.319   0.258   4.828  0.1143  0.0697  0.0049
   48MOL    C5632110   4.179   8.268   4.929 -0.0943  0.1560 -0.2858
   48MOL    C5732111   4.211   8.131   4.904  0.0266 -0.2008  0.1363
   48MOL    H5832112   4.373   7.716   4.880 -0.1487 -1.7788 -0.2811
   48MOL    H5932113   4.332   7.581   5.081  1.0547  0.6960  0.0010
   48MOL    H6032114   3.967   7.808   5.154 -0.6907  0.2742 -1.1482
   48MOL    H6132115   4.001   7.934   4.964  0.1298  0.6525  0.9582
   48MOL    H6232116   4.119   8.092   4.576  0.7718  0.3885 -0.1861
   48MOL    H6332117   4.070   0.013   4.606 -0.5434 -0.4843  0.0638
   48MOL    H6432118   4.008   0.396   4.825  0.0976  0.9744 -1.3508
   48MOL    H6532119   4.145   0.597   4.824 -0.7939 -0.9477  2.9709
   48MOL    H6632120   4.504   0.373   4.833 -0.3777 -2.1145  1.5213
   48MOL    H6732121   4.379   0.170   4.844 -0.4880 -0.4862 -0.7344
   48MOL    H6832122   4.201   0.004   5.023 -2.5045  0.8669 -0.0416
   48MOL    H6932123   4.240   8.073   4.990  0.3317  0.2085  0.3125
   48MOL    C7032124   4.492   0.710   4.471 -0.4089  0.4091 -0.1011
   48MOL    C7132125   4.404   0.687   4.580  0.7572 -0.1606 -0.6849
   48MOL    C7232126   4.462   0.653   4.709  0.1377 -0.4148 -0.7093
   48MOL    O7332127   4.384   0.616   4.808 -0.0954  0.3022  0.3508
   48MOL    C7432128   4.600   0.637   4.718 -0.0347  0.0822  0.8369
   48MOL    C7532129   4.685   0.671   4.607  0.1629 -0.3144  0.0991
   48MOL    C7632130   4.629   0.708   4.484 -0.6849  0.4349  0.5408
   48MOL    C7732131   4.726   0.736   4.375 -0.1535 -0.1218  0.4123
   48MOL    O7832132   4.762   0.650   4.298 -0.3611 -0.4550  0.2805
   48MOL    C7932133   4.780   0.875   4.365 -0.3752  0.3902 -0.3417
   48MOL    C8032134   4.724   0.977   4.441 -0.0219  0.0751 -0.0663
   48MOL    C8132135   4.765   1.110   4.428 -0.4281  0.0904  0.7058
   48MOL    C8232136   4.863   1.140   4.338  0.3217 -0.1368  0.7757
   48MOL    O8332137   4.899   1.271   4.321 -0.7564  0.0760 -0.3054
   48MOL    C8432138   4.856   1.332   4.210  0.0282 -1.0699  0.5405
   48MOL    C8532139   4.942   1.387   4.110 -0.3775  0.5560  0.0542
   48MOL    C8632140   4.881   1.466   4.003  0.3343 -0.0775  0.4851
   48MOL    C8732141   4.743   1.497   4.000  0.5922  0.1626  0.2044
   48MOL    C8832142   4.667   1.452   4.104  0.1554 -0.0243  0.0065
   48MOL    C8932143   4.717   1.371   4.208 -0.0576  0.4803  0.3293
   48MOL    C9032144   4.928   1.035   4.268  0.0565  0.2785  0.0612
   48MOL    C9132145   4.888   0.900   4.273 -0.2484 -0.0014  0.0105
   48MOL    H9232146   4.451   0.741   4.376 -0.9837  0.8414  0.2835
   48MOL    H9332147   4.298   0.702   4.569  0.9857  0.8962 -1.4614
   48MOL    H9432148   4.635   0.603   4.814 -2.6420 -0.1625  1.7140
   48MOL    H9532149   4.792   0.665   4.623 -0.0236 -1.0687  1.0808
   48MOL    H9632150   4.641   0.960   4.508 -0.0806 -0.0836 -0.1763
   48MOL    H9732151   4.718   1.191   4.481 -0.0198 -0.9760  2.7693
   48MOL    H9832152   5.046   1.359   4.112 -0.1189  1.5053 -0.1772
   48MOL    H9932153   4.953   1.504   3.932 -0.4928  0.1631 -0.2330
   48MOL   H10032154   4.565   1.488   4.101  0.5071  0.9000 -3.2663
   48MOL   H10132155   4.658   1.346   4.296  1.2247  1.0671  1.3752
   48MOL   H10232156   5.006   1.062   4.198 -0.1114 -1.3052 -0.7457
   48MOL   H10332157   4.927   0.823   4.208  0.6899  0.8210 -0.4226
   48MOL   C10432158   4.574   1.411   3.578  0.0686 -0.2193  0.4646
   48MOL   C10532159   4.568   1.457   3.715 -0.7844  0.3875 -0.5003
   48MOL   C10632160   4.680   1.526   3.773  0.1518 -0.4511 -0.3055
   48MOL   O10732161   4.686   1.565   3.901 -0.3867  0.1700  0.3031
   48MOL   C10832162   4.788   1.559   3.685 -0.2240 -0.5263 -0.4085
   48MOL   C10932163   4.790   1.520   3.548  0.1664 -0.2089 -0.4603
   48MOL   C11032164   4.685   1.439   3.498 -0.3283  0.3609 -0.1885
   48MOL   C11132165   4.674   1.388   3.359  0.1226 -0.3499 -0.1909
   48MOL   O11232166   4.609   1.288   3.324 -0.0622  0.1110 -0.3549
   48MOL   C11332167   4.762   1.458   3.255  0.3301 -0.4401 -0.2399
   48MOL   C11432168   4.746   1.596   3.226 -0.3116  0.2233 -0.2610
   48MOL   C11532169   4.832   1.654   3.126  0.3554 -0.2446  0.1409
   48MOL   C11632170   4.936   1.575   3.063  0.2921  0.1445  0.1805
   48MOL   O11732171   5.019   1.641   2.974  0.1434 -0.0981  0.1091
   48MOL   C11832172   5.127   1.705   3.031  0.1155  0.0220 -0.4248
   48MOL   C11932173   5.152   1.845   3.014  0.9453 -0.7058  0.0598
   48MOL   C12032174   5.246   1.909   3.089 -0.2917  0.6726 -0.3937
   48MOL   C12132175   5.326   1.841   3.183  0.1087  0.9945  0.6219
   48MOL   C12232176   5.305   1.702   3.198 -0.9003  0.3318  0.4568
   48MOL   C12332177   5.209   1.631   3.117 -0.3630  0.7486 -0.7581
   48MOL   C12432178   4.940   1.441   3.085 -0.0398  0.4512  0.0894
   48MOL   C12532179   4.857   1.384   3.180 -0.6052  0.5306  0.4632
   48MOL   H12632180   4.494   1.348   3.543 -1.1785  2.2809 -1.3260
   48MOL   H12732181   4.477   1.431   3.768 -0.8491 -2.4834 -1.9185
   48MOL   H12832182   4.871   1.619   3.718  1.3761 -2.2319 -1.2030
   48MOL   H12932183   4.879   1.536   3.490  1.3503  3.1574  2.1139
   48MOL   H13032184   4.661   1.650   3.264  1.3780  1.1812  2.2741
   48MOL   H13132185   4.829   1.759   3.101  1.2900 -0.0621  0.7927
   48MOL   H13232186   5.103   1.903   2.937  0.3750 -0.6495  0.4607
   48MOL   H13332187   5.251   2.016   3.074 -1.9408  0.9150  0.6502
   48MOL   H13432188   5.372   1.661   3.272 -0.0296 -5.2135 -3.1270
   48MOL   H13532189   5.204   1.524   3.126  0.2613  0.5708 -2.4203
   48MOL   H13632190   5.023   1.392   3.035  0.4994  2.7617 -1.3378
   48MOL   H13732191   4.859   1.277   3.193  0.2571  0.6504  1.3838
   48MOL   C13832192   5.775   1.884   3.240 -0.1340 -0.4302  0.0093
   48MOL   C13932193   5.641   1.913   3.206  0.2299 -0.4107 -0.5465
   48MOL   C14032194   5.533   1.870   3.292 -0.3596 -0.2130  0.4005
   48MOL   O14132195   5.406   1.915   3.266 -0.2438  0.0807  0.0915
   48MOL   C14232196   5.562   1.796   3.403  0.8609  0.1720 -0.7641
   48MOL   C14332197   5.694   1.759   3.430  0.1825 -0.2359  0.7796
   48MOL   C14432198   5.803   1.798   3.353 -0.6403 -0.0277 -0.3864
   48MOL   C14532199   5.942   1.754   3.387  0.0715 -0.2089  0.1829
   48MOL   O14632200   5.978   1.726   3.503 -0.2667 -0.3037 -0.0171
   48MOL   C14732201   6.046   1.779   3.280 -0.2405  0.1840 -0.4052
   48MOL   C14832202   6.018   1.745   3.145  0.7791  0.1157 -0.6441
   48MOL   C14932203   6.116   1.744   3.050 -0.0988  0.0674 -0.4677
   48MOL   C15032204   6.248   1.798   3.083 -0.6890 -0.5683  0.0489
   48MOL   O15132205   6.334   1.809   2.977  0.4373 -0.2392 -0.5575
   48MOL   C15232206   6.450   1.882   2.991 -0.1522  0.1276  0.0819
   48MOL   C15332207   6.447   2.021   3.021  0.3240  0.3012  0.1567
   48MOL   C15432208   6.566   2.093   3.041  0.3003  0.2085 -0.1872
   48MOL   C15532209   6.689   2.026   3.027  0.4111 -0.0214  0.3709
   48MOL   C15632210   6.691   1.888   2.986  0.3365 -0.0430  0.5275
   48MOL   C15732211   6.569   1.816   2.970  0.0805 -0.3355 -0.9039
   48MOL   C15832212   6.275   1.822   3.220 -0.2056 -0.0740 -1.0290
   48MOL   C15932213   6.177   1.818   3.316  0.6210 -0.4741 -0.3881
   48MOL   H16032214   5.847   1.937   3.179  0.2414  0.2195  0.9955
   48MOL   H16132215   5.620   1.978   3.123 -0.0437 -1.4348 -1.2944
   48MOL   H16232216   5.486   1.757   3.468  1.7327  0.2234  0.2931
   48MOL   H16332217   5.708   1.690   3.512 -0.1807 -0.0246  1.0225
   48MOL   H16432218   5.918   1.714   3.121  1.8382 -1.4579 -3.2090
   48MOL   H16532219   6.097   1.710   2.949  2.4702 -0.7436 -0.7286
   48MOL   H16632220   6.352   2.070   3.034  0.5304  0.2602  1.8624
   48MOL   H16732221   6.565   2.195   3.076  0.4773  0.5412 -1.1170
   48MOL   H16832222   6.783   1.837   2.963  0.1012 -0.7278  1.0709
   48MOL   H16932223   6.579   1.711   2.946  0.2310 -0.1561 -1.6577
   48MOL   H17032224   6.371   1.851   3.261  1.0385 -2.5517 -2.0352
   48MOL   H17132225   6.186   1.831   3.423  0.1243  1.3502 -0.5436
   48MOL   C17232226   7.018   2.203   2.784 -0.1506 -0.4899  0.0312
   48MOL   C17332227   6.912   2.192   2.876  0.1722  0.7265  0.2091
   48MOL   C17432228   6.905   2.088   2.976 -0.6738 -0.0405  0.1789
   48MOL   O17532229   6.803   2.088   3.059 -0.1545 -0.6858 -0.1372
   48MOL   C17632230   7.016   1.998   2.977  0.0008 -0.8758 -0.5157
   48MOL   C17732231   7.120   2.000   2.881  0.9792  0.5586 -0.4116
   48MOL   C17832232   7.122   2.105   2.789 -0.1400  0.7161 -0.1146
   48MOL   C17932233   7.237   2.122   2.694  0.0606  0.0355 -0.1793
   48MOL   O18032234   7.283   2.234   2.660  0.0232  0.4267 -0.5149
   48MOL   C18132235   7.298   1.998   2.642  0.1902  0.8037 -0.0273
   48MOL   C18232236   7.234   1.878   2.604  0.4737 -0.1185 -0.3087
   48MOL   C18332237   7.305   1.763   2.559 -0.3836  0.0555 -0.3524
   48MOL   C18432238   7.442   1.763   2.547 -0.3062  0.6769 -0.1857
   48MOL   O18532239   7.503   1.648   2.517 -0.7112 -0.4710 -0.0056
   48MOL   C18632240   7.622   1.659   2.450 -0.2103  0.3937  0.5889
   48MOL   C18732241   7.631   1.723   2.326  0.1614 -1.2359  0.2759
   48MOL   C18832242   7.755   1.742   2.276  1.2340 -1.1055 -0.1391
   48MOL   C18932243   7.869   1.710   2.345 -0.3478 -0.3977 -0.2815
   48MOL   C19032244   7.862   1.644   2.470  0.0950 -0.4391  0.1693
   48MOL   C19132245   7.736   1.612   2.519 -0.0152  0.1756 -0.1094
   48MOL   C19232246   7.507   1.885   2.574 -0.2783  0.3499 -0.8450
   48MOL   C19332247   7.440   2.001   2.627 -0.5218  0.0079 -0.3375
   48MOL   H19432248   7.029   2.289   2.719 -0.2659 -1.4093 -1.2177
   48MOL   H19532249   6.840   2.273   2.879  2.1101  2.4586  1.0742
   48MOL   H19632250   7.020   1.934   3.065 -0.8921  1.6882  1.4483
   48MOL   H19732251   7.193   1.922   2.896  0.6419  0.4656  0.8049
   48MOL   H19832252   7.127   1.872   2.616  0.4923  2.5642  1.5396
   48MOL   H19932253   7.242   1.676   2.547 -0.7118  0.4231 -1.2942
   48MOL   H20032254   7.540   1.760   2.281  1.4757  0.7587 -0.8069
   48MOL   H20132255   7.770   1.792   2.182 -1.7524 -0.6216 -0.4144
   48MOL   H20232256   7.945   1.632   2.538 -0.6307  1.0582  1.3657
   48MOL   H20332257   7.711   1.566   2.613 -3.1254 -0.2783 -1.0858
   48MOL   H20432258   7.614   1.890   2.568 -0.2473 -0.5496 -1.2521
   48MOL   H20532259   7.494   2.092   2.648  0.8488 -0.7644 -0.4174
   48MOL   C20632260   8.204   1.520   2.150  0.5769  0.0201  0.0360
   48MOL   C20732261   8.143   1.600   2.242  0.4014 -0.3749  0.2618
   48MOL   C20832262   8.039   1.684   2.202 -0.5886 -0.0184 -0.0510
   48MOL   O20932263   7.986   1.765   2.299 -0.0808  0.4242  0.0682
   48MOL   C21032264   7.997   1.691   2.062  0.1861  0.4629 -0.3915
   48MOL   C21132265   8.071   1.613   1.975  0.0533 -0.1896 -0.2142
   48MOL   C21232266   8.172   1.525   2.015  0.0748  0.4545 -0.6168
   48MOL   C21332267   8.245   1.440   1.919 -0.3789 -0.4322  0.7854
   48MOL   O21432268   8.258   1.321   1.934  0.5464  0.0303 -0.5309
   48MOL   C21532269   0.003   1.493   1.808 -0.0934  0.5740  0.1634
   48MOL   C21632270   0.096   1.592   1.833 -0.5519  0.5026 -0.1103
   48MOL   C21732271   0.166   1.649   1.728 -0.1323  0.3027 -0.8396
   48MOL   C21832272   0.142   1.606   1.596 -0.0959 -0.3967 -0.2086
   48MOL   O21932273   0.206   1.676   1.499  0.0911  0.3149  0.2416
   48MOL   C22032274   0.136   1.712   1.387 -0.4683 -0.8398  0.0749
   48MOL   C22132275   0.171   1.647   1.271 -0.4043  0.0440  0.0830
   48MOL   C22232276   0.101   1.677   1.154 -1.1714  0.5054 -0.6065
   48MOL   C22332277   0.005   1.775   1.140 -0.6661 -0.1818 -0.0127
   48MOL   C22432278   8.298   1.855   1.259  0.3639  0.6816 -0.2304
   48MOL   C22532279   0.055   1.821   1.379  1.1158 -0.7884  0.8600
   48MOL   C22632280   0.052   1.504   1.567 -0.8173 -0.0822  0.8906
   48MOL   C22732281   8.296   1.444   1.675  0.6416  0.2107  0.2801
   48MOL   H22832282   8.285   1.455   2.180  0.6194 -0.0972 -0.3343
   48MOL   H22932283   8.176   1.594   2.345  1.6923  0.0581 -0.1146
   48MOL   H23032284   7.925   1.767   2.035 -0.7730 -0.7248 -1.2535
   48MOL   H23132285   8.047   1.615   1.869 -3.2854 -1.6370  0.4697
   48MOL   H23232286   0.122   1.619   1.934 -2.1813 -1.0379  0.7545
   48MOL   H23332287   0.238   1.726   1.751  0.4149 -0.9943  1.9593
   48MOL   H23432288   0.240   1.564   1.272 -0.2042  0.2024 -0.3400
   48MOL   H23532289   0.132   1.619   1.068  1.7762  3.3002 -1.5054
   48MOL   H23632290   8.224   1.933   1.254  0.5038  0.8370  0.0803
   48MOL   H23732291   0.038   1.880   1.468  1.1267 -0.7892  0.8625
   48MOL   H23832292   0.026   1.478   1.466 -0.3474  2.2791  0.1180
   48MOL   H23932293   8.221   1.368   1.658  2.2955 -1.1481 -1.1439
   48MOL   C24032294   8.189   1.514   0.822 -0.2679 -0.3528 -0.3449
   48MOL   C24132295   8.175   1.613   0.922  0.2434 -0.2666 -0.3348
   48MOL   C24232296   8.258   1.729   0.918 -0.1329 -0.1738 -0.8678
   48MOL   O24332297   8.267   1.815   1.022  0.2369 -0.0877  0.1701
   48MOL   C24432298   0.034   1.743   0.812  0.3756 -0.7808 -0.1015
   48MOL   C24532299   0.043   1.643   0.712  0.1115 -0.0483  0.2854
   48MOL   C24632300   8.280   1.524   0.717 -0.0564  0.3652  0.1804
   48MOL   C24732301   8.297   1.408   0.628 -0.2703 -0.2914  0.3538
   48MOL   O24832302   8.207   1.366   0.555 -1.1129  0.0647 -0.0979
   48MOL   C24932303   0.113   1.335   0.644 -0.5823 -0.4361 -0.4400
   48MOL   C25032304   0.214   1.384   0.735 -0.2754  0.0335  0.8526
   48MOL   C25132305   0.332   1.311   0.754  0.1232  0.1772  0.3772
   48MOL   C25232306   0.356   1.185   0.690 -0.0701  0.0935 -1.0958
   48MOL   O25332307   0.468   1.106   0.707 -0.2728 -0.2114 -0.1417
   48MOL   C25432308   0.469   1.042   0.828  0.2860 -0.0346  0.7479
   48MOL   C25532309   0.373   0.950   0.869 -0.2226  0.0017 -0.1343
   48MOL   C25632310   0.389   0.877   0.996  0.4186 -0.0020  0.2671
   48MOL   C25732311   0.498   0.907   1.076 -0.1536 -0.3605  0.3994
   48MOL   C25832312   0.594   1.001   1.029  0.1014 -0.3300 -0.9073
   48MOL   C25932313   0.572   1.080   0.918 -0.2656  0.2021 -0.3279
   48MOL   C26032314   0.250   1.136   0.609 -0.0804  0.7885 -0.5632
   48MOL   C26132315   0.132   1.210   0.586  0.8644 -0.7140 -0.1071
   48MOL   H26232316   8.139   1.419   0.836  1.7335 -1.2661  0.7642
   48MOL   H26332317   8.100   1.603   0.999 -0.5113  1.4846 -0.8192
   48MOL   H26432318   0.096   1.831   0.804 -0.8741  0.4326  2.6864
   48MOL   H26532319   0.117   1.652   0.634 -0.9920 -0.7591 -0.8707
   48MOL   H26632320   0.203   1.471   0.797  0.2534 -0.5795  1.8182
   48MOL   H26732321   0.412   1.353   0.812 -0.8737 -0.6601  2.4042
   48MOL   H26832322   0.294   0.922   0.800  0.2192 -1.4595 -0.0542
   48MOL   H26932323   0.314   0.804   1.024  2.2145 -0.4967  4.1138
   48MOL   H27032324   0.682   1.015   1.089  0.9762  3.5792 -2.9282
   48MOL   H27132325   0.649   1.148   0.885 -0.5629  0.1629 -1.1159
   48MOL   H27232326   0.271   1.042   0.560 -0.2412  0.2463  0.4095
   48MOL   H27332327   0.054   1.176   0.520  0.5292  0.0005 -0.0826
   48MOL   C27432328   0.716   0.536   1.165  0.0218 -0.9641  0.0557
   48MOL   C27532329   0.611   0.628   1.160  0.3289 -0.1919  0.8367
   48MOL   C27632330   0.630   0.764   1.194  0.1010 -0.5219  0.4401
   48MOL   O27732331   0.523   0.849   1.195  0.0679  0.6611 -0.6492
   48MOL   C27832332   0.750   0.804   1.250 -0.5927 -1.2583  0.4136
   48MOL   C27932333   0.853   0.712   1.265  0.3583 -0.0847  0.2087
   48MOL   C28032334   0.843   0.585   1.204  0.3930 -0.4590  0.1427
   48MOL   C28132335   0.954   0.499   1.201  0.2986  0.0001  0.6325
   48MOL   O28232336   0.942   0.375   1.186 -0.1093  0.0690 -0.2524
   48MOL   C28332337   1.094   0.555   1.199  0.1728  0.4652  0.1917
   48MOL   C28432338   1.128   0.675   1.130  0.3294  0.7714 -0.3243
   48MOL   C28532339   1.263   0.714   1.123  0.4129 -0.0419 -0.8204
   48MOL   C28632340   1.364   0.649   1.186 -0.5302  0.0683  0.1214
   48MOL   O28732341   1.497   0.696   1.186 -0.1178  0.2155 -0.3496
   48MOL   C28832342   1.518   0.829   1.181 -0.1148 -0.1358 -0.1085
   48MOL   C28932343   1.545   0.895   1.052  0.1117  0.5548  0.4440
   48MOL   C29032344   1.546   1.036   1.054  0.4855  0.2157  0.3598
   48MOL   C29132345   1.532   1.111   1.170  0.2228  0.7709 -1.0393
   48MOL   C29232346   1.517   1.048   1.294  0.1118  0.0004  0.5806
   48MOL   C29332347   1.514   0.909   1.303  0.3972 -0.4964  0.4569
   48MOL   C29432348   1.330   0.536   1.263 -0.9556 -0.2101 -0.4778
   48MOL   C29532349   1.198   0.483   1.262 -0.6006  0.0179  0.1562
   48MOL   H29632350   0.702   0.435   1.128 -1.3936 -0.4080 -0.9649
   48MOL   H29732351   0.513   0.597   1.124  0.6313  0.1225 -0.2734
   48MOL   H29832352   0.762   0.902   1.293 -0.2391 -1.2150  0.2261
   48MOL   H29932353   0.946   0.738   1.313 -1.9463  3.1616  3.1172
   48MOL   H30032354   1.053   0.725   1.070 -0.6326 -1.0267 -0.6600
   48MOL   H30132355   1.287   0.806   1.071 -0.6119  0.2949 -0.7310
   48MOL   H30232356   1.525   0.851   0.955 -0.6136 -1.2678  1.3986
   48MOL   H30332357   1.572   1.080   0.960  2.4749 -0.7553  0.4427
   48MOL   H30432358   1.508   1.103   1.387  1.3361 -1.5827  1.6702
   48MOL   H30532359   1.519   0.857   1.397 -0.3956  2.4204  2.1929
   48MOL   H30632360   1.410   0.489   1.318 -2.2667 -1.5498  0.3297
   48MOL   H30732361   1.182   0.389   1.312  0.5529 -0.1388  0.2597
   48MOL   C30832362   1.671   1.490   1.398  0.0254 -0.6010  0.4339
   48MOL   C30932363   1.580   1.406   1.333  0.3019  0.2885 -0.1667
   48MOL   C31032364   1.623   1.319   1.231 -0.5515 -0.4236  0.5727
   48MOL   O31132365   1.532   1.245   1.157 -0.1780  0.0798  0.2120
   48MOL   C31232366   1.758   1.319   1.192 -1.1491  0.1680  1.0256
   48MOL   C31332367   1.852   1.409   1.248 -0.1800  0.1488 -0.4216
   48MOL   C31432368   1.810   1.498   1.352  0.1400 -0.0917 -0.2076
   48MOL   C31532369   1.904   1.599   1.414  0.8534 -0.1226 -0.3855
   48MOL   O31632370   1.876   1.712   1.448 -0.2396  0.7789 -0.1453
   48MOL   C31732371   2.054   1.564   1.438  0.0050  0.0943 -0.3911
   48MOL   C31832372   2.154   1.666   1.453  0.0207 -0.9182  0.9499
   48MOL   C31932373   2.287   1.629   1.467 -0.1464  0.5105 -0.4971
   48MOL   C32032374   2.331   1.501   1.467 -0.4662  0.8277 -0.4777
   48MOL   O32132375   2.460   1.463   1.490  0.3180  0.5618  0.8637
   48MOL   C32232376   2.547   1.480   1.389 -0.8697  0.0204 -0.3543
   48MOL   C32332377   2.512   1.477   1.249  0.1248  0.2332 -0.4895
   48MOL   C32432378   2.606   1.501   1.149  0.0573  0.1498 -0.3232
   48MOL   C32532379   2.734   1.540   1.180  0.3659  0.2254  0.4705
   48MOL   C32632380   2.774   1.548   1.314  0.5923  1.0282  0.4869
   48MOL   C32732381   2.682   1.512   1.420  0.0145  0.4884 -0.4435
   48MOL   C32832382   2.239   1.397   1.450  0.1173 -0.0996  0.6315
   48MOL   C32932383   2.103   1.431   1.443 -0.3116  0.2154  0.0168
   48MOL   H33032384   1.643   1.559   1.477 -0.7819 -0.7573  0.2857
   48MOL   H33132385   1.476   1.401   1.362  0.1568  0.9819 -0.5435
   48MOL   H33232386   1.796   1.261   1.109 -2.0165  1.8302 -0.5595
   48MOL   H33332387   1.950   1.410   1.202  0.6701  0.6602  1.3623
   48MOL   H33432388   2.132   1.770   1.434 -1.7918 -1.0287  2.2500
   48MOL   H33532389   2.356   1.712   1.477  2.4536 -1.3040 -2.7800
   48MOL   H33632390   2.416   1.447   1.209 -1.6028  3.8593  0.7036
   48MOL   H33732391   2.578   1.493   1.045 -3.4290  0.9465  0.4751
   48MOL   H33832392   2.872   1.585   1.340  0.1952  1.4224  1.4682
   48MOL   H33932393   2.714   1.515   1.523 -2.2086 -2.0850  0.3717
   48MOL   H34032394   2.273   1.295   1.444  0.6091  0.1320 -0.7193
   48MOL   H34132395   2.036   1.348   1.430  1.6721 -1.4084 -0.0736
   48MOL   C34232396   2.816   1.908   0.905  0.2668 -0.1227  0.0622
   48MOL   C34332397   2.782   1.766   0.936 -0.5801  0.2524  1.0875
   48MOL   C34432398   2.837   1.710   1.052 -0.2676  0.8981 -0.5975
   48MOL   O34532399   2.822   1.574   1.082 -0.2085 -0.2515  0.2089
   48MOL   C34632400   2.915   1.793   1.137  0.7416 -0.2166 -0.1316
   48MOL   C34732401   2.953   1.922   1.104  0.6527  0.0532  0.1366
   48MOL   C34832402   2.910   1.977   0.982 -0.1497 -0.2709  0.1210
   48MOL   C34932403   2.960   2.105   0.929  0.3151  0.9237 -0.2975
   48MOL   O35032404   3.023   2.109   0.822 -0.3765 -0.3951  0.8857
   48MOL   C35132405   2.930   2.227   1.020  0.2343 -0.6621 -0.9498
   48MOL   C35232406   3.001   2.348   0.990  0.2036  0.4229  0.2233
   48MOL   C35332407   2.992   2.458   1.079 -0.2579 -0.5876 -1.2447
   48MOL   C35432408   2.907   2.456   1.193  0.0964 -0.5353 -0.3509
   48MOL   O35532409   2.888   2.572   1.269  0.4766  0.2604  0.5114
   48MOL   C35632410   2.904   2.572   1.404 -0.0482 -0.2928  0.4138
   48MOL   C35732411   2.801   2.594   1.487  0.1428  0.1585 -0.3551
   48MOL   C35832412   2.816   2.570   1.626  0.7210 -0.0877 -0.2740
   48MOL   C35932413   2.938   2.534   1.684 -0.1930 -0.5543  0.2389
   48MOL   C36032414   3.049   2.526   1.595  0.3810  1.3481  0.2387
   48MOL   C36132415   3.036   2.535   1.458 -0.1808  0.1010  0.5163
   48MOL   C36232416   2.840   2.338   1.225  0.0222 -0.3438  0.0633
   48MOL   C36332417   2.852   2.228   1.141 -0.1755 -0.6254 -0.4011
   48MOL   H36432418   2.778   1.948   0.813 -0.6871 -0.4311  0.3159
   48MOL   H36532419   2.711   1.717   0.871 -0.4460  0.4895  0.7600
   48MOL   H36632420   2.952   1.754   1.230  1.0910 -1.8037 -0.9239
   48MOL   H36732421   3.003   1.984   1.177  0.6891 -1.5196  1.4763
   48MOL   H36832422   3.051   2.352   0.894  1.3467  0.1724  0.7973
   48MOL   H36932423   3.052   2.541   1.044 -0.1930  0.3543  1.0294
   48MOL   H37032424   2.705   2.617   1.442  0.4138  2.6285  0.2237
   48MOL   H37132425   2.732   2.577   1.693 -1.0575 -0.3012 -2.4243
   48MOL   H37232426   3.150   2.510   1.631  1.1655  0.3860 -2.2548
   48MOL   H37332427   3.115   2.504   1.391 -0.7716  0.2687 -0.2663
   48MOL   H37432428   2.779   2.326   1.313  1.4791 -0.5071  1.0474
   48MOL   H37532429   2.806   2.136   1.171 -0.5611 -0.6318 -0.9967
   48MOL   C37632430   3.218   2.332   2.002  0.6476  0.7108  0.1899
   48MOL   C37732431   3.139   2.432   1.942  0.2676 -0.0062  0.2829
   48MOL   C37832432   3.031   2.401   1.856  0.9231 -0.2994  0.1831
   48MOL   O37932433   2.950   2.505   1.819 -0.1706  0.0623  0.0982
   48MOL   C38032434   2.991   2.263   1.833  0.1805 -0.4620 -0.1095
   48MOL   C38132435   3.072   2.159   1.887 -0.6536  0.6546  0.1624
   48MOL   C38232436   3.175   2.196   1.978 -0.2201  0.2825 -0.1590
   48MOL   C38332437   3.253   2.083   2.044 -0.4863  0.2742  0.4636
   48MOL   O38432438   3.377   2.094   2.038  0.5404 -0.4059 -0.2491
   48MOL   C38532439   3.183   1.968   2.100  0.5407 -0.8687  0.1553
   48MOL   C38632440   3.257   1.852   2.126  0.3201  0.0752 -0.6375
   48MOL   C38732441   3.190   1.738   2.174  0.4568  0.2317 -0.0241
   48MOL   C38832442   3.057   1.742   2.208 -0.0375 -0.2011  0.3755
   48MOL   O38932443   2.997   1.631   2.258 -0.2204 -0.6892 -0.3235
   48MOL   C39032444   2.882   1.578   2.203  0.5639  0.1721  0.1926
   48MOL   C39132445   2.842   1.603   2.072  0.0056  0.0835 -0.4727
   48MOL   C39232446   2.727   1.536   2.016  0.3843 -0.4080  0.9983
   48MOL   C39332447   2.646   1.449   2.094 -0.2960 -0.5143 -0.1507
   48MOL   C39432448   2.687   1.421   2.225 -0.0336 -0.5153  0.1855
   48MOL   C39532449   2.805   1.482   2.278 -0.4893  0.0800 -0.9123
   48MOL   C39632450   2.985   1.861   2.195  0.5760 -0.2148  0.2044
   48MOL   C39732451   3.043   1.972   2.137  0.4691  0.8476  0.1304
   48MOL   H39832452   3.305   2.353   2.064  0.1018 -0.2976  1.3196
   48MOL   H39932453   3.160   2.535   1.967 -0.4949 -0.3860  2.6277
   48MOL   H40032454   2.907   2.239   1.770 -1.8388  0.8942  2.0069
   48MOL   H40132455   3.048   2.056   1.869  2.8787 -0.6819  2.4461
   48MOL   H40232456   3.360   1.843   2.094  0.2271  0.1894 -0.9628
   48MOL   H40332457   3.241   1.643   2.165  0.4086  0.2678 -0.6407
   48MOL   H40432458   2.891   1.676   2.008  0.6228  1.8442  1.9148
   48MOL   H40532459   2.705   1.555   1.912 -0.0967  1.4136  1.4180
   48MOL   H40632460   2.629   1.352   2.283 -0.0469 -0.2967  0.4335
   48MOL   H40732461   2.830   1.472   2.382 -0.0160  1.3504 -0.8861
   48MOL   H40832462   2.879   1.858   2.217  0.4946 -0.4883 -0.2085
   48MOL   H40932463   2.975   2.054   2.116  1.5550  2.0280  1.0853
   48MOL   C41032464   2.268   1.549   1.857 -0.3427  0.2787 -0.0516
   48MOL   C41132465   2.378   1.465   1.877  0.6206  0.1257  0.1016
   48MOL   C41232466   2.425   1.447   2.014 -0.7539 -0.0701 -0.1094
   48MOL   O41332467   2.542   1.381   2.038  0.0007 -0.0574 -0.0885
   48MOL   C41432468   2.344   1.484   2.122  0.1822  0.3013 -0.2044
   48MOL   C41532469   2.223   1.553   2.099 -0.2250 -0.6045 -0.0170
   48MOL   C41632470   2.190   1.594   1.969  0.1100 -1.0431 -0.4216
   48MOL   C41732471   2.075   1.677   1.940  0.0865 -0.6737  0.7758
   48MOL   O41832472   1.964   1.661   1.998  0.4930 -0.1231  0.8623
   48MOL   C41932473   2.083   1.792   1.843  0.5283 -0.1985  0.3840
   48MOL   C42032474   2.207   1.852   1.803  0.3476 -0.0380 -0.4468
   48MOL   C42132475   2.208   1.954   1.703 -0.6718  0.2473 -0.2491
   48MOL   C42232476   2.094   2.004   1.641 -0.1473  0.9866 -0.3015
   48MOL   O42332477   2.090   2.105   1.550  0.0269  0.3648 -0.0986
   48MOL   C42432478   1.992   2.113   1.458 -0.6213 -0.0299  0.4613
   48MOL   C42532479   2.009   2.046   1.336 -0.5045  0.7909 -0.3152
   48MOL   C42632480   1.915   2.049   1.234  0.0523 -0.2210  0.1709
   48MOL   C42732481   1.807   2.136   1.250  0.4597  0.2941 -0.2486
   48MOL   C42832482   1.781   2.200   1.376  0.1401 -0.0173 -0.0898
   48MOL   C42932483   1.876   2.191   1.484  0.4525  0.2738 -0.3001
   48MOL   C43032484   1.969   1.936   1.674 -0.3623 -0.0661  0.4020
   48MOL   C43132485   1.960   1.838   1.777  0.5758  0.0772  0.4765
   48MOL   H43232486   2.243   1.569   1.754 -2.5676 -1.1103  0.1920
   48MOL   H43332487   2.435   1.435   1.790 -2.5763  0.0576 -2.0350
   48MOL   H43432488   2.385   1.466   2.220 -1.6884  1.9236  0.9198
   48MOL   H43532489   2.151   1.575   2.177 -0.0548  2.0798 -0.5708
   48MOL   H43632490   2.303   1.824   1.844 -0.2882 -3.0123 -0.8785
   48MOL   H43732491   2.295   2.011   1.674 -1.0987  1.9545  1.6987
   48MOL   H43832492   2.095   1.982   1.324 -0.8873  0.4458 -1.2533
   48MOL   H43932493   1.927   1.995   1.141 -2.7543  0.3070 -0.5788
   48MOL   H44032494   1.689   2.257   1.382 -1.1270 -1.9026 -1.1456
   48MOL   H44132495   1.864   2.233   1.582 -0.2251 -1.4586  0.3834
   48MOL   H44232496   1.873   1.954   1.627 -0.4225 -2.5784 -0.5312
   48MOL   H44332497   1.874   1.776   1.800 -0.8489  1.1027 -1.8860
   48MOL   C44432498   1.857   2.299   0.841 -0.0382 -0.2012  1.3114
   48MOL   C44532499   1.837   2.199   0.943 -0.2098 -0.3840  0.3004
   48MOL   C44632500   1.743   2.228   1.039  0.0744 -0.4084 -0.5777
   48MOL   O44732501   1.714   2.144   1.149  0.4288 -0.3453 -0.2847
   48MOL   C44832502   1.657   2.340   1.027 -0.2015  0.2591  1.0794
   48MOL   C44932503   1.671   2.430   0.920 -0.4144 -0.1491 -0.7866
   48MOL   C45032504   1.773   2.412   0.831 -0.1871  0.3557  0.5060
   48MOL   C45132505   1.794   2.522   0.730  0.9052 -0.7585 -0.2055
   48MOL   O45232506   1.738   2.628   0.738  0.1014  0.0087 -0.6226
   48MOL   C45332507   1.898   2.502   0.623  0.1461 -0.2468 -0.0488
   48MOL   C45432508   2.013   2.587   0.621 -0.0028  0.4575  0.3242
   48MOL   C45532509   2.112   2.565   0.521  0.2157 -0.7946  0.5438
   48MOL   C45632510   2.089   2.470   0.421  0.4603 -0.2546  0.3848
   48MOL   O45732511   2.184   2.455   0.318  0.0710  0.2525 -0.5287
   48MOL   C45832512   2.299   2.377   0.334  0.3372 -0.3876 -0.2763
   48MOL   C45932513   2.391   2.377   0.231  0.5192  0.0954 -0.5113
   48MOL   C46032514   2.508   2.304   0.246  0.3683  0.4349 -0.7424
   48MOL   C46132515   2.536   2.230   0.365  0.0560 -0.1001 -0.5196
   48MOL   C46232516   2.442   2.227   0.465 -0.7835  0.2238 -0.3023
   48MOL   C46332517   2.324   2.300   0.450  0.4433 -0.1068  0.1474
   48MOL   C46432518   1.975   2.382   0.425 -0.7579 -0.2543 -0.0428
   48MOL   C46532519   1.881   2.402   0.529 -0.4410 -0.8743  0.7403
   48MOL   H46632520   1.930   2.282   0.763 -1.2561  0.4969  0.0031
   48MOL   H46732521   1.899   2.110   0.939  0.2877 -0.0147 -0.3138
   48MOL   H46832522   1.574   2.348   1.095 -1.2622 -2.3219  0.1493
   48MOL   H46932523   1.596   2.506   0.906  0.8836  0.9187 -2.1686
   48MOL   H47032524   2.032   2.658   0.700 -2.8401 -0.3073  1.7884
   48MOL   H47132525   2.205   2.617   0.508 -0.3645 -0.3590 -2.1495
   48MOL   H47232526   2.371   2.432   0.141  0.0381  0.6197 -0.0874
   48MOL   H47332527   2.585   2.320   0.173 -1.9665  0.5622 -3.2633
   48MOL   H47432528   2.463   2.171   0.555  1.5738  2.0986  0.3674
   48MOL   H47532529   2.244   2.293   0.521 -1.6747  0.7249 -2.0797
   48MOL   H47632530   1.960   2.315   0.342 -2.3155 -0.1613  0.1631
   48MOL   H47732531   1.800   2.331   0.538  0.7641 -2.4198 -0.3905
   48MOL   C47832532   2.921   2.334   0.565 -0.1206 -0.3166 -0.4160
   48MOL   C47932533   2.811   2.255   0.538 -0.0390 -0.6306  0.3424
   48MOL   C48032534   2.766   2.236   0.402  0.1415 -0.1762 -0.1378
   48MOL   O48132535   2.655   2.158   0.373  0.5667 -0.4138  0.3819
   48MOL   C48232536   2.829   2.310   0.300 -0.1578 -0.7605  0.4081
   48MOL   C48332537   2.941   2.395   0.334  0.1259  0.0473  0.3507
   48MOL   C48432538   2.991   2.396   0.462 -0.3952 -1.0054  0.1923
   48MOL   C48532539   3.123   2.467   0.492 -0.2343 -0.8145 -0.6632
   48MOL   O48632540   3.155   2.564   0.419 -0.7361  0.0196  0.3516
   48MOL   C48732541   3.206   2.429   0.615 -0.5904 -0.6317 -0.4628
   48MOL   C48832542   3.267   2.523   0.697  0.2046  0.0951 -0.4678
   48MOL   C48932543   3.347   2.480   0.806 -0.2502  0.1739 -0.4306
   48MOL   C49032544   3.352   2.344   0.841 -0.3521 -0.5463  0.3382
   48MOL   O49132545   3.421   2.305   0.951  0.4245 -0.2878 -0.1625
   48MOL   C49232546   3.351   2.272   1.068  0.0278  0.1772 -0.0346
   48MOL   C49332547   3.348   2.361   1.178  0.0305 -0.1150  0.3292
   48MOL   C49432548   3.320   2.313   1.308  0.2845 -0.7473 -0.2145
   48MOL   C49532549   3.262   2.183   1.317  0.1437  0.1263 -0.7087
   48MOL   C49632550   3.247   2.100   1.202 -0.3022 -0.2450  1.0484
   48MOL   C49732551   3.302   2.145   1.077 -0.2049 -0.1418 -0.5785
   48MOL   C49832552   3.300   2.248   0.752 -0.5764 -0.1561 -1.1301
   48MOL   C49932553   3.223   2.291   0.643  0.2964  0.5519 -0.5053
   48MOL   H50032554   2.937   2.349   0.671  1.4519  0.1805 -0.7064
   48MOL   H50132555   2.752   2.198   0.607 -1.7038 -0.3692 -0.8277
   48MOL   H50232556   2.791   2.308   0.199  2.1231 -3.8638 -0.4805
   48MOL   H50332557   3.006   2.431   0.255  0.9011 -0.3297  0.8126
   48MOL   H50432558   3.243   2.626   0.674  0.2204  0.0383 -0.7437
   48MOL   H50532559   3.394   2.551   0.872 -0.2856  0.7673 -1.0301
   48MOL   H50632560   3.388   2.460   1.163  0.1022 -0.6014 -3.0925
   48MOL   H50732561   3.335   2.380   1.391  0.4163 -1.6373  0.4866
   48MOL   H50832562   3.220   1.995   1.213 -0.4422 -0.6244 -2.4830
   48MOL   H50932563   3.311   2.081   0.991  0.4071  1.3195 -1.6140
   48MOL   H51032564   3.322   2.143   0.765  1.7337  0.3993 -0.2130
   48MOL   H51132565   3.177   2.213   0.583  0.9614 -0.5792  0.4413
   48MOL   C51232566   2.990   1.898   1.571 -0.0304 -0.5149  0.2282
   48MOL   C51332567   3.122   1.945   1.527  0.4124  0.6958  0.8636
   48MOL   C51432568   3.132   2.077   1.483  0.3361 -0.1560  0.0401
   48MOL   O51532569   3.250   2.122   1.436 -0.2951 -0.5108 -0.4157
   48MOL   C51632570   3.013   2.160   1.482 -0.1355 -0.8524 -0.0459
   48MOL   C51732571   2.883   2.114   1.510 -0.0026 -0.2713 -0.1867
   48MOL   C51832572   2.872   1.982   1.550  0.0816  0.3829 -0.4186
   48MOL   C51932573   2.742   1.916   1.590 -0.0599 -0.2212  0.0726
   48MOL   O52032574   2.721   1.851   1.690  0.1886  0.6029 -0.1913
   48MOL   C52132575   2.634   1.923   1.485  0.8928  0.3482  0.1471
   48MOL   C52232576   2.670   1.902   1.357 -0.4012 -0.0954 -0.2081
   48MOL   C52332577   2.571   1.918   1.253 -0.5435 -0.0679 -0.0682
   48MOL   C52432578   2.431   1.933   1.283  0.3149  0.4944  0.6737
   48MOL   O52532579   2.327   1.939   1.190 -0.6668  0.0096  0.3266
   48MOL   C52632580   2.333   1.864   1.077 -0.1776 -0.1433  0.1553
   48MOL   C52732581   2.378   1.925   0.955 -0.0807 -0.1621 -0.1359
   48MOL   C52832582   2.401   1.851   0.838  0.1882  0.0483  0.1391
   48MOL   C52932583   2.368   1.712   0.838 -0.2751  0.8044  0.0519
   48MOL   C53032584   2.323   1.652   0.959  0.1375 -0.3667 -0.2014
   48MOL   C53132585   2.306   1.726   1.074  0.0091 -0.4244 -0.3886
   48MOL   C53232586   2.396   1.956   1.419  0.6055  0.3860 -0.9076
   48MOL   C53332587   2.500   1.949   1.517 -0.0903 -0.5237 -0.0919
   48MOL   H53432588   2.986   1.802   1.619  0.4262 -0.6120  0.0752
   48MOL   H53532589   3.202   1.873   1.519  0.4900  0.8889 -0.2271
   48MOL   H53632590   3.021   2.266   1.460  0.9911 -1.0773 -0.7927
   48MOL   H53732591   2.800   2.181   1.496  0.9944  1.3950  1.6909
   48MOL   H53832592   2.773   1.881   1.333 -0.1923  0.0056  0.6127
   48MOL   H53932593   2.586   1.907   1.146  0.4300  2.0759 -0.1813
   48MOL   H54032594   2.405   2.030   0.962 -0.3467 -0.2258  2.4172
   48MOL   H54132595   2.444   1.903   0.753 -1.5705 -0.5396 -1.1444
   48MOL   H54232596   2.316   1.544   0.965  0.4983 -0.3046  1.4730
   48MOL   H54332597   2.278   1.680   1.167 -0.0096 -0.1332 -0.2479
   48MOL   H54432598   2.296   1.965   1.457  1.5514 -1.5347  2.2791
   48MOL   H54532599   2.489   1.978   1.621 -0.5255 -0.2234 -0.2199
   48MOL   C54632600   2.241   1.448   0.466  0.4827  0.2877  0.2698
   48MOL   C54732601   2.326   1.478   0.573 -0.0213 -0.8089 -0.7503
   48MOL   C54832602   2.306   1.602   0.632  0.9198 -0.0015 -1.1877
   48MOL   O54932603   2.399   1.632   0.729 -0.3485  0.2336  0.3830
   48MOL   C55032604   2.207   1.692   0.583  0.4849  0.1985 -0.3051
   48MOL   C55132605   2.118   1.657   0.487 -0.6730  0.3041 -0.2532
   48MOL   C55232606   2.126   1.532   0.429 -0.2467 -0.6928  0.2174
   48MOL   C55332607   2.026   1.471   0.331  0.0664 -0.7996  0.2641
   48MOL   O55432608   2.052   1.374   0.266  0.2892 -0.1126  0.0554
   48MOL   C55532609   1.891   1.527   0.306  0.0211 -0.1382  0.4367
   48MOL   C55632610   1.817   1.591   0.409 -0.0516  0.1651 -0.3189
   48MOL   C55732611   1.683   1.636   0.397 -0.1441  0.7717 -0.5047
   48MOL   C55832612   1.614   1.587   0.288  0.9348 -0.9966  0.5067
   48MOL   O55932613   1.484   1.626   0.277 -0.3133  0.3763 -1.0371
   48MOL   C56032614   1.447   1.699   0.170  0.0375  0.0593  0.5001
   48MOL   C56132615   1.318   1.686   0.125 -0.0862 -0.7620  0.5784
   48MOL   C56232616   1.271   1.759   0.014  0.2133 -0.1684  0.8928
   48MOL   C56332617   1.364   1.832   8.252 -0.6939 -0.3137  0.7310
   48MOL   C56432618   1.494   1.853   8.299  0.5658  0.8721 -0.0280
   48MOL   C56532619   1.535   1.789   0.103 -0.3403  0.1799  0.3558
   48MOL   C56632620   1.677   1.514   0.187 -0.2067 -0.1927 -0.2802
   48MOL   C56732621   1.818   1.496   0.192 -0.7362 -0.4824  0.0188
   48MOL   H56832622   2.258   1.355   0.413  0.7077 -0.6764  2.0031
   48MOL   H56932623   2.396   1.404   0.608  1.8872  0.5230 -1.6473
   48MOL   H57032624   2.220   1.792   0.622  0.3462  0.5536 -1.1704
   48MOL   H57132625   2.043   1.728   0.457 -0.4510 -0.0275 -1.6747
   48MOL   H57232626   1.866   1.601   0.505  1.6982 -0.8040 -1.0886
   48MOL   H57332627   1.631   1.691   0.474  0.7203  1.5453 -0.4605
   48MOL   H57432628   1.255   1.613   0.173 -1.0680 -2.0491 -2.5427
   48MOL   H57532629   1.168   1.746   8.298  0.8031 -0.5512 -1.1369
   48MOL   H57632630   1.554   1.931   8.255  0.1636  2.0494  1.4969
   48MOL   H57732631   1.635   1.805   0.142 -1.4301 -1.1028  3.8602
   48MOL   H57832632   1.624   1.468   0.104  0.0924 -2.3518  0.6856
   48MOL   H57932633   1.875   1.429   0.129 -0.0346  0.1976 -0.0697
   48MOL   C58032634   1.185   1.772   7.818  0.3762 -0.3718  0.0414
   48MOL   C58132635   1.213   1.851   7.932  0.6728 -0.0790  0.4422
   48MOL   C58232636   1.307   1.802   8.028 -0.1187 -0.1051  0.0485
   48MOL   O58332637   1.342   1.888   8.129 -0.1480 -0.3058  0.0756
   48MOL   C58432638   1.356   1.669   8.019 -0.6460  0.4718  0.0962
   48MOL   C58532639   1.304   1.580   7.922 -0.0306 -0.4356 -0.2493
   48MOL   C58632640   1.219   1.636   7.819 -0.2808  0.3812  0.2388
   48MOL   C58732641   1.165   1.547   7.712  0.5240  0.1533  0.5145
   48MOL   O58832642   1.045   1.547   7.684 -0.3642  0.5711  0.1378
   48MOL   C58932643   1.259   1.443   7.658 -0.4453 -0.3579  0.2155
   48MOL   C59032644   1.211   1.316   7.614  0.0440 -0.0849 -0.1489
   48MOL   C59132645   1.301   1.212   7.563  0.2344 -0.2037  0.0582
   48MOL   C59232646   1.437   1.252   7.550  0.3867 -0.0122 -0.4516
   48MOL   O59332647   1.520   1.171   7.484 -0.2244 -0.8811  0.4200
   48MOL   C59432648   1.554   1.053   7.544 -0.1496  0.2816  0.7358
   48MOL   C59532649   1.676   1.048   7.619  0.5286  1.1689  0.2856
   48MOL   C59632650   1.717   0.924   7.681  0.6347  0.3918  0.6594
   48MOL   C59732651   1.635   0.813   7.666 -0.7047  0.5695  0.0571
   48MOL   C59832652   1.517   0.815   7.588 -0.0547  0.8815  0.1120
   48MOL   C59932653   1.473   0.938   7.535  0.0893  0.4623 -0.6922
   48MOL   C60032654   1.488   1.377   7.598  0.0337  0.5557  0.1059
   48MOL   C60132655   1.400   1.471   7.651  0.2484 -0.7675  0.1336
   48MOL   H60232656   1.113   1.809   7.746  0.9226  2.4334  0.8633
   48MOL   H60332657   1.184   1.955   7.936 -1.2424 -0.6006  0.4886
   48MOL   H60432658   1.418   1.628   8.098 -0.5108 -0.1553 -0.3302
   48MOL   H60532659   1.337   1.477   7.920 -0.3463 -0.5568  0.6495
   48MOL   H60632660   1.106   1.302   7.632  0.1060 -0.0036  0.2906
   48MOL   H60732661   1.265   1.115   7.533  1.5953 -0.2110 -1.6118
   48MOL   H60832662   1.741   1.134   7.615 -0.4708  1.9175 -0.2866
   48MOL   H60932663   1.803   0.923   7.747  0.7005  2.8227  0.6827
   48MOL   H61032664   1.458   0.725   7.582 -0.5047  0.9933  2.4141
   48MOL   H61132665   1.379   0.926   7.484 -1.4284  1.6352  1.7087
   48MOL   H61232666   1.593   1.404   7.598 -0.0654  0.9466  0.4217
   48MOL   H61332667   1.444   1.561   7.690  2.2122 -0.2294 -3.1571
   48MOL   C61432668   1.962   0.639   7.952  0.1262 -0.6410  1.0421
   48MOL   C61532669   1.878   0.636   7.842 -0.0449 -0.0371 -0.3897
   48MOL   C61632670   1.747   0.694   7.839 -0.4500  0.6101  0.1807
   48MOL   O61732671   1.668   0.696   7.729 -0.4351 -0.1758  0.0226
   48MOL   C61832672   1.705   0.745   7.965  0.0672  0.1210 -0.1506
   48MOL   C61932673   1.790   0.748   8.077  0.3940 -0.3208  0.5442
   48MOL   C62032674   1.919   0.693   8.075  0.1444  0.4051 -0.3665
   48MOL   C62132675   2.012   0.688   8.191  0.6422  0.3073 -0.6673
   48MOL   O62232676   1.983   0.624   8.292  0.9230  0.1977 -0.0931
   48MOL   C62332677   2.131   0.775   8.192 -0.4912  0.3689  0.0827
   48MOL   C62432678   2.222   0.764   8.294 -0.3713 -0.1719  0.1800
   48MOL   C62532679   2.333   0.849   8.303  0.6975 -0.3070 -0.2661
   48MOL   C62632680   2.357   0.942   8.196 -0.1102 -0.1951  0.0472
   48MOL   O62732681   2.467   1.031   8.207  0.0377  0.3344 -0.2069
   48MOL   C62832682   2.439   1.158   8.249  0.0362  0.5305  0.0885
   48MOL   C62932683   2.450   1.263   8.155  0.4085  0.3699 -0.2739
   48MOL   C63032684   2.440   1.399   8.201  0.4197 -0.3918 -0.4315
   48MOL   C63132685   2.419   1.417   0.027  0.4603  0.1018  0.1356
   48MOL   C63232686   2.400   1.310   0.118 -0.6054  0.5038 -0.0572
   48MOL   C63332687   2.410   1.179   0.073  0.4300 -0.6132 -0.9714
   48MOL   C63432688   2.263   0.961   8.096  0.9079  0.2439  0.0166
   48MOL   C63532689   2.148   0.872   8.088 -0.2638  0.1477  0.5124
   48MOL   H63632690   2.062   0.600   7.947  0.0626 -0.7754  0.8081
   48MOL   H63732691   1.907   0.594   7.747 -0.2681  1.3255 -1.0665
   48MOL   H63832692   1.603   0.778   7.982  0.6046  0.9045  1.6040
   48MOL   H63932693   1.760   0.791   8.171  0.5835  0.7193  0.1331
   48MOL   H64032694   2.209   0.699   0.066  2.9377 -1.1337  0.0187
   48MOL   H64132695   2.405   0.840   0.070  1.3256 -2.7737 -1.0875
   48MOL   H64232696   2.485   1.237   8.056  0.8270  1.4814 -0.4336
   48MOL   H64332697   2.466   1.484   8.140  2.4561  0.6640  1.8166
   48MOL   H64432698   2.379   1.338   0.220  0.3502 -0.8626  0.5244
   48MOL   H64532699   2.392   1.100   0.143  1.4177  0.7356  0.8563
   48MOL   H64632700   2.288   1.024   8.011  0.2141 -1.4669 -1.4874
   48MOL   H64732701   2.073   0.889   8.013  2.0745 -0.4237 -2.0606
   48MOL   C64832702   2.684   1.564   0.328  0.5878  0.2359  0.2119
   48MOL   C64932703   2.616   1.523   0.215 -0.5484  0.3104 -0.8187
   48MOL   C65032704   2.501   1.589   0.178  0.5984 -0.0339  0.3373
   48MOL   O65132705   2.415   1.546   0.071  0.1024 -0.1951 -0.7773
   48MOL   C65232706   2.463   1.705   0.251 -0.5145 -0.9623 -0.5264
   48MOL   C65332707   2.528   1.741   0.370 -0.6891  0.5576  1.1260
   48MOL   C65432708   2.639   1.670   0.416 -0.5661 -0.4373 -0.3010
   48MOL   C65532709   2.710   1.706   0.546  0.0037  1.0631 -0.2862
   48MOL   O65632710   2.707   1.820   0.586  0.5072 -0.1049 -0.0950
   48MOL   C65732711   2.777   1.593   0.619 -0.0990  0.2169  0.7683
   48MOL   C65832712   2.910   1.599   0.662  0.0537 -0.0503 -0.1110
   48MOL   C65932713   2.968   1.488   0.733  0.0821 -0.2849 -0.1731
   48MOL   C66032714   2.892   1.371   0.749  0.2508  0.1077  0.0671
   48MOL   O66132715   2.946   1.261   0.804  0.1249  0.2959 -0.6116
   48MOL   C66232716   3.051   1.201   0.744  0.8989  1.0209 -0.0178
   48MOL   C66332717   3.175   1.246   0.784  0.1217  0.4824  0.1329
   48MOL   C66432718   3.290   1.187   0.730  0.4457  0.3771  0.1820
   48MOL   C66532719   3.282   1.087   0.626  0.2647  0.1292  0.4341
   48MOL   C66632720   3.152   1.061   0.571 -0.0742 -0.1319  0.4288
   48MOL   C66732721   3.036   1.108   0.639 -0.5130  0.0180  0.1342
   48MOL   C66832722   2.756   1.359   0.709 -0.0536 -0.4133 -1.1438
   48MOL   C66932723   2.699   1.470   0.641 -0.1727 -0.2071 -0.2587
   48MOL   H67032724   2.770   1.508   0.363  1.1782  1.2646  0.4320
   48MOL   H67132725   2.651   1.433   0.167 -1.2115  0.5078 -1.6867
   48MOL   H67232726   2.369   1.755   0.229 -1.7670 -2.8298  0.4304
   48MOL   H67332727   2.505   1.837   0.413  0.3925  1.4104 -0.1838
   48MOL   H67432728   2.970   1.687   0.646  1.3078 -1.4473 -3.5856
   48MOL   H67532729   3.065   1.506   0.776 -0.2552  0.9517  0.0966
   48MOL   H67632730   3.190   1.316   0.865 -0.2931  0.5369  0.1617
   48MOL   H67732731   3.381   1.220   0.777 -0.2284  0.6989  1.2706
   48MOL   H67832732   3.142   0.988   0.492 -0.2897  0.0074  0.3278
   48MOL   H67932733   2.937   1.081   0.604  0.1045 -0.4098 -1.3054
   48MOL   H68032734   2.694   1.275   0.739 -0.8670  0.0192 -1.5784
   48MOL   H68132735   2.596   1.465   0.609 -0.7478  1.7391  1.2562
   48MOL   H68232736   3.369   1.038   0.586  0.2275  1.1659 -0.9166
   49MOL     C132737   2.438   0.718   6.201  0.5781 -0.5897 -0.1281
   49MOL     C232738   2.407   0.854   6.223  0.6520  0.0458 -0.2094
   49MOL     C332739   2.498   0.937   6.294 -0.3061 -0.5290  0.1987
   49MOL     O432740   2.466   1.069   6.314  0.1398  0.4449 -0.4381
   49MOL     C532741   2.621   0.889   6.336 -0.1660 -0.1771  0.5305
   49MOL     C632742   2.646   0.751   6.306  0.3477 -0.2681  0.1630
   49MOL     C732743   2.558   0.662   6.242  0.4823 -0.7405  0.0912
   49MOL     C832744   2.600   0.521   6.209  0.4444 -0.6375  0.1210
   49MOL     O932745   2.716   0.487   6.202  0.6961  0.1671  0.6348
   49MOL    C1032746   2.492   0.421   6.196 -0.0997 -0.0976 -0.0318
   49MOL    C1132747   2.368   0.438   6.269 -0.4897  0.1914 -0.4898
   49MOL    C1232748   2.265   0.348   6.263  0.0228 -0.3409  0.1414
   49MOL    C1332749   2.283   0.241   6.171 -0.0857 -0.0508  0.2285
   49MOL    O1432750   2.187   0.135   6.168 -0.8891  0.0603  0.2445
   49MOL    C1532751   2.063   0.165   6.126 -0.2897  0.4053 -0.4483
   49MOL    C1632752   1.959   0.203   6.216 -0.6053 -0.7112  0.2177
   49MOL    C1732753   1.830   0.228   6.163  0.4676 -0.2503 -0.5257
   49MOL    C1832754   1.802   0.211   6.029  0.1907  0.3942 -0.2499
   49MOL    C1932755   1.904   0.166   5.939 -0.3928 -0.5098  0.1526
   49MOL    C2032756   2.036   0.147   5.986 -0.4818 -0.7592  0.7749
   49MOL    C2132757   2.399   0.225   6.088 -0.0985 -0.6830  0.2646
   49MOL    C2232758   2.506   0.316   6.102 -0.6821 -0.0948  0.2447
   49MOL    H2332759   2.368   0.657   6.146  1.6687 -1.3174 -0.7358
   49MOL    H2432760   2.306   0.882   6.196  0.0201 -0.2045  1.8539
   49MOL    H2532761   2.699   0.956   6.367 -0.3279 -0.5137  1.6655
   49MOL    H2632762   2.746   0.713   6.322  0.6860  0.5259 -0.0563
   49MOL    H2732763   2.362   0.502   6.356 -0.5445 -1.5830  0.8350
   49MOL    H2832764   2.172   0.348   6.319 -1.2321  4.0117 -1.7152
   49MOL    H2932765   1.980   0.209   6.322  0.6463 -0.2709 -0.0415
   49MOL    H3032766   1.757   0.270   6.231  1.8254  0.3603  0.5760
   49MOL    H3132767   1.875   0.155   5.836 -1.2168 -1.6002  0.4858
   49MOL    H3232768   2.120   0.130   5.920 -2.7113 -1.0561 -2.1147
   49MOL    H3332769   2.406   0.142   6.020  1.0246 -1.0183  0.7818
   49MOL    H3432770   2.596   0.283   6.053  0.3335  2.5637  0.2492
   49MOL    H3532771   2.386   1.058   6.364  1.3037 -0.1384  1.3329
   49MOL    C3632772   1.730   0.511   5.719 -0.2621 -0.0325  0.6577
   49MOL    C3732773   1.732   0.441   5.838  0.9340 -0.1560 -1.4806
   49MOL    C3832774   1.673   0.319   5.859  0.3976 -0.4145  0.3102
   49MOL    O3932775   1.678   0.253   5.983  0.3189 -0.0322  0.3031
   49MOL    C4032776   1.600   0.256   5.749  0.4923  0.3078 -0.5822
   49MOL    C4132777   1.595   0.328   5.629  0.1072  0.0545  0.6286
   49MOL    C4232778   1.654   0.455   5.615  0.2174 -0.3530  0.4907
   49MOL    C4332779   1.645   0.535   5.488 -0.1295  0.2703 -0.5204
   49MOL    O4432780   1.735   0.597   5.437  0.0905  0.6979 -0.9047
   49MOL    C4532781   1.517   0.540   5.416  0.6944 -0.2140 -0.2238
   49MOL    C4632782   1.516   0.569   5.276 -0.9546 -0.2732 -0.2555
   49MOL    C4732783   1.393   0.572   5.207 -0.5833  0.0351 -0.3965
   49MOL    C4832784   1.266   0.560   5.271  0.2275 -0.6168  0.5595
   49MOL    O4932785   1.149   0.569   5.205  0.5637  0.1020  0.5480
   49MOL    C5032786   1.079   0.684   5.219  0.2231  0.6720  0.1714
   49MOL    C5132787   0.948   0.677   5.266 -0.0477 -0.0878 -0.7303
   49MOL    C5232788   0.865   0.787   5.275  0.2914  0.6181  0.3142
   49MOL    C5332789   0.906   0.911   5.224 -0.2198 -0.5795 -0.4023
   49MOL    C5432790   1.039   0.924   5.176 -0.0799 -0.0514 -0.2141
   49MOL    C5532791   1.126   0.814   5.179 -0.0936  0.2251 -0.3129
   49MOL    C5632792   1.267   0.540   5.409  0.8330  0.8585  0.1444
   49MOL    C5732793   1.390   0.527   5.476 -0.1783 -0.3617  0.1576
   49MOL    H5832794   1.772   0.610   5.713  0.0596 -0.2859 -2.2949
   49MOL    H5932795   1.781   0.491   5.920  0.7371 -0.6963 -1.0263
   49MOL    H6032796   1.567   0.155   5.767 -0.7758  0.1713 -3.3497
   49MOL    H6132797   1.553   0.283   5.540 -0.2658  0.4231  0.6177
   49MOL    H6232798   1.608   0.590   5.223 -1.0718 -0.1843 -0.4255
   49MOL    H6332799   1.394   0.607   5.104 -0.2024 -0.0324 -0.4143
   49MOL    H6432800   0.906   0.584   5.300  1.4959 -0.1516  1.0604
   49MOL    H6532801   0.764   0.773   5.311 -0.8014  0.4142 -2.6397
   49MOL    H6632802   1.061   1.019   5.130 -0.3860 -0.3170 -0.9177
   49MOL    H6732803   1.227   0.805   5.142  0.6038 -1.3765  1.8292
   49MOL    H6832804   1.177   0.527   5.467 -0.1744  1.1142 -1.3454
   49MOL    H6932805   1.378   0.518   5.583 -1.1347  0.6373  0.1396
   49MOL    C7032806   0.612   1.088   5.502  0.0755  0.3471 -0.0642
   49MOL    C7132807   0.663   1.027   5.389 -0.1595 -0.1454 -0.6482
   49MOL    C7232808   0.766   1.081   5.315 -0.3627  0.1031 -0.0897
   49MOL    O7332809   0.817   1.013   5.211  0.4688  0.6616  0.3119
   49MOL    C7432810   0.819   1.208   5.354 -0.1170  0.1918 -0.1960
   49MOL    C7532811   0.768   1.269   5.466  0.3770  0.1358  0.3399
   49MOL    C7632812   0.666   1.208   5.550 -0.0357  0.9929 -0.1070
   49MOL    C7732813   0.605   1.277   5.669 -0.0296  0.0308  0.2517
   49MOL    O7832814   0.664   1.378   5.701 -0.4174 -0.3106 -0.9774
   49MOL    C7932815   0.471   1.236   5.711 -0.2916 -0.2660 -0.5581
   49MOL    C8032816   0.449   1.135   5.808 -0.0019 -0.4755  0.4281
   49MOL    C8132817   0.316   1.089   5.819 -0.7620  0.1233 -0.2755
   49MOL    C8232818   0.209   1.146   5.743  0.2241 -0.1000 -0.9241
   49MOL    O8332819   0.086   1.087   5.748 -1.2834  0.3346  0.5189
   49MOL    C8432820   0.081   0.948   5.745 -0.4201 -0.1812  0.3055
   49MOL    C8532821   0.119   0.896   5.621 -0.1387 -0.2355 -0.1735
   49MOL    C8632822   0.106   0.766   5.587 -0.1020 -0.9106  0.6514
   49MOL    C8732823   0.054   0.675   5.681  0.1921  0.3854  0.0011
   49MOL    C8832824   0.008   0.726   5.808  0.5366  0.4971  0.0462
   49MOL    C8932825   0.025   0.866   5.836 -0.0198 -0.1137  0.7150
   49MOL    C9032826   0.228   1.260   5.667 -0.3526  0.0228  0.3415
   49MOL    C9132827   0.359   1.301   5.649 -0.4065  0.9193  0.4827
   49MOL    H9232828   0.534   1.041   5.561  1.1507  0.4576  1.4491
   49MOL    H9332829   0.615   0.935   5.360  0.5323 -2.0148  3.8746
   49MOL    H9432830   0.898   1.251   5.295  2.1157 -3.9571 -0.3896
   49MOL    H9532831   0.800   1.369   5.491 -1.0547  0.8786 -0.7496
   49MOL    H9632832   0.540   1.091   5.848  0.6093 -1.1370 -1.6262
   49MOL    H9732833   0.300   1.008   5.889  0.0594 -0.5736 -0.8849
   49MOL    H9832834   0.151   0.964   5.543  1.4795  1.2722  1.7561
   49MOL    H9932835   0.133   0.723   5.492 -1.3917  1.2471 -0.7520
   49MOL   H10032836   8.288   0.652   5.879  1.0791 -0.6662 -0.8939
   49MOL   H10132837   8.312   0.912   5.931  1.8256 -2.3185  2.3428
   49MOL   H10232838   0.145   1.327   5.650 -1.3592 -1.2546  0.1585
   49MOL   H10332839   0.367   1.395   5.597 -1.7198  0.0939 -1.2820
   49MOL   C10432840   0.044   0.302   5.939 -0.2181 -0.1419 -0.4133
   49MOL   C10532841   8.307   0.390   5.836  0.1048 -0.0225 -1.0852
   49MOL   C10632842   0.088   0.452   5.751  1.2346 -0.6184 -0.4247
   49MOL   O10732843   0.046   0.538   5.650 -0.4846 -0.3240 -0.2049
   49MOL   C10832844   0.225   0.417   5.755 -0.1784  0.8575 -0.0549
   49MOL   C10932845   0.274   0.333   5.858  0.4260  0.0756 -0.4014
   49MOL   C11032846   0.180   0.276   5.954 -0.3798  0.1596  0.0241
   49MOL   C11132847   0.234   0.197   6.070 -0.9653 -0.9207  1.1662
   49MOL   O11232848   0.297   0.095   6.048 -0.1901 -0.0948 -0.2251
   49MOL   C11332849   0.212   0.259   6.208  0.3177  0.2033  0.4849
   49MOL   C11432850   0.263   0.183   6.317  1.0445  0.3653 -0.7049
   49MOL   C11532851   0.252   0.238   6.450 -0.1534  0.1654  0.8619
   49MOL   C11632852   0.201   0.366   6.471 -0.5839 -0.5014 -0.0969
   49MOL   O11732853   0.190   0.423   6.593  0.0954 -0.5214  0.2725
   49MOL   C11832854   0.119   0.362   6.692 -0.3560  0.2663 -0.5501
   49MOL   C11932855   0.134   0.414   6.822 -0.4984 -0.2391 -0.2435
   49MOL   C12032856   0.074   0.356   6.936  0.1474 -0.4995 -0.4748
   49MOL   C12132857   8.304   0.244   6.919 -0.3309 -0.4173 -0.5134
   49MOL   C12232858   8.284   0.192   6.790 -0.0845 -0.1709  0.2435
   49MOL   C12332859   0.033   0.254   6.676  0.5394  0.4289  0.2142
   49MOL   C12432860   0.164   0.447   6.365 -0.1374 -0.4296  0.4563
   49MOL   C12532861   0.163   0.388   6.229  0.4861  0.9205 -0.1355
   49MOL   H12632862   8.289   0.258   6.010  0.1565 -1.1565 -0.6722
   49MOL   H12732863   8.202   0.416   5.833  0.4012  1.7206  1.4701
   49MOL   H12832864   0.288   0.476   5.690  1.7852 -1.4468 -0.3058
   49MOL   H12932865   0.378   0.322   5.882  0.6452  0.3728 -1.2063
   49MOL   H13032866   0.301   0.082   6.313 -1.3740 -0.6260  0.2437
   49MOL   H13132867   0.272   0.182   6.541 -2.5112  1.5288  2.2803
   49MOL   H13232868   0.189   0.504   6.841  0.0642 -0.3564 -1.2759
   49MOL   H13332869   0.082   0.398   7.035  0.0394 -1.9011  0.1384
   49MOL   H13432870   8.233   0.097   6.785  1.0686 -0.7241 -1.3341
   49MOL   H13532871   0.020   0.209   6.579 -1.6379  2.3313 -0.4259
   49MOL   H13632872   0.133   0.550   6.376 -1.6864 -0.9318  0.9684
   49MOL   H13732873   0.127   0.446   6.145  0.8230  1.9916  0.4454
   49MOL   C13832874   8.011   0.384   7.236  0.4802  0.5448 -0.3701
   49MOL   C13932875   8.130   0.340   7.170 -0.5172 -0.1090  0.2592
   49MOL   C14032876   8.134   0.237   7.070 -0.3667  0.0016  0.7527
   49MOL   O14132877   8.247   0.185   7.024 -0.7244 -0.3594 -0.2490
   49MOL   C14232878   8.007   0.181   7.024  0.4031 -0.2496 -0.3582
   49MOL   C14332879   7.889   0.215   7.093  0.2582  0.4761 -0.1294
   49MOL   C14432880   7.885   0.320   7.196 -0.3164  0.2242 -0.8854
   49MOL   C14532881   7.761   0.350   7.268  0.0772 -0.8580 -0.2212
   49MOL   O14632882   7.685   0.261   7.302  0.2458  0.4638  0.3329
   49MOL   C14732883   7.738   0.487   7.326 -0.2561 -0.2635  0.1602
   49MOL   C14832884   7.766   0.603   7.245 -0.0924  0.3492  0.4697
   49MOL   C14932885   7.758   0.726   7.311 -0.7271  0.1415  0.5926
   49MOL   C15032886   7.703   0.743   7.439 -0.1805 -0.3861 -1.0475
   49MOL   O15132887   7.673   0.870   7.486  0.4183 -0.0839 -0.1965
   49MOL   C15232888   7.582   0.948   7.412 -1.1898 -0.4497 -0.6385
   49MOL   C15332889   7.604   1.086   7.399 -0.7181 -0.1349 -0.1360
   49MOL   C15432890   7.528   1.167   7.323  0.1328  0.3495  0.0651
   49MOL   C15532891   7.417   1.113   7.251 -0.2096 -0.3442 -0.5580
   49MOL   C15632892   7.387   0.977   7.266  0.1158  0.6923 -0.3427
   49MOL   C15732893   7.471   0.891   7.345  0.0793  0.3735  0.7703
   49MOL   C15832894   7.665   0.627   7.514  0.5360  0.6910 -0.2285
   49MOL   C15932895   7.686   0.503   7.456  0.0263  0.3978 -0.9947
   49MOL   H16032896   8.010   0.453   7.318 -1.4236 -2.2330  2.0255
   49MOL   H16132897   8.222   0.396   7.175 -0.4971  0.0538 -1.5227
   49MOL   H16232898   7.999   0.111   6.942 -0.6739 -0.1184 -0.3642
   49MOL   H16332899   7.797   0.162   7.073 -0.0476  0.7037  0.6817
   49MOL   H16432900   7.791   0.589   7.141  2.1188  0.0046  1.0092
   49MOL   H16532901   7.772   0.819   7.257  0.6053  1.5894  3.2737
   49MOL   H16632902   7.690   1.120   7.454 -1.8399  0.8476  1.0545
   49MOL   H16732903   7.553   1.272   7.321 -0.7094  0.5525 -0.3444
   49MOL   H16832904   7.315   0.931   7.200  1.1306 -0.5245 -0.6307
   49MOL   H16932905   7.452   0.785   7.352  0.5782  0.2675  0.5434
   49MOL   H17032906   7.615   0.631   7.610 -0.9122 -1.5146 -0.8598
   49MOL   H17132907   7.640   0.421   7.510 -0.4431  1.7662  0.7210
   49MOL   C17232908   7.510   1.164   6.840  0.4466 -0.2037 -0.1168
   49MOL   C17332909   7.480   1.134   6.976  0.9615  0.2935  0.1059
   49MOL   C17432910   7.380   1.214   7.038 -0.0451  0.6432  0.7340
   49MOL   O17532911   7.342   1.195   7.167  0.5103 -0.0323 -0.3013
   49MOL   C17632912   7.305   1.313   6.963 -0.4756 -0.3925 -0.5268
   49MOL   C17732913   7.346   1.347   6.833  0.4616  0.1636  0.4293
   49MOL   C17832914   7.446   1.270   6.767 -0.0214  0.7693  0.7331
   49MOL   C17932915   7.469   1.284   6.616 -0.5580  0.4869  0.4603
   49MOL   O18032916   7.382   1.329   6.535  0.4383  0.0081 -0.6978
   49MOL   C18132917   7.605   1.244   6.560  0.4570 -0.3584 -0.0288
   49MOL   C18232918   7.724   1.271   6.631  0.7880 -0.2426  0.1411
   49MOL   C18332919   7.847   1.246   6.565  0.0093  0.1345  0.2131
   49MOL   C18432920   7.852   1.203   6.427  0.0721  0.1014 -0.5350
   49MOL   O18532921   7.974   1.189   6.363 -0.4942 -0.1017  0.2579
   49MOL   C18632922   8.006   1.059   6.322 -0.7050 -0.1269 -0.7711
   49MOL   C18732923   8.036   1.033   6.188 -0.5742  0.0549  0.2259
   49MOL   C18832924   8.063   0.907   6.146 -0.1274 -0.5153  0.2966
   49MOL   C18932925   8.068   0.805   6.240 -0.1145 -0.3469  0.5549
   49MOL   C19032926   8.041   0.828   6.375 -0.5680  0.3953 -0.4800
   49MOL   C19132927   8.009   0.959   6.417  0.2387  0.1379 -0.5984
   49MOL   C19232928   7.731   1.184   6.361  0.4054  0.3479 -0.0101
   49MOL   C19332929   7.611   1.198   6.424  0.1365  0.0618 -0.1270
   49MOL   H19432930   7.594   1.107   6.803  0.2105 -1.4096  1.1401
   49MOL   H19532931   7.533   1.053   7.024 -1.3671 -1.5923 -0.3733
   49MOL   H19632932   7.233   1.380   7.007 -0.1500 -1.1690  1.2344
   49MOL   H19732933   7.297   1.427   6.779 -0.3013 -0.9791 -0.5824
   49MOL   H19832934   7.720   1.323   6.725 -0.2570  0.0993 -0.0877
   49MOL   H19932935   7.935   1.275   6.622 -0.4978  1.1418  0.4964
   49MOL   H20032936   8.022   1.109   6.112  1.0121 -0.2347 -0.3821
   49MOL   H20132937   8.090   0.888   6.043  0.6893  0.2133  0.3739
   49MOL   H20232938   8.045   0.740   6.436  0.3807  0.0143 -1.0723
   49MOL   H20332939   7.986   0.985   6.520  0.2923  2.1811 -1.0934
   49MOL   H20432940   7.720   1.144   6.261 -0.0184 -0.7595  0.4726
   49MOL   H20532941   7.517   1.190   6.372  0.4552 -0.4496 -0.6270
   49MOL   C20632942   7.892   0.480   5.975  0.1933  0.6443 -0.3541
   49MOL   C20732943   7.999   0.557   6.024  0.6699  1.1554 -0.0458
   49MOL   C20832944   7.996   0.606   6.155  0.3046 -0.2921 -0.3774
   49MOL   O20932945   8.105   0.682   6.196  0.5304  0.8042 -0.1323
   49MOL   C21032946   7.892   0.566   6.239  0.0812 -0.0926  0.1066
   49MOL   C21132947   7.775   0.503   6.189  0.0182 -0.3694  0.2536
   49MOL   C21232948   7.777   0.456   6.058 -0.0413  0.1807 -0.1809
   49MOL   C21332949   7.661   0.382   6.013  0.0870 -0.4676  0.7364
   49MOL   O21432950   7.544   0.407   6.045 -0.1800 -0.8804 -0.3010
   49MOL   C21532951   7.691   0.276   5.914 -0.4409  0.9063  0.1156
   49MOL   C21632952   7.728   0.149   5.957  0.5054  0.0482 -0.2498
   49MOL   C21732953   7.745   0.051   5.857  0.6429 -0.8980 -0.2664
   49MOL   C21832954   7.724   0.073   5.719  0.2622 -0.2666  0.3590
   49MOL   O21932955   7.734   8.282   5.632 -0.2776 -0.5159 -0.2760
   49MOL   C22032956   7.676   8.167   5.664 -0.0240  0.1208  0.0255
   49MOL   C22132957   7.748   8.065   5.735 -0.4172  0.0747  0.3524
   49MOL   C22232958   7.686   7.939   5.755  0.4487  0.1262  0.3478
   49MOL   C22332959   7.559   7.914   5.714 -0.2070  0.2778 -1.0929
   49MOL   C22432960   7.487   8.014   5.653  0.8475  0.2908 -0.6269
   49MOL   C22532961   7.544   8.138   5.621 -0.9482 -0.3909  0.1076
   49MOL   C22632962   7.690   0.204   5.681 -0.0309 -0.5785 -0.0006
   49MOL   C22732963   7.671   0.304   5.777 -0.7650 -0.3073  0.0540
   49MOL   H22832964   7.896   0.426   5.882 -3.9115 -1.2102  0.4487
   49MOL   H22932965   8.087   0.578   5.966  0.6644  2.6704  0.4715
   49MOL   H23032966   7.894   0.600   6.341  1.3308  2.0510 -0.5933
   49MOL   H23132967   7.704   0.486   6.268  2.6125 -0.6210  2.6433
   49MOL   H23232968   7.738   0.127   6.062 -2.5068  0.1743  0.1188
   49MOL   H23332969   7.783   8.270   5.893  3.2091 -0.2353 -1.1292
   49MOL   H23432970   7.850   8.082   5.768 -0.2713  2.8955 -1.4018
   49MOL   H23532971   7.739   7.865   5.812  1.4427  0.9813  0.5380
   49MOL   H23632972   7.384   8.004   5.624  0.9162 -0.1865 -0.7061
   49MOL   H23732973   7.497   8.219   5.567  1.2462 -0.8592 -2.5884
   49MOL   H23832974   7.690   0.229   5.576 -1.0415 -1.9692 -0.3416
   49MOL   H23932975   7.653   0.403   5.739 -0.5722 -0.2728  0.0516
   49MOL   C24032976   7.643   7.478   5.868  0.3533 -0.0272  0.0509
   49MOL   C24132977   7.601   7.583   5.782  0.1085 -0.3016  0.1557
   49MOL   C24232978   7.541   7.699   5.832  0.0583 -0.0450 -0.9772
   49MOL   O24332979   7.491   7.796   5.751 -0.4132  0.3794 -0.0930
   49MOL   C24432980   7.523   7.706   5.973 -0.3280 -0.7114  0.1772
   49MOL   C24532981   7.564   7.603   6.054 -0.2516  0.6796 -1.4299
   49MOL   C24632982   7.619   7.483   6.006 -0.3705 -0.3390 -0.5934
   49MOL   C24732983   7.643   7.366   6.087 -0.5728  0.3299  0.5282
   49MOL   O24832984   7.754   7.327   6.108  0.1971  0.0813 -0.4949
   49MOL   C24932985   7.519   7.291   6.137 -0.0202  0.0577  1.0799
   49MOL   C25032986   7.389   7.331   6.103  0.1747  0.1269 -0.4155
   49MOL   C25132987   7.276   7.275   6.170 -0.4513 -0.2876 -0.1754
   49MOL   C25232988   7.298   7.161   6.254 -1.2008  0.2102 -0.5153
   49MOL   O25332989   7.194   7.112   6.334 -0.2996  0.3619 -0.2245
   49MOL   C25432990   7.102   7.024   6.284  0.3317  0.2829  0.4229
   49MOL   C25532991   7.089   6.903   6.359  0.0703  0.8944 -0.5472
   49MOL   C25632992   6.996   6.808   6.324 -0.2291  0.5290 -0.5131
   49MOL   C25732993   6.930   6.824   6.200  0.3432 -0.0740 -0.7819
   49MOL   C25832994   6.947   6.935   6.119 -0.0822  0.1825 -0.0866
   49MOL   C25932995   7.029   7.039   6.162  0.7389 -0.3052 -0.0578
   49MOL   C26032996   7.427   7.107   6.272  0.1511 -1.1641  0.3538
   49MOL   C26132997   7.537   7.176   6.220 -0.5587 -0.2483 -1.2074
   49MOL   H26232998   7.687   7.391   5.822  0.6758 -0.0872  0.4735
   49MOL   H26332999   7.625   7.572   5.677 -1.7583 -1.2494 -0.1954
   49MOL   H26433000   7.477   7.792   6.020 -2.2118 -0.3040 -2.3115
   49MOL   H26533001   7.553   7.623   6.160  0.5479  0.6484 -1.3369
   49MOL   H26633002   7.369   7.415   6.038  2.5677 -0.0206 -1.4018
   49MOL   H26733003   7.184   7.330   6.166 -0.3905 -0.2317 -0.7279
   49MOL   H26833004   7.139   6.892   6.454 -1.1489  0.2864  0.0408
   49MOL   H26933005   6.996   6.718   6.383  1.6626  0.0232 -1.2687
   49MOL   H27033006   6.901   6.943   6.021 -0.9538 -0.1697  0.2892
   49MOL   H27133007   7.035   7.129   6.102  1.2712  0.5359  1.2252
   49MOL   H27233008   7.442   7.017   6.330  1.1250 -2.1047 -1.3206
   49MOL   H27333009   7.635   7.140   6.245  0.3857  2.1651 -1.2479
   49MOL   C27433010   6.483   6.768   6.114 -0.1308  0.1978  0.1148
   49MOL   C27533011   6.626   6.755   6.086 -0.4081 -0.7970 -0.2781
   49MOL   C27633012   6.714   6.735   6.193  1.2358  0.3585 -0.2930
   49MOL   O27733013   6.845   6.722   6.166 -0.4828  0.0724  0.6554
   49MOL   C27833014   6.677   6.732   6.325  0.0725  0.6053  0.3278
   49MOL   C27933015   6.541   6.749   6.357  0.5046  0.0164  0.2282
   49MOL   C28033016   6.443   6.766   6.252  0.6432  0.1225  0.0311
   49MOL   C28133017   6.299   6.789   6.281  0.4435  0.3777  0.3206
   49MOL   O28233018   6.265   6.866   6.374 -0.4567  0.5086 -0.3311
   49MOL   C28333019   6.197   6.726   6.194 -0.3983 -0.1955  0.4781
   49MOL   C28433020   6.074   6.792   6.165 -0.2437 -0.2628 -0.8782
   49MOL   C28533021   5.969   6.730   6.089 -0.4733 -0.1525  0.3874
   49MOL   C28633022   5.992   6.603   6.032  0.1888 -0.3024  0.2897
   49MOL   O28733023   5.889   6.547   5.955 -0.0045  0.1830  0.1709
   49MOL   C28833024   5.858   6.607   5.843 -0.4254 -0.2584 -0.4808
   49MOL   C28933025   5.950   6.619   5.737 -0.1760  0.7616  0.1456
   49MOL   C29033026   5.907   6.677   5.617  0.7506  0.2970  0.4004
   49MOL   C29133027   5.778   6.729   5.598  0.2873 -0.0300 -0.0596
   49MOL   C29233028   5.684   6.720   5.706 -0.2050 -0.2484 -0.3532
   49MOL   C29333029   5.727   6.663   5.830  0.2854  0.3565  0.5324
   49MOL   C29433030   6.114   6.536   6.055  0.5266 -0.1769 -0.5161
   49MOL   C29533031   6.215   6.597   6.135  0.8191 -0.3451  0.3248
   49MOL   H29633032   6.408   6.779   6.037 -0.2885 -0.8537  0.1000
   49MOL   H29733033   6.665   6.751   5.986  2.4709 -0.4472  0.7626
   49MOL   H29833034   6.756   6.722   6.398  1.9561  2.1838 -1.4416
   49MOL   H29933035   6.518   6.761   6.461  1.6900 -2.1328  0.7604
   49MOL   H30033036   6.066   6.889   6.212 -1.7336 -0.8960  0.2244
   49MOL   H30133037   5.871   6.768   6.066 -1.2258 -0.5791  2.7513
   49MOL   H30233038   6.044   6.568   5.751 -0.8944  0.5741  5.1104
   49MOL   H30333039   5.983   6.678   5.540  0.1781  1.4038 -0.1685
   49MOL   H30433040   5.588   6.767   5.692  0.2438  1.4427  1.9511
   49MOL   H30533041   5.663   6.655   5.917 -1.7305 -0.1737 -0.9684
   49MOL   H30633042   6.136   6.437   6.017  1.4826 -0.1563 -0.0346
   49MOL   H30733043   6.298   6.539   6.171  3.6677  2.4267 -1.3879
   49MOL   C30833044   5.650   7.102   5.305  0.1377  0.6669  0.7697
   49MOL   C30933045   5.657   6.964   5.335  0.1523 -1.0009 -0.3505
   49MOL   C31033046   5.725   6.916   5.454  0.6961  0.1454  0.3906
   49MOL   O31133047   5.739   6.782   5.477  1.4204 -0.5432 -0.3036
   49MOL   C31233048   5.785   7.021   5.533  0.3558 -0.2032 -0.1966
   49MOL   C31333049   5.769   7.162   5.502  0.5881  0.1723 -0.5570
   49MOL   C31433050   5.703   7.202   5.386  0.5121  0.1710 -0.1060
   49MOL   C31533051   5.686   7.348   5.355  1.1695  0.3306 -0.0681
   49MOL   O31633052   5.764   7.433   5.405  0.2480  0.3189  0.1666
   49MOL   C31733053   5.568   7.394   5.282  0.9154 -0.6228  0.6846
   49MOL   C31833054   5.477   7.475   5.352 -0.3430 -0.8041  0.3937
   49MOL   C31933055   5.359   7.521   5.284 -0.0296  0.3209 -0.7106
   49MOL   C32033056   5.328   7.490   5.150  0.5743 -0.4939  0.8095
   49MOL   O32133057   5.212   7.529   5.092 -0.3397 -0.5516  0.0229
   49MOL   C32233058   5.110   7.446   5.081  0.4345  0.4809 -0.0332
   49MOL   C32333059   5.055   7.414   4.952  0.7879 -0.4455 -0.0683
   49MOL   C32433060   4.951   7.326   4.937  0.0168 -0.3260  0.5652
   49MOL   C32533061   4.892   7.263   5.052 -0.0110 -0.2773 -0.2423
   49MOL   C32633062   4.941   7.297   5.182 -0.1384  0.0973  0.2346
   49MOL   C32733063   5.056   7.381   5.194  0.2454  0.0003 -0.2686
   49MOL   C32833064   5.424   7.411   5.077  0.4750  0.1057  0.5862
   49MOL   C32933065   5.539   7.359   5.146 -0.3048 -0.4769 -1.1494
   49MOL   H33033066   5.619   7.132   5.206 -1.9935 -5.0187 -0.5242
   49MOL   H33133067   5.611   6.896   5.265  0.9187 -0.2411 -1.6031
   49MOL   H33233068   5.843   6.991   5.619  1.7051 -0.7316 -1.2623
   49MOL   H33333069   5.821   7.238   5.558 -3.6468  2.8971 -0.0859
   49MOL   H33433070   5.500   7.491   5.457  0.9339 -0.5200  0.0862
   49MOL   H33533071   5.294   7.581   5.345 -0.8626  0.3614 -1.6367
   49MOL   H33633072   5.104   7.467   4.872 -0.1871 -0.6414 -0.7931
   49MOL   H33733073   4.906   7.313   4.840  0.3027 -0.7912  0.4966
   49MOL   H33833074   4.891   7.254   5.267  2.3874  0.0663  1.7500
   49MOL   H33933075   5.084   7.397   5.297  1.6140 -3.0847 -0.1153
   49MOL   H34033076   5.411   7.391   4.972  1.0712  2.3503  0.0423
   49MOL   H34133077   5.617   7.306   5.092 -2.2695 -2.8127 -1.8158
   49MOL   C34233078   4.700   6.832   5.138 -0.1150  0.2189  0.3192
   49MOL   C34333079   4.693   6.975   5.121 -0.0854  0.3137 -0.4745
   49MOL   C34433080   4.796   7.042   5.060 -0.0334 -0.1308  0.4899
   49MOL   O34533081   4.784   7.178   5.033  0.0357 -0.3474  0.0866
   49MOL   C34633082   4.915   6.965   5.020 -0.1737 -0.3752  1.1373
   49MOL   C34733083   4.921   6.826   5.046  0.6334 -0.4762 -0.0943
   49MOL   C34833084   4.814   6.760   5.113 -0.9421 -0.1635  0.5994
   49MOL   C34933085   4.822   6.616   5.135  0.0196  0.2455  0.5507
   49MOL   O35033086   4.894   6.542   5.064  0.1501 -0.4907  0.2031
   49MOL   C35133087   4.733   6.551   5.233 -0.1450 -0.2738  0.2439
   49MOL   C35233088   4.655   6.441   5.197  0.0049 -0.2114 -0.0164
   49MOL   C35333089   4.563   6.377   5.287  0.5644  0.0781 -0.3428
   49MOL   C35433090   4.550   6.434   5.417  0.7851 -0.1363  0.2966
   49MOL   O35533091   4.464   6.389   5.511 -0.2901  0.0454  0.8399
   49MOL   C35633092   4.464   6.258   5.540  0.3953  0.1109  0.4390
   49MOL   C35733093   4.354   6.174   5.510  0.1572 -0.9486  0.7497
   49MOL   C35833094   4.361   6.033   5.522 -0.3007 -0.0063 -0.1471
   49MOL   C35933095   4.481   5.963   5.566 -0.0412  0.5594  0.4407
   49MOL   C36033096   4.587   6.044   5.598 -0.5758  0.4357  0.0981
   49MOL   C36133097   4.578   6.189   5.586  0.0537 -0.5236  0.3581
   49MOL   C36233098   4.624   6.544   5.453  0.5395 -0.2953 -0.6051
   49MOL   C36333099   4.716   6.602   5.366  0.7522  0.3374  0.7001
   49MOL   H36433100   4.609   6.790   5.179 -1.3598  1.7489 -0.7777
   49MOL   H36533101   4.607   7.033   5.149  1.3419  2.2691 -0.0721
   49MOL   H36633102   4.992   7.016   4.966 -0.4836 -0.3463  0.7188
   49MOL   H36733103   5.001   6.763   5.012  0.4819 -1.4012  1.2523
   49MOL   H36833104   4.676   6.407   5.097  1.8602  3.7568 -1.1046
   49MOL   H36933105   4.501   6.292   5.265  1.5106 -0.3689 -1.3026
   49MOL   H37033106   4.259   6.206   5.470  0.4331 -0.8448  0.1602
   49MOL   H37133107   4.274   5.971   5.503 -1.6260  1.0769  2.2446
   49MOL   H37233108   4.681   5.995   5.618 -1.1257  0.0528  1.8566
   49MOL   H37333109   4.661   6.255   5.605  0.2199 -0.4369 -0.6437
   49MOL   H37433110   4.603   6.590   5.548  0.8307  2.8906 -2.0121
   49MOL   H37533111   4.758   6.697   5.394  0.0992  0.7444  0.3292
   49MOL   C37633112   4.171   5.705   5.700 -0.2919 -0.0372  0.0035
   49MOL   C37733113   4.297   5.768   5.693 -0.6628  0.8826  0.0206
   49MOL   C37833114   4.378   5.752   5.578 -0.3738 -0.4237  0.4915
   49MOL   O37933115   4.493   5.829   5.561  0.0052 -0.2425  0.5859
   49MOL   C38033116   4.327   5.677   5.469 -0.2971 -0.1822  0.1528
   49MOL   C38133117   4.207   5.605   5.489 -0.3113 -0.4400 -0.0540
   49MOL   C38233118   4.127   5.622   5.598 -0.1126  0.5878 -0.0570
   49MOL   C38333119   4.003   5.532   5.609 -0.8666 -0.2150  0.4992
   49MOL   O38433120   4.018   5.408   5.618  0.2211 -0.2756 -0.5793
   49MOL   C38533121   3.873   5.608   5.610  0.0096  0.3985 -0.3195
   49MOL   C38633122   3.865   5.740   5.565  0.6201 -0.7184 -0.3129
   49MOL   C38733123   3.741   5.805   5.542 -0.5197 -0.9683  0.3040
   49MOL   C38833124   3.623   5.742   5.579  0.0023  0.2024 -0.1082
   49MOL   O38933125   3.501   5.790   5.543 -0.3638 -0.0424 -0.1824
   49MOL   C39033126   3.469   5.911   5.588 -0.9248  0.0121  0.4902
   49MOL   C39133127   3.424   5.929   5.721  0.1978 -0.2587  0.2240
   49MOL   C39233128   3.396   6.051   5.782  0.5689  0.1961 -0.2899
   49MOL   C39333129   3.410   6.167   5.700  0.3167 -0.5932  0.0489
   49MOL   C39433130   3.442   6.154   5.564  0.4569  0.5193 -0.6354
   49MOL   C39533131   3.484   6.031   5.509 -0.7499 -0.4617  0.3047
   49MOL   C39633132   3.628   5.617   5.637 -0.7327  0.5099 -0.3280
   49MOL   C39733133   3.751   5.548   5.649  0.2829  0.1737 -0.5234
   49MOL   H39833134   4.118   5.705   5.794 -2.3660 -1.8054 -1.1317
   49MOL   H39933135   4.336   5.828   5.774 -0.0352  0.6386 -0.1004
   49MOL   H40033136   4.387   5.678   5.379 -2.6120  0.8177 -1.4220
   49MOL   H40133137   4.175   5.540   5.409 -0.8933  0.7077 -0.7719
   49MOL   H40233138   3.954   5.787   5.525 -0.3139 -0.4606 -2.1418
   49MOL   H40333139   3.762   5.896   5.488  0.6594 -1.1763  0.3997
   49MOL   H40433140   3.403   5.834   5.769 -4.1738  0.8489  0.7224
   49MOL   H40533141   3.354   6.062   5.881 -1.7908 -0.1614 -1.2126
   49MOL   H40633142   3.453   6.235   5.494  2.0415 -0.0738 -1.0827
   49MOL   H40733143   3.528   6.031   5.410 -0.5690  0.0862  0.3799
   49MOL   H40833144   3.540   5.560   5.661  2.1758 -4.1406 -0.0387
   49MOL   H40933145   3.744   5.443   5.673  0.4089  0.3226  0.1581
   49MOL   C41033146   3.071   6.384   5.925 -0.1614 -0.7746 -0.3592
   49MOL   C41133147   3.203   6.366   5.896  0.1118  0.0231  0.2419
   49MOL   C41233148   3.247   6.322   5.770 -0.3689 -0.0958 -0.6058
   49MOL   O41333149   3.378   6.296   5.740 -0.3671 -0.5266 -0.1292
   49MOL   C41433150   3.154   6.295   5.671  0.5174 -0.5609 -0.7054
   49MOL   C41533151   3.014   6.326   5.698 -0.7641  0.0685 -0.1604
   49MOL   C41633152   2.973   6.365   5.828 -0.6293  0.3941  0.3324
   49MOL   C41733153   2.827   6.380   5.852  0.3343 -0.2859  1.0955
   49MOL   O41833154   2.755   6.287   5.821  0.3369  0.1176 -0.3401
   49MOL   C41933155   2.769   6.504   5.917  0.6550  0.2321  0.0713
   49MOL   C42033156   2.852   6.623   5.940  0.7572 -0.2108 -0.9434
   49MOL   C42133157   2.792   6.741   5.989 -0.3002  0.2384  0.2591
   49MOL   C42233158   2.655   6.747   6.021 -0.5152  0.0521  0.2213
   49MOL   O42333159   2.599   6.860   6.066  0.4893 -0.3969  0.1035
   49MOL   C42433160   2.656   6.934   6.166 -0.0758 -0.1778 -0.2533
   49MOL   C42533161   2.681   7.077   6.144  0.3896 -1.0441  0.3960
   49MOL   C42633162   2.733   7.154   6.250  0.3728  0.5882  0.0741
   49MOL   C42733163   2.770   7.089   6.373 -0.0871 -0.0553  0.6321
   49MOL   C42833164   2.746   6.954   6.394  0.2477 -0.1222  0.4505
   49MOL   C42933165   2.693   6.873   6.290  0.2658  0.0912  0.8292
   49MOL   C43033166   2.577   6.634   6.002 -0.2178 -0.7864  0.1854
   49MOL   C43133167   2.630   6.519   5.940 -0.2449 -0.0577  0.1903
   49MOL   H43233168   3.041   6.409   6.026  2.5518  0.4808  0.1768
   49MOL   H43333169   3.274   6.391   5.973  1.4750  0.7319 -1.2247
   49MOL   H43433170   3.183   6.259   5.573 -0.4268  1.0438 -1.5870
   49MOL   H43533171   2.942   6.306   5.620 -1.3841  0.5598  0.2799
   49MOL   H43633172   2.957   6.613   5.919  0.6726 -2.4620 -0.4623
   49MOL   H43733173   2.857   6.826   6.004  0.6230 -0.2642 -0.8188
   49MOL   H43833174   2.663   7.129   6.052 -3.7120 -0.5981  1.3685
   49MOL   H43933175   2.753   7.259   6.235  0.4823  0.3415 -1.7090
   49MOL   H44033176   2.773   6.897   6.481  3.2517 -1.0961 -1.0368
   49MOL   H44133177   2.672   6.768   6.304 -1.2011  0.2779  0.0618
   49MOL   H44233178   2.471   6.650   6.015 -0.6896 -1.0391 -3.0563
   49MOL   H44333179   2.567   6.432   5.932 -0.1503  0.0409 -1.9240
   49MOL   C44433180   2.803   7.088   6.820 -0.0486 -0.3011 -0.7359
   49MOL   C44533181   2.758   7.114   6.686  0.3201 -1.0176  0.5967
   49MOL   C44633182   2.857   7.126   6.588  0.0208  0.1820 -0.3633
   49MOL   O44733183   2.821   7.176   6.464  0.1634 -0.1165  0.2493
   49MOL   C44833184   2.994   7.097   6.616 -0.9529  1.5233  0.6113
   49MOL   C44933185   3.032   7.057   6.745  0.0767 -0.7010 -0.0325
   49MOL   C45033186   2.938   7.054   6.851  0.4335  0.1867 -0.5742
   49MOL   C45133187   2.970   6.989   6.982  0.2566 -0.1980  0.4171
   49MOL   O45233188   3.074   7.014   7.047  0.1567  0.2757 -0.7966
   49MOL   C45333189   2.879   6.875   7.025  0.2027 -0.6193 -0.3341
   49MOL   C45433190   2.919   6.814   7.151  0.4262 -0.6601 -0.1754
   49MOL   C45533191   2.849   6.702   7.207 -0.2354 -0.3843  0.3912
   49MOL   C45633192   2.737   6.657   7.132 -0.2008 -0.1807 -0.0207
   49MOL   O45733193   2.662   6.549   7.183 -0.3129 -0.6846 -0.2010
   49MOL   C45833194   2.534   6.573   7.228 -0.2530 -0.6070  0.0633
   49MOL   C45933195   2.500   6.671   7.320  0.3737  0.0124 -0.0814
   49MOL   C46033196   2.370   6.685   7.365  0.0823  0.4738 -0.1715
   49MOL   C46133197   2.268   6.593   7.324  0.3094  0.4412  0.4984
   49MOL   C46233198   2.300   6.499   7.234 -0.1386  0.4780  0.8718
   49MOL   C46333199   2.436   6.478   7.191 -0.5331  1.0947 -0.0093
   49MOL   C46433200   2.699   6.709   7.008  0.4045  0.7586 -0.9707
   49MOL   C46533201   2.777   6.810   6.954  0.0015 -0.0447 -0.2853
   49MOL   H46633202   2.738   7.077   6.906  1.0945 -0.2736  0.1425
   49MOL   H46733203   2.652   7.121   6.667  0.1722 -1.2485  1.3163
   49MOL   H46833204   3.064   7.109   6.535  0.2156 -1.5440  1.0796
   49MOL   H46933205   3.127   7.009   6.763  0.2881 -0.1210  0.4163
   49MOL   H47033206   3.003   6.848   7.211  0.6431 -1.2024 -0.1577
   49MOL   H47133207   2.875   6.656   7.301 -0.4987 -1.6761 -0.1624
   49MOL   H47233208   2.570   6.748   7.352  2.2928 -1.1613 -1.3566
   49MOL   H47333209   2.333   6.756   7.438 -0.6228 -0.5167  0.4467
   49MOL   H47433210   2.222   6.430   7.204 -1.0247  2.0379 -0.4997
   49MOL   H47533211   2.474   6.398   7.129 -0.4147  0.6204  0.6729
   49MOL   H47633212   2.618   6.669   6.949  0.8539 -0.2080 -0.9495
   49MOL   H47733213   2.746   6.856   6.861 -0.6357  0.7854  0.3237
   49MOL   C47833214   1.967   6.747   7.065 -0.2621  0.3811 -0.0182
   49MOL   C47933215   2.066   6.716   7.158 -0.6117  0.4842 -0.4226
   49MOL   C48033216   2.045   6.626   7.264 -0.1783 -0.2436 -0.0678
   49MOL   O48133217   2.137   6.601   7.364  0.0090 -0.0801  0.0079
   49MOL   C48233218   1.931   6.550   7.264  0.2592 -0.8225 -0.7017
   49MOL   C48333219   1.828   6.589   7.175 -0.3714 -0.9102  0.4742
   49MOL   C48433220   1.842   6.685   7.077  0.0737 -0.0540  0.5579
   49MOL   C48533221   1.731   6.727   6.987 -0.0683  0.0915  0.6729
   49MOL   O48633222   1.625   6.761   7.036  0.1551 -0.5298  0.0659
   49MOL   C48733223   1.758   6.728   6.836 -0.0686  0.5965 -0.5995
   49MOL   C48833224   1.683   6.810   6.753  0.4799 -0.0203  0.1302
   49MOL   C48933225   1.712   6.813   6.616  0.6141  0.0272 -0.9926
   49MOL   C49033226   1.811   6.726   6.557  0.5299  0.0615 -0.7366
   49MOL   O49133227   1.842   6.735   6.421  0.0416 -0.2598  0.0622
   49MOL   C49233228   1.800   6.631   6.342 -0.6940 -0.3978  0.1056
   49MOL   C49333229   1.888   6.529   6.311 -0.4792  0.0199 -0.7804
   49MOL   C49433230   1.853   6.426   6.221 -0.4302  0.2327  0.3627
   49MOL   C49533231   1.728   6.424   6.155 -0.1151 -0.1353 -0.5199
   49MOL   C49633232   1.644   6.532   6.186  0.7706  0.1514 -0.2964
   49MOL   C49733233   1.674   6.632   6.277 -0.4539 -0.5009  0.5472
   49MOL   C49833234   1.892   6.639   6.641  0.1143 -0.4726 -0.3056
   49MOL   C49933235   1.855   6.637   6.777  0.4678  0.1618  0.2767
   49MOL   H50033236   1.998   6.811   6.984 -0.9001 -0.2268 -0.7527
   49MOL   H50133237   2.157   6.774   7.152 -0.6498  0.4603 -1.2701
   49MOL   H50233238   1.909   6.466   7.328 -0.3951  0.2424  0.4958
   49MOL   H50333239   1.744   6.520   7.180 -0.8240 -0.5029 -1.2388
   49MOL   H50433240   1.602   6.871   6.790  0.7252 -0.7719  1.9553
   49MOL   H50533241   1.655   6.877   6.551 -3.3818 -1.9750  0.3525
   49MOL   H50633242   1.987   6.535   6.355 -1.0207 -0.4284  0.5268
   49MOL   H50733243   1.922   6.344   6.203  0.2766  0.7051  0.9080
   49MOL   H50833244   1.559   6.545   6.121  1.8355  0.2569 -1.6782
   49MOL   H50933245   1.607   6.716   6.288  0.6184  0.2837  1.1799
   49MOL   H51033246   1.963   6.574   6.592 -0.1063 -0.2874 -0.8719
   49MOL   H51133247   1.914   6.570   6.838 -1.7884 -1.8299  0.3299
   49MOL   C51233248   1.682   5.955   6.078  0.2645  0.5043  0.2974
   49MOL   C51333249   1.696   6.086   6.029 -0.3268  0.3708 -0.6960
   49MOL   C51433250   1.670   6.200   6.109 -0.0903 -0.3540 -0.2057
   49MOL   O51533251   1.684   6.329   6.062  0.0179  0.1080  0.1071
   49MOL   C51633252   1.614   6.172   6.235  0.1494 -0.2026  0.4140
   49MOL   C51733253   1.593   6.040   6.282 -0.9224  0.3384  0.0955
   49MOL   C51833254   1.636   5.927   6.205  0.0698  0.2501 -0.8895
   49MOL   C51933255   1.634   5.782   6.248 -0.5560  0.2483  0.0465
   49MOL   O52033256   1.684   5.691   6.178 -0.1260  0.2260 -0.1191
   49MOL   C52133257   1.567   5.745   6.374 -0.2629  0.3183 -0.2386
   49MOL   C52233258   1.435   5.771   6.397  0.2798 -0.5509  0.7058
   49MOL   C52333259   1.370   5.725   6.516  0.4044  0.0290  0.2079
   49MOL   C52433260   1.440   5.658   6.613  0.6822  0.3472 -0.3230
   49MOL   O52533261   1.383   5.632   6.734  0.0674 -0.0709 -0.3245
   49MOL   C52633262   1.371   5.501   6.778 -0.3823  0.1551 -0.0021
   49MOL   C52733263   1.422   5.464   6.908  0.5475 -0.1956  0.7096
   49MOL   C52833264   1.415   5.334   6.961 -0.5082 -0.2708  0.7581
   49MOL   C52933265   1.354   5.235   6.879 -0.1245  0.6740 -0.2357
   49MOL   C53033266   1.307   5.268   6.753  0.3074 -0.1846  0.5056
   49MOL   C53133267   1.306   5.400   6.704 -0.0703 -0.1737 -0.5290
   49MOL   C53233268   1.571   5.619   6.584 -0.9459  0.8080  0.2399
   49MOL   C53333269   1.638   5.667   6.469  0.2030  0.6405 -0.5110
   49MOL   H53433270   1.716   5.875   6.015  1.6918  2.4653 -1.5129
   49MOL   H53533271   1.735   6.097   5.929 -0.8606 -0.6605 -1.0276
   49MOL   H53633272   1.607   6.250   6.309  0.3007  0.7925 -0.6039
   49MOL   H53733273   1.574   6.031   6.388  0.6182  1.3153  0.4669
   49MOL   H53833274   1.378   5.830   6.327  0.0915 -0.6876  0.7467
   49MOL   H53933275   1.265   5.746   6.528  0.1499 -0.5885 -0.8240
   49MOL   H54033276   1.481   5.535   6.964  0.6561 -0.6759  1.2099
   49MOL   H54133277   1.449   5.317   7.062  2.1706  2.6573  0.4276
   49MOL   H54233278   1.270   5.190   6.689 -1.2727  0.7377  0.2672
   49MOL   H54333279   1.278   5.426   6.603 -0.1876  1.4765 -0.0806
   49MOL   H54433280   1.629   5.573   6.663  0.6092  0.3975 -1.0999
   49MOL   H54533281   1.741   5.639   6.454  0.1370  0.2539 -0.2614
   49MOL   C54633282   1.649   4.951   7.041  0.6324  0.5877 -0.4420
   49MOL   C54733283   1.542   5.043   7.029 -0.2943 -0.2059 -0.4225
   49MOL   C54833284   1.441   5.021   6.932  0.1059 -0.1645 -0.2540
   49MOL   O54933285   1.334   5.109   6.929 -0.2625  0.1524  0.2888
   49MOL   C55033286   1.454   4.911   6.843 -0.6184 -0.4483  0.2255
   49MOL   C55133287   1.562   4.821   6.854 -0.7846 -1.0597 -0.6519
   49MOL   C55233288   1.659   4.840   6.957 -0.0247  1.1139 -0.2266
   49MOL   C55333289   1.763   4.737   6.972 -0.4997 -0.5350  0.0516
   49MOL   O55433290   1.757   4.625   6.914 -0.5469  0.1889 -0.4118
   49MOL   C55533291   1.888   4.775   7.038  0.0479  0.9622  0.3243
   49MOL   C55633292   1.966   4.869   6.970  0.1293 -0.1673  0.4354
   49MOL   C55733293   2.091   4.905   7.025 -0.4026  0.0601  0.4182
   49MOL   C55833294   2.140   4.852   7.148 -0.5306  0.2642  0.2300
   49MOL   O55933295   2.263   4.882   7.204  0.1894  0.4189 -0.2577
   49MOL   C56033296   2.369   4.867   7.122  0.2225 -0.3862  0.1036
   49MOL   C56133297   2.415   4.739   7.093  0.7020 -0.4669 -0.6288
   49MOL   C56233298   2.530   4.729   7.008 -0.3369 -0.6983 -0.6358
   49MOL   C56333299   2.595   4.847   6.967  0.1063 -0.4743  0.2407
   49MOL   C56433300   2.562   4.971   7.017  0.0491  0.1320 -0.0895
   49MOL   C56533301   2.446   4.982   7.090 -0.0430  0.3676 -0.5006
   49MOL   C56633302   2.055   4.766   7.219  0.3082  0.9128  0.1236
   49MOL   C56733303   1.932   4.728   7.161 -0.4910  0.4971 -0.3793
   49MOL   H56833304   1.715   4.961   7.126 -0.5470  2.1723  0.3210
   49MOL   H56933305   1.534   5.123   7.101  2.2755  0.2006 -0.5611
   49MOL   H57033306   1.378   4.886   6.770  0.2386 -1.3691 -0.3605
   49MOL   H57133307   1.569   4.736   6.788  0.8260  0.0508 -1.9328
   49MOL   H57233308   1.937   4.917   6.878  0.2502 -1.4453 -0.2779
   49MOL   H57333309   2.152   4.980   6.977  1.5950 -2.3475 -0.9228
   49MOL   H57433310   2.359   4.649   7.114  1.9633 -1.4233 -1.2970
   49MOL   H57533311   2.570   4.636   6.969 -0.0327 -0.9376  0.2281
   49MOL   H57633312   2.608   5.066   6.995 -0.0624 -0.4587 -3.1893
   49MOL   H57733313   2.410   5.076   7.130  2.6782  1.7704 -1.2478
   49MOL   H57833314   2.090   4.735   7.316  0.9008  0.5227 -0.2145
   49MOL   H57933315   1.872   4.652   7.209 -0.0896 -0.3985 -1.2717
   49MOL   C58033316   2.967   4.633   6.771  0.2943  0.6795  0.0838
   49MOL   C58133317   2.848   4.695   6.772  0.3832  0.6975 -0.1726
   49MOL   C58233318   2.808   4.772   6.881 -0.4534  0.1557 -0.3509
   49MOL   O58333319   2.693   4.840   6.868 -0.5493 -0.1012 -0.0202
   49MOL   C58433320   2.895   4.785   6.993 -0.1533 -0.5726 -0.1323
   49MOL   C58533321   3.022   4.722   6.991  0.4305  0.8715  0.0312
   49MOL   C58633322   3.063   4.644   6.877  0.0158 -0.2442  0.3392
   49MOL   C58733323   3.193   4.570   6.872 -0.7964 -0.4699 -0.5091
   49MOL   O58833324   3.204   4.453   6.837  0.1470  0.5315 -0.0159
   49MOL   C58933325   3.309   4.650   6.913 -0.3839  0.0396  0.7433
   49MOL   C59033326   3.368   4.729   6.817  0.4076  0.4671 -0.8613
   49MOL   C59133327   3.461   4.827   6.857 -0.0285  0.2436 -0.2129
   49MOL   C59233328   3.512   4.838   6.989  0.4626 -0.2053  0.2097
   49MOL   O59333329   3.599   4.932   7.030  0.3599 -0.2479 -0.1520
   49MOL   C59433330   3.610   5.056   6.965 -0.5828  0.1507 -0.8104
   49MOL   C59533331   3.507   5.156   6.990 -0.1978  0.1837  0.1628
   49MOL   C59633332   3.496   5.268   6.906 -0.2223  0.0323  0.5521
   49MOL   C59733333   3.596   5.288   6.804 -0.1815 -0.0724 -0.4442
   49MOL   C59833334   3.697   5.190   6.783  0.3069 -0.3388  0.2180
   49MOL   C59933335   3.704   5.073   6.862  0.4160 -0.2164  0.5669
   49MOL   C60033336   3.445   4.752   7.084 -0.5212  0.3881  0.4405
   49MOL   C60133337   3.345   4.661   7.049  0.4529  0.4479 -0.0752
   49MOL   H60233338   2.989   4.574   6.683  1.6083  0.0699  0.8216
   49MOL   H60333339   2.782   4.679   6.688 -1.5820 -1.9444  1.8003
   49MOL   H60433340   2.870   4.856   7.070  2.5847  2.1165 -1.5965
   49MOL   H60533341   3.093   4.728   7.072  1.2632  1.1712 -0.7129
   49MOL   H60633342   3.329   4.715   6.718 -2.6513 -2.4523  0.6781
   49MOL   H60733343   3.503   4.885   6.776 -0.7501  0.4956 -0.4104
   49MOL   H60833344   3.441   5.136   7.072  2.1045 -1.6069  1.6468
   49MOL   H60933345   3.413   5.336   6.918  0.9524  2.1159 -2.4960
   49MOL   H61033346   3.775   5.211   6.711 -0.2460 -2.4679 -1.0338
   49MOL   H61133347   3.775   4.993   6.846  0.3763 -0.6091  2.2599
   49MOL   H61233348   3.479   4.763   7.186  1.9515  1.3977 -0.4678
   49MOL   H61333349   3.304   4.593   7.122  1.1858  2.0873  1.9350
   49MOL   C61433350   3.877   5.646   6.763  0.5997 -0.0134  0.3727
   49MOL   C61533351   3.797   5.546   6.705 -0.0322  0.2658 -0.1973
   49MOL   C61633352   3.673   5.503   6.764 -0.5697  0.1454 -0.4839
   49MOL   O61733353   3.593   5.397   6.725 -0.5183  0.4120  0.5054
   49MOL   C61833354   3.627   5.578   6.871 -0.1073 -0.3285 -0.3742
   49MOL   C61933355   3.712   5.669   6.933 -0.1090 -0.5065  0.1398
   49MOL   C62033356   3.838   5.702   6.880 -0.3599 -0.2189 -0.9312
   49MOL   C62133357   3.929   5.802   6.941 -0.3335 -0.7619 -0.2055
   49MOL   O62233358   3.961   5.902   6.873  0.0133  0.6125 -0.2235
   49MOL   C62333359   3.995   5.779   7.071 -0.3601 -0.2483  0.5677
   49MOL   C62433360   3.995   5.658   7.134 -0.2251  0.6873  0.1223
   49MOL   C62533361   4.042   5.645   7.266  0.1310  0.3712  0.7369
   49MOL   C62633362   4.085   5.761   7.334  0.6398 -0.3886 -0.2339
   49MOL   O62733363   4.120   5.750   7.462 -0.0224  0.6551  0.3620
   49MOL   C62833364   4.034   5.804   7.552  0.2489  0.1805 -0.4156
   49MOL   C62933365   3.929   5.728   7.607  0.3934  0.4847 -0.6379
   49MOL   C63033366   3.842   5.789   7.697 -0.0687 -0.1565 -0.2288
   49MOL   C63133367   3.861   5.927   7.735 -0.2364 -0.0292  0.1971
   49MOL   C63233368   3.970   5.998   7.679 -0.5839  0.3353 -0.8038
   49MOL   C63333369   4.061   5.930   7.598 -0.8186  0.0782  0.0789
   49MOL   C63433370   4.090   5.885   7.270 -0.1298 -0.2982  0.5153
   49MOL   C63533371   4.047   5.890   7.139  0.1662 -0.4402 -0.3519
   49MOL   H63633372   3.967   5.673   6.709  1.2268 -0.2313  1.3104
   49MOL   H63733373   3.828   5.480   6.626 -1.8386 -0.0395 -0.6683
   49MOL   H63833374   3.533   5.546   6.914  0.3396  0.7744  1.4507
   49MOL   H63933375   3.669   5.732   7.010 -0.7846  0.9620 -1.4078
   49MOL   H64033376   3.970   5.569   7.078 -1.6559  1.4468 -0.4805
   49MOL   H64133377   4.052   5.547   7.311  0.3974 -0.4098 -0.9648
   49MOL   H64233378   3.925   5.623   7.586 -0.8798  0.5652 -0.8281
   49MOL   H64333379   3.761   5.736   7.744 -0.7431  1.2492  0.2252
   49MOL   H64433380   3.984   6.102   7.706  0.9960  0.0984 -0.6608
   49MOL   H64533381   4.145   5.989   7.566 -0.3534 -0.1338  0.9142
   49MOL   H64633382   4.112   5.977   7.323  1.5785 -1.3387  1.6656
   49MOL   H64733383   4.045   5.987   7.093  1.6941 -1.3940 -2.4958
   49MOL   C64833384   3.448   5.893   7.937  0.2453 -0.9406 -0.1749
   49MOL   C64933385   3.584   5.917   7.928  0.4274 -0.4476  0.0318
   49MOL   C65033386   3.645   5.968   7.812 -0.0808  0.2017  0.3373
   49MOL   O65133387   3.784   5.996   7.817  0.4551 -0.1202 -0.0395
   49MOL   C65233388   3.558   6.004   7.707 -0.2021  0.4559 -0.0948
   49MOL   C65333389   3.420   5.967   7.709  0.6757 -0.4585  0.1271
   49MOL   C65433390   3.368   5.904   7.822  0.4106 -0.3466  0.4264
   49MOL   C65533391   3.220   5.860   7.816  0.1226 -0.4981 -0.3859
   49MOL   O65633392   3.145   5.884   7.908  0.3138 -0.2158 -0.3901
   49MOL   C65733393   3.171   5.792   7.693  0.2686  0.0056 -0.3316
   49MOL   C65833394   3.256   5.699   7.622  0.2774  0.4315  0.6140
   49MOL   C65933395   3.210   5.622   7.519 -0.1758  0.4768 -0.2941
   49MOL   C66033396   3.076   5.636   7.474 -0.1365 -0.5801 -0.1925
   49MOL   O66133397   3.034   5.561   7.362 -0.7485  0.1665 -0.3700
   49MOL   C66233398   3.070   5.616   7.244 -0.7505 -0.3068  0.3223
   49MOL   C66333399   3.008   5.745   7.207 -0.7024 -0.3897  0.3754
   49MOL   C66433400   3.053   5.813   7.095 -0.3124 -0.1075 -0.0940
   49MOL   C66533401   3.155   5.759   7.017  0.4542  0.0505  0.4385
   49MOL   C66633402   3.214   5.638   7.051 -0.5332 -0.2915 -0.0800
   49MOL   C66733403   3.168   5.564   7.161  1.0352  0.8475 -0.0699
   49MOL   C66833404   2.986   5.735   7.539 -0.1699  0.2009 -0.1996
   49MOL   C66933405   3.038   5.805   7.652 -0.3499  0.4763 -0.2733
   49MOL   H67033406   3.413   5.859   8.033  3.0535 -1.1271  0.8297
   49MOL   H67133407   3.646   5.882   8.009  0.0896 -0.0747  0.4510
   49MOL   H67233408   3.608   6.054   7.625 -1.3840  0.7735 -0.6424
   49MOL   H67333409   3.359   5.984   7.622 -0.3436  3.1595  1.4724
   49MOL   H67433410   3.362   5.684   7.641  0.4633 -0.5394 -1.0447
   49MOL   H67533411   3.272   5.551   7.466 -0.1240 -0.1917  0.6546
   49MOL   H67633412   2.929   5.790   7.265 -1.0940 -0.8537  0.2034
   49MOL   H67733413   3.011   5.905   7.057 -1.2631 -0.0352  1.0757
   49MOL   H67833414   3.288   5.598   6.982  1.4784 -1.8999  2.9222
   49MOL   H67933415   3.213   5.470   7.188  2.6633  0.7380 -2.9648
   49MOL   H68033416   2.889   5.761   7.501 -0.6116  0.5245  1.1305
   49MOL   H68133417   2.980   5.877   7.707 -1.4593  1.4932 -2.7215
   49MOL   H68233418   3.182   5.824   6.934 -0.7880 -1.6671 -1.3705
   50MOL     C133419   3.282   1.267   7.620 -0.8679 -0.0968 -0.4601
   50MOL     C233420   3.401   1.334   7.583 -0.1271  0.4684 -0.8357
   50MOL     C333421   3.393   1.433   7.481 -0.1039  1.1510  0.3422
   50MOL     O433422   3.508   1.497   7.446 -0.0241  0.4909  0.9304
   50MOL     C533423   3.269   1.463   7.417  0.5887  0.1165  0.2828
   50MOL     C633424   3.156   1.393   7.459 -0.6501 -0.5112 -0.2461
   50MOL     C733425   3.161   1.297   7.565  0.1616 -1.2475  0.8544
   50MOL     C833426   3.036   1.230   7.605 -0.1973 -0.5520  0.4038
   50MOL     O933427   3.009   1.124   7.553  0.6388  0.4541  0.0643
   50MOL    C1033428   2.936   1.295   7.700 -1.1098  0.2151 -0.0968
   50MOL    C1133429   2.962   1.423   7.747  0.2993 -0.6843 -0.7094
   50MOL    C1233430   2.868   1.494   7.826  0.0084 -0.4486 -0.4522
   50MOL    C1333431   2.744   1.427   7.854 -0.0375  0.9756  0.6997
   50MOL    O1433432   2.641   1.481   7.932 -0.3337 -0.2855  0.5327
   50MOL    C1533433   2.662   1.596   7.995  0.1925  0.0397  0.1175
   50MOL    C1633434   2.596   1.721   7.958 -0.3612  0.4133  0.3808
   50MOL    C1733435   2.619   1.838   8.025 -0.7779  0.1102 -0.5039
   50MOL    C1833436   2.710   1.841   8.136  0.8080  0.8376  0.2636
   50MOL    C1933437   2.774   1.717   8.170  0.1505 -0.0656  0.5668
   50MOL    C2033438   2.748   1.595   8.107  0.1376 -0.8290  0.3700
   50MOL    C2133439   2.721   1.292   7.815  0.5659 -0.6245 -0.4013
   50MOL    C2233440   2.812   1.228   7.727  0.0707  0.4220  0.2085
   50MOL    H2333441   3.288   1.192   7.698 -1.5963  1.9071  1.5595
   50MOL    H2433442   3.494   1.305   7.629 -1.0077 -0.9079  0.1106
   50MOL    H2533443   3.263   1.536   7.337 -1.0236  0.9000  1.0929
   50MOL    H2633444   3.057   1.408   7.417 -0.5535 -0.8842 -0.6131
   50MOL    H2733445   3.044   1.482   7.709 -0.2317  0.1210 -0.6015
   50MOL    H2833446   2.882   1.596   7.860 -2.6190 -0.6642  1.4776
   50MOL    H2933447   2.538   1.715   7.867  2.0390 -0.8220 -1.1133
   50MOL    H3033448   2.566   1.931   8.009 -1.0647  0.0032 -0.2054
   50MOL    H3133449   2.847   1.722   8.249  0.2571  0.7281  0.4228
   50MOL    H3233450   2.799   1.504   8.136  0.2302 -0.9332 -0.1187
   50MOL    H3333451   2.627   1.248   7.847 -0.8139  1.6013 -1.2604
   50MOL    H3433452   2.798   1.126   7.694 -0.2976  0.8406 -0.9542
   50MOL    H3533453   3.495   1.557   7.375 -0.2153 -1.4757 -0.7373
   50MOL    C3633454   2.827   1.940   0.233 -0.2847  0.3764 -0.2180
   50MOL    C3733455   2.743   1.945   0.121 -0.1787  0.0434  0.3642
   50MOL    C3833456   2.813   1.968   8.312  0.1668  0.1630 -0.1456
   50MOL    O3933457   2.739   1.962   8.198 -0.1995 -0.6990 -0.1787
   50MOL    C4033458   2.950   1.993   8.306  0.8111  0.5063 -0.2663
   50MOL    C4133459   3.027   1.983   0.114  0.0317 -0.8471 -0.2501
   50MOL    C4233460   2.965   1.959   0.238 -0.0579  0.1579  0.3835
   50MOL    C4333461   3.047   1.921   0.355  0.1827 -0.2621 -0.1445
   50MOL    O4433462   2.998   1.850   0.445 -0.0902  0.2449  0.2499
   50MOL    C4533463   3.185   1.976   0.371  0.2621 -0.2191  0.6435
   50MOL    C4633464   3.279   1.893   0.436 -0.1273 -0.2424 -1.0317
   50MOL    C4733465   3.409   1.936   0.468 -0.1525  0.5787 -0.2059
   50MOL    C4833466   3.442   2.067   0.449  0.1591  0.1651  0.1546
   50MOL    O4933467   3.561   2.117   0.494  0.3098  0.3731 -0.1366
   50MOL    C5033468   3.648   2.178   0.406  0.1169  0.2509 -0.4764
   50MOL    C5133469   3.699   2.113   0.289  0.2071  0.2892 -0.1141
   50MOL    C5233470   3.774   2.193   0.199  0.1279 -0.0710 -0.1012
   50MOL    C5333471   3.814   2.325   0.226  0.2313  0.1444 -0.4945
   50MOL    C5433472   3.767   2.382   0.348  0.6733 -0.4336 -1.0277
   50MOL    C5533473   3.688   2.307   0.436  0.0549  0.3638 -0.2481
   50MOL    C5633474   3.351   2.151   0.380 -0.3587 -0.0329  0.4188
   50MOL    C5733475   3.227   2.104   0.341  0.1334  0.2848  0.6757
   50MOL    H5833476   2.784   1.916   0.328  2.0284 -2.6486  0.1323
   50MOL    H5933477   2.636   1.927   0.125 -0.0619 -1.0579 -0.9077
   50MOL    H6033478   3.001   2.001   8.211  1.8589  0.4663  0.2766
   50MOL    H6133479   3.132   2.001   0.099 -0.1003  0.5784  0.4080
   50MOL    H6233480   3.246   1.792   0.456  0.8338 -0.4683 -0.5841
   50MOL    H6333481   3.480   1.863   0.506 -1.8753 -1.8388 -1.5224
   50MOL    H6433482   3.663   2.016   0.258  1.3628 -0.0046 -0.5667
   50MOL    H6533483   3.818   2.144   0.114 -0.5585  0.4996 -0.7850
   50MOL    H6633484   3.795   2.485   0.366  0.7671 -0.3210 -1.7713
   50MOL    H6733485   3.661   2.351   0.531  0.5195  1.3341 -0.5614
   50MOL    H6833486   3.377   2.253   0.359 -1.1717  0.3949  1.4205
   50MOL    H6933487   3.156   2.169   0.291 -0.0445 -0.3045  0.1587
   50MOL    C7033488   3.830   2.726   8.301  0.0767 -0.0673  0.4865
   50MOL    C7133489   3.882   2.624   0.072 -0.1394  0.3792  0.3056
   50MOL    C7233490   3.837   2.490   0.054 -0.1492 -0.2611 -0.5335
   50MOL    O7333491   3.885   2.392   0.131 -0.2127 -0.0572  0.5423
   50MOL    C7433492   3.753   2.453   8.264  0.4896  0.1609  0.0182
   50MOL    C7533493   3.704   2.552   8.179 -0.1257  0.4161  0.0296
   50MOL    C7633494   3.736   2.688   8.198 -0.0186 -0.0114  0.0667
   50MOL    C7733495   3.680   2.794   8.108 -1.0591  0.4409  0.6699
   50MOL    O7833496   3.749   2.891   8.082 -0.1805 -0.1183 -0.4108
   50MOL    C7933497   3.533   2.791   8.062 -0.6974  0.1195 -0.2092
   50MOL    C8033498   3.510   2.873   7.947  0.0356 -0.3842 -0.3150
   50MOL    C8133499   3.384   2.859   7.883  0.7558 -0.5292  0.4044
   50MOL    C8233500   3.283   2.761   7.924  0.5394 -0.0921  0.3820
   50MOL    O8333501   3.157   2.750   7.868 -0.2759  0.1887  0.3723
   50MOL    C8433502   3.095   2.868   7.827 -0.4746  0.0150  0.5316
   50MOL    C8533503   3.065   2.875   7.687 -0.3903 -0.0599 -0.2831
   50MOL    C8633504   2.990   2.980   7.632 -0.4994  0.2812 -0.1062
   50MOL    C8733505   2.945   3.087   7.715  0.8751 -0.2659  0.2119
   50MOL    C8833506   2.969   3.072   7.853 -0.9651  0.1574 -0.8629
   50MOL    C8933507   3.043   2.965   7.911  0.0674  0.6904  0.6532
   50MOL    C9033508   3.310   2.686   8.041 -0.3296 -0.2224 -0.3608
   50MOL    C9133509   3.438   2.692   8.102  0.4111 -0.4215  0.6026
   50MOL    H9233510   3.866   2.828   8.310  0.0978 -0.0255 -0.0557
   50MOL    H9333511   3.964   2.645   0.139  0.3040  1.5577 -0.5877
   50MOL    H9433512   3.723   2.352   8.242  1.1154 -0.3403  1.3651
   50MOL    H9533513   3.643   2.520   8.096 -1.3649  0.9504  0.7264
   50MOL    H9633514   3.581   2.939   7.899 -1.0531  1.0196 -0.0056
   50MOL    H9733515   3.369   2.920   7.795  2.0559 -1.6008 -0.5917
   50MOL    H9833516   3.100   2.796   7.622  0.3859  0.2361 -0.2313
   50MOL    H9933517   2.971   2.985   7.525  1.7361  0.8334 -0.5193
   50MOL   H10033518   2.939   3.153   7.917  3.1652  0.4354  0.9027
   50MOL   H10133519   3.062   2.959   8.017 -0.1615  1.6163  0.7597
   50MOL   H10233520   3.244   2.609   8.075 -2.5481  1.0299 -1.6823
   50MOL   H10333521   3.464   2.624   8.182 -2.6563 -1.8490  0.4449
   50MOL   C10433522   2.695   3.253   7.351 -0.3666  1.0027  0.3907
   50MOL   C10533523   2.723   3.195   7.475  1.1351  0.3293 -1.2302
   50MOL   C10633524   2.850   3.221   7.537 -0.3427  0.0359  0.2132
   50MOL   O10733525   2.876   3.195   7.671 -1.1139  0.5000 -0.0893
   50MOL   C10833526   2.949   3.292   7.470 -0.1927 -0.1407  0.1071
   50MOL   C10933527   2.922   3.343   7.340 -0.5055 -0.3875  0.3470
   50MOL   C11033528   2.794   3.325   7.280 -0.5482  0.2407 -0.0456
   50MOL   C11133529   2.768   3.381   7.136  0.0480 -0.5917  0.1058
   50MOL   O11233530   2.827   3.337   7.038 -0.3523 -0.2112 -0.1917
   50MOL   C11333531   2.681   3.500   7.125  0.0165 -0.5218 -0.3558
   50MOL   C11433532   2.636   3.569   7.243  0.1306  0.2210 -1.0901
   50MOL   C11533533   2.549   3.683   7.233 -0.1391 -0.5437  0.0726
   50MOL   C11633534   2.520   3.740   7.108 -0.0891 -0.7939  0.4123
   50MOL   O11733535   2.446   3.856   7.102  0.3845  0.1730  0.6416
   50MOL   C11833536   2.319   3.846   7.049  0.1994  0.0040 -0.5252
   50MOL   C11933537   2.291   3.938   6.946  0.1562  0.4449  0.8508
   50MOL   C12033538   2.169   3.945   6.880 -0.1127  0.4586 -0.3679
   50MOL   C12133539   2.064   3.862   6.929  0.0070 -0.4832 -0.1063
   50MOL   C12233540   2.090   3.763   7.029 -0.0531  0.4613  0.2398
   50MOL   C12333541   2.212   3.755   7.087  0.3837 -0.0833 -0.7724
   50MOL   C12433542   2.563   3.673   6.998  0.6594  0.0908 -0.9110
   50MOL   C12533543   2.645   3.555   7.002 -0.4079  0.0921  0.0908
   50MOL   H12633544   2.599   3.228   7.310  0.3921 -0.5058 -0.5011
   50MOL   H12733545   2.639   3.155   7.530  0.4032  0.7080 -2.0500
   50MOL   H12833546   3.048   3.304   7.511  0.2023  1.9474 -1.3993
   50MOL   H12933547   2.998   3.398   7.287 -1.6534  0.0692 -0.8866
   50MOL   H13033548   2.662   3.526   7.338  1.3637  1.0340 -1.0514
   50MOL   H13133549   2.505   3.721   7.324  1.3818  1.7102 -0.0933
   50MOL   H13233550   2.362   4.009   6.907  0.1122  0.2530  0.4114
   50MOL   H13333551   2.150   4.012   6.797  1.1785  1.7111  0.3194
   50MOL   H13433552   2.008   3.700   7.060  1.6513 -0.4988  3.0098
   50MOL   H13533553   2.223   3.693   7.174 -0.2853  1.8995  0.7655
   50MOL   H13633554   2.541   3.724   6.905  1.5021  1.1772 -0.5257
   50MOL   H13733555   2.676   3.505   6.911  1.3088  0.1110  0.6690
   50MOL   C13833556   1.715   4.088   7.101  0.1349  0.7106  0.4935
   50MOL   C13933557   1.794   3.976   7.061  0.1536 -0.2417  0.0931
   50MOL   C14033558   1.862   3.979   6.938  0.7471 -0.2137  0.8088
   50MOL   O14133559   1.935   3.879   6.883 -0.1952  0.0563  0.0946
   50MOL   C14233560   1.847   4.091   6.860 -0.2167 -0.0525 -0.4488
   50MOL   C14333561   1.767   4.206   6.899  0.1205 -0.1189  0.1739
   50MOL   C14433562   1.706   4.205   7.024  0.4764  0.1135 -0.1752
   50MOL   C14533563   1.634   4.323   7.082  0.2593 -0.4389 -0.4338
   50MOL   O14633564   1.672   4.375   7.189  0.0009  0.2762 -0.5270
   50MOL   C14733565   1.527   4.385   7.001 -0.0819  0.3709 -0.1762
   50MOL   C14833566   1.483   4.518   7.033  0.0587 -0.9037 -0.3515
   50MOL   C14933567   1.374   4.571   6.973 -0.6160 -0.1362  0.0820
   50MOL   C15033568   1.314   4.502   6.866 -0.5255  0.0165 -0.1223
   50MOL   O15133569   1.215   4.559   6.799  1.0449 -0.6850 -0.4108
   50MOL   C15233570   1.085   4.537   6.839 -0.8142 -0.6867 -1.2057
   50MOL   C15333571   0.998   4.647   6.870 -0.2092 -0.3900 -0.5958
   50MOL   C15433572   0.863   4.621   6.891  0.5326  0.0932  0.2805
   50MOL   C15533573   0.815   4.492   6.915 -0.4722  0.3947  0.1404
   50MOL   C15633574   0.902   4.380   6.906 -0.0101 -0.0273  0.2924
   50MOL   C15733575   1.032   4.410   6.869 -0.0824  0.0982  0.2070
   50MOL   C15833576   1.360   4.374   6.822 -0.5100  0.1288 -0.1151
   50MOL   C15933577   1.458   4.315   6.897  0.0988  0.0388 -0.6819
   50MOL   H16033578   1.672   4.072   7.199 -1.9951 -1.8577 -0.8054
   50MOL   H16133579   1.803   3.892   7.128  3.2161  0.5942  0.8224
   50MOL   H16233580   1.905   4.085   6.768 -2.0548 -1.5814 -1.5423
   50MOL   H16333581   1.763   4.292   6.834  1.6483  1.0687  1.6205
   50MOL   H16433582   1.532   4.558   7.121  0.9551 -1.7050 -0.4702
   50MOL   H16533583   1.338   4.670   6.998 -1.8641 -0.6876  0.4836
   50MOL   H16633584   1.025   4.750   6.850  1.8184 -0.3601  2.0244
   50MOL   H16733585   0.802   4.708   6.906 -0.8205 -0.7909  0.0084
   50MOL   H16833586   0.860   4.281   6.907  1.6223 -0.7991 -2.7614
   50MOL   H16933587   1.087   4.318   6.854  0.0135  0.2827 -0.6369
   50MOL   H17033588   1.318   4.341   6.728 -0.8102  1.5972 -0.5099
   50MOL   H17133589   1.496   4.219   6.865  2.1324  0.1386  1.3202
   50MOL   C17233590   0.665   4.417   7.309  0.1434 -0.1399  0.2444
   50MOL   C17333591   0.721   4.444   7.182 -0.6703  0.0815  0.5265
   50MOL   C17433592   0.635   4.443   7.073  0.6275  0.4166 -0.2141
   50MOL   O17533593   0.683   4.468   6.945  0.2402 -0.3607 -0.5787
   50MOL   C17633594   0.499   4.420   7.088  0.4105 -0.0809 -0.1041
   50MOL   C17733595   0.435   4.412   7.214 -0.8612  0.4922 -0.4127
   50MOL   C17833596   0.522   4.404   7.332 -0.1079 -0.2600 -0.1247
   50MOL   C17933597   0.468   4.376   7.468  0.4707  0.1469  0.3619
   50MOL   O18033598   0.352   4.337   7.485  0.6569 -0.0121 -0.1700
   50MOL   C18133599   0.554   4.390   7.589 -0.0478 -0.4537 -0.1405
   50MOL   C18233600   0.539   4.292   7.695  0.3292  1.0785 -0.2192
   50MOL   C18333601   0.620   4.303   7.807 -0.2008  0.5135  0.3864
   50MOL   C18433602   0.722   4.400   7.810  0.4121  0.6960 -1.2369
   50MOL   O18533603   0.794   4.403   7.929  0.3188  0.0473  0.3845
   50MOL   C18633604   0.918   4.465   7.922  0.1358 -0.3078 -0.6461
   50MOL   C18733605   1.035   4.401   7.879 -0.3477  0.3145  0.0716
   50MOL   C18833606   1.160   4.468   7.890  0.5559 -0.6884  0.1327
   50MOL   C18933607   1.167   4.597   7.945 -0.0626 -0.3047  0.0067
   50MOL   C19033608   1.050   4.660   7.992  0.1953  0.0294  0.1262
   50MOL   C19133609   0.927   4.596   7.976 -0.0015 -0.0046 -0.0271
   50MOL   C19233610   0.731   4.498   7.710 -0.7211 -0.3939 -0.2528
   50MOL   C19333611   0.645   4.496   7.599  0.1656 -0.1650 -0.4954
   50MOL   H19433612   0.730   4.398   7.393 -0.1182  0.6549  0.6278
   50MOL   H19533613   0.828   4.443   7.170 -0.7270  1.8534 -0.3227
   50MOL   H19633614   0.432   4.422   7.004  0.3124 -2.0728 -0.1137
   50MOL   H19733615   0.328   4.424   7.218 -0.7202  1.1199  2.2700
   50MOL   H19833616   0.452   4.229   7.692  2.1357 -1.5493  0.8256
   50MOL   H19933617   0.604   4.226   7.880  0.4198 -0.8981 -0.9485
   50MOL   H20033618   1.029   4.298   7.848 -0.9208  0.2782  0.3090
   50MOL   H20133619   1.251   4.427   7.848 -0.1453 -0.5371 -1.5594
   50MOL   H20233620   1.056   4.756   8.041 -1.1117  0.7374 -1.0737
   50MOL   H20333621   0.847   4.649   8.027  1.4517  0.5543  1.7261
   50MOL   H20433622   0.798   4.582   7.715  0.8496 -1.7055  0.8865
   50MOL   H20533623   0.640   4.582   7.534  1.7761 -0.1863 -0.6532
   50MOL   C20633624   1.597   4.591   7.777 -0.6463 -0.0168  0.2569
   50MOL   C20733625   1.498   4.594   7.878  0.3391  0.1065  0.0232
   50MOL   C20833626   1.369   4.646   7.852  0.5667  0.8147  0.1425
   50MOL   O20933627   1.284   4.669   7.956  0.0015 -0.3728 -0.3209
   50MOL   C21033628   1.329   4.676   7.719 -0.7138 -0.6163 -0.1939
   50MOL   C21133629   1.431   4.668   7.617  0.6962 -0.1665 -0.0656
   50MOL   C21233630   1.560   4.634   7.643 -0.0533 -0.1485  0.8398
   50MOL   C21333631   1.664   4.640   7.530 -0.6256 -0.8831 -0.7056
   50MOL   O21433632   1.635   4.688   7.421 -0.0228 -0.3066 -0.0961
   50MOL   C21533633   1.792   4.585   7.551 -0.3665 -0.0682 -0.7044
   50MOL   C21633634   1.905   4.656   7.599  0.7613  0.3056 -0.3693
   50MOL   C21733635   2.029   4.592   7.616 -0.3355 -1.1026  0.6832
   50MOL   C21833636   2.046   4.453   7.579 -0.0551 -0.4710 -0.7242
   50MOL   O21933637   2.163   4.395   7.619  0.0701 -0.5146  0.3490
   50MOL   C22033638   2.181   4.378   7.751  0.8422 -0.6333  0.0882
   50MOL   C22133639   2.246   4.485   7.821 -0.9551 -0.6452  0.7399
   50MOL   C22233640   2.258   4.484   7.959  0.8977  0.2623 -0.4534
   50MOL   C22333641   2.218   4.365   8.031  0.6249  0.4719  0.1759
   50MOL   C22433642   2.156   4.261   7.956 -0.1687  0.1964  0.2641
   50MOL   C22533643   2.136   4.267   7.817 -0.6316 -0.1792  0.1341
   50MOL   C22633644   1.941   4.386   7.517 -0.0434 -0.3224  0.1984
   50MOL   C22733645   1.817   4.455   7.495 -0.4673  0.1622 -0.1246
   50MOL   H22833646   1.696   4.557   7.804 -0.4208  0.5940  0.2122
   50MOL   H22933647   1.530   4.578   7.980 -0.1221  3.0365  0.6678
   50MOL   H23033648   1.228   4.706   7.696 -0.5489  0.0102 -0.1112
   50MOL   H23133649   1.384   4.696   7.524 -1.0831 -0.1343  0.8153
   50MOL   H23233650   1.889   4.758   7.629 -1.8288 -1.0302  3.1423
   50MOL   H23333651   2.105   4.654   7.661 -0.7126  1.2958 -1.8444
   50MOL   H23433652   2.278   4.569   7.761 -0.5441  0.8058  2.9650
   50MOL   H23533653   2.294   4.571   8.012 -0.3498  1.5429 -1.6981
   50MOL   H23633654   2.108   4.175   8.000  1.2525 -1.9346 -2.2040
   50MOL   H23733655   2.090   4.185   7.765 -0.6448  0.7737 -1.3916
   50MOL   H23833656   1.954   4.283   7.486  1.6172  0.5057 -2.0204
   50MOL   H23933657   1.737   4.401   7.446  0.8918 -1.0840 -0.9989
   50MOL   C24033658   2.338   4.646   0.027 -0.6676  0.0734 -0.7581
   50MOL   C24133659   2.335   4.526   8.272 -0.1831  0.0215 -0.5580
   50MOL   C24233660   2.214   4.476   8.231  0.1559  0.4093  0.0137
   50MOL   O24333661   2.216   4.353   8.167  0.5079 -0.4643 -0.7148
   50MOL   C24433662   2.096   4.550   8.247  0.1667  0.2801  0.3810
   50MOL   C24533663   2.098   4.676   0.002 -0.7092  0.3652 -0.2352
   50MOL   C24633664   2.224   4.720   0.054 -0.4272 -0.6974 -0.3608
   50MOL   C24733665   2.249   4.862   0.112 -0.2852  0.5566  0.7726
   50MOL   O24833666   2.360   4.903   0.127 -0.6235 -0.7293 -0.3420
   50MOL   C24933667   2.139   4.949   0.148 -0.1138 -0.0437  0.3804
   50MOL   C25033668   2.030   4.891   0.208 -0.4052 -0.1585 -0.0073
   50MOL   C25133669   1.935   4.971   0.273 -0.1380  0.2319  0.5040
   50MOL   C25233670   1.942   5.109   0.264  0.0405 -1.1272  0.7390
   50MOL   O25333671   1.851   5.187   0.329 -0.2062 -0.3431  0.4502
   50MOL   C25433672   1.758   5.252   0.251 -0.2433 -1.1751 -0.5498
   50MOL   C25533673   1.731   5.390   0.278 -0.0639  0.1179  0.3963
   50MOL   C25633674   1.634   5.455   0.201  1.1461  0.0584 -0.1858
   50MOL   C25733675   1.564   5.380   0.107 -0.2257 -0.3154  0.3796
   50MOL   C25833676   1.582   5.242   0.092 -0.0436  0.5162 -0.1657
   50MOL   C25933677   1.678   5.174   0.163 -0.6517  0.2222  0.0055
   50MOL   C26033678   2.040   5.172   0.194  0.4208  0.3436  0.3932
   50MOL   C26133679   2.148   5.094   0.141 -0.2080  0.1054  0.3429
   50MOL   H26233680   2.432   4.675   0.073 -0.3084  0.1285 -1.5152
   50MOL   H26333681   2.429   4.476   8.257  0.3371  0.9895 -0.5748
   50MOL   H26433682   2.006   4.518   8.197 -0.5092  1.7493  0.6299
   50MOL   H26533683   2.017   4.748   8.312 -0.2412  0.8585 -1.4942
   50MOL   H26633684   2.026   4.784   0.227  1.5131 -0.1786  0.3267
   50MOL   H26733685   1.864   4.917   0.334  0.1935 -1.3972 -0.5037
   50MOL   H26833686   1.795   5.447   0.343  1.4561 -0.2119 -0.7936
   50MOL   H26933687   1.613   5.561   0.203 -0.4019 -0.2283 -0.4479
   50MOL   H27033688   1.518   5.192   0.021  0.6284 -1.6695  0.7368
   50MOL   H27133689   1.700   5.072   0.136 -0.1618  0.5933 -1.0123
   50MOL   H27233690   2.050   5.280   0.187  0.7669  0.2981  0.1178
   50MOL   H27333691   2.238   5.138   0.101 -0.2226  1.3826  1.6617
   50MOL   C27433692   1.123   5.325   8.301  0.3607 -0.2254  0.0730
   50MOL   C27533693   1.262   5.339   8.284  0.4704  0.7138  0.3034
   50MOL   C27633694   1.334   5.417   0.062  0.0013  0.8061  0.3894
   50MOL   O27733695   1.467   5.438   0.032  0.6320 -0.0749  0.4737
   50MOL   C27833696   1.276   5.462   0.177 -0.5614 -0.0980  0.7504
   50MOL   C27933697   1.139   5.451   0.194  0.5427  0.7387 -0.4421
   50MOL   C28033698   1.058   5.387   0.098  0.2999 -0.2613 -0.4544
   50MOL   C28133699   0.907   5.385   0.102 -0.2319  0.0474  0.4309
   50MOL   O28233700   0.851   5.402   8.309 -0.5095 -0.1559  0.1530
   50MOL   C28333701   0.836   5.363   0.237  0.9351 -0.1071  0.1943
   50MOL   C28433702   0.697   5.390   0.246  0.3981  0.1381  0.3927
   50MOL   C28533703   0.619   5.366   0.360 -0.0099 -0.5613 -0.6914
   50MOL   C28633704   0.677   5.309   0.474  0.7435 -0.1614  0.4577
   50MOL   O28733705   0.600   5.286   0.586 -0.0585 -0.5342  0.3495
   50MOL   C28833706   0.504   5.376   0.619  0.7473 -0.8751  0.4219
   50MOL   C28933707   0.535   5.490   0.693  0.4033  0.3716  0.7639
   50MOL   C29033708   0.436   5.584   0.728  0.5183  0.3748 -0.2018
   50MOL   C29133709   0.307   5.561   0.686 -1.0234  0.5933 -0.4424
   50MOL   C29233710   0.269   5.442   0.609 -0.8580 -0.2630  0.2682
   50MOL   C29333711   0.368   5.344   0.583  0.4571 -0.4574  0.3953
   50MOL   C29433712   0.816   5.270   0.473 -0.2073  0.3585  0.7999
   50MOL   C29533713   0.890   5.292   0.352  0.0959  0.4272  0.0135
   50MOL   H29633714   1.066   5.261   8.236 -0.9632 -0.3316  1.3096
   50MOL   H29733715   1.305   5.283   8.202 -0.6327 -1.9140  1.4505
   50MOL   H29833716   1.337   5.512   0.251  0.9288  1.9963 -1.8184
   50MOL   H29933717   1.097   5.490   0.285  2.0401 -0.2086  0.6935
   50MOL   H30033718   0.639   5.437   0.168  1.2225 -1.5150 -1.2596
   50MOL   H30133719   0.514   5.393   0.358 -0.1130 -0.8317  0.4705
   50MOL   H30233720   0.638   5.507   0.720  0.8865 -1.7740  0.3862
   50MOL   H30333721   0.470   5.670   0.783 -0.0606 -0.1433  0.9827
   50MOL   H30433722   0.167   5.421   0.580 -1.2431  1.8042  0.0200
   50MOL   H30533723   0.341   5.249   0.538 -2.6940  0.8931 -0.6834
   50MOL   H30633724   0.859   5.207   0.549  1.3089  0.7391  0.2819
   50MOL   H30733725   0.991   5.254   0.341  0.5937  1.5839  0.5093
   50MOL   C30833726   0.296   5.918   0.489  0.0502 -0.0175  0.2067
   50MOL   C30933727   0.281   5.791   0.540 -0.0192 -0.3622  0.2908
   50MOL   C31033728   0.217   5.774   0.666 -0.4342 -0.5231  0.2515
   50MOL   O31133729   0.209   5.651   0.718 -0.4115  0.0582 -1.2695
   50MOL   C31233730   0.184   5.890   0.739  0.4986 -0.2643 -0.3055
   50MOL   C31333731   0.182   6.019   0.678  0.1990  0.1554  0.0741
   50MOL   C31433732   0.240   6.029   0.552  0.0702 -0.1444  0.9464
   50MOL   C31533733   0.229   6.154   0.468 -0.1048  0.4561  0.7203
   50MOL   O31633734   0.123   6.219   0.462  0.4346  0.0969  0.0474
   50MOL   C31733735   0.355   6.210   0.407  0.2000  0.1223 -0.2542
   50MOL   C31833736   0.357   6.273   0.288  0.0169  0.1505 -0.0239
   50MOL   C31933737   0.478   6.325   0.228  0.5710  0.3964 -0.6584
   50MOL   C32033738   0.602   6.312   0.297 -0.5556 -0.5219  0.2772
   50MOL   O32133739   0.724   6.346   0.236  0.1033 -0.2056 -0.2473
   50MOL   C32233740   0.739   6.292   0.113 -0.2621 -0.3198  0.2770
   50MOL   C32333741   0.757   6.377   0.000  0.1384 -0.3902 -0.2396
   50MOL   C32433742   0.780   6.316   8.191 -0.2188 -0.3854  0.1368
   50MOL   C32533743   0.782   6.176   8.182  0.0167  0.0921  0.4012
   50MOL   C32633744   0.770   6.092   8.294 -0.5986  0.1324 -0.0457
   50MOL   C32733745   0.749   6.150   0.107 -0.9633  0.1837 -0.2402
   50MOL   C32833746   0.593   6.241   0.419  0.2389  0.4903 -0.5670
   50MOL   C32933747   0.475   6.188   0.474 -0.9036  0.4060 -0.0089
   50MOL   H33033748   0.354   5.923   0.398 -1.6402  2.5072 -0.7952
   50MOL   H33133749   0.325   5.710   0.485 -0.9489 -0.0231 -0.9546
   50MOL   H33233750   0.134   5.867   0.832 -0.8903  1.5369 -0.5674
   50MOL   H33333751   0.128   6.102   0.720  0.3659 -0.8166  2.2880
   50MOL   H33433752   0.264   6.302   0.240  0.5691  1.6364 -0.2272
   50MOL   H33533753   0.472   6.379   0.135  1.5446 -1.4315 -1.8101
   50MOL   H33633754   0.744   6.483   0.013 -3.2333 -0.7309 -0.4513
   50MOL   H33733755   0.798   6.375   8.102  3.0529  2.6592  2.7202
   50MOL   H33833756   0.773   5.984   8.291  1.0758  0.1513  0.6380
   50MOL   H33933757   0.741   6.090   0.196  1.7267  0.2029  0.0459
   50MOL   H34033758   0.683   6.213   0.471  0.0787 -2.6204 -1.8716
   50MOL   H34133759   0.479   6.119   0.557 -0.4513 -0.9879 -1.1693
   50MOL   C34233760   0.840   5.793   7.903  0.0551  0.2403  0.0515
   50MOL   C34333761   0.872   5.920   7.951  0.3860  0.1633  0.1123
   50MOL   C34433762   0.772   5.996   8.014  0.7600  0.4701  0.2330
   50MOL   O34533763   0.803   6.121   8.057 -0.1463  0.0663 -0.6332
   50MOL   C34633764   0.648   5.940   8.039  0.3206 -0.1588  0.3083
   50MOL   C34733765   0.616   5.814   7.983 -0.0626  0.4451  0.2792
   50MOL   C34833766   0.709   5.738   7.910  0.0825 -0.3123  0.2147
   50MOL   C34933767   0.667   5.615   7.835 -0.0563 -0.0806  0.5461
   50MOL   O35033768   0.580   5.619   7.751  0.2698 -0.1475 -0.2817
   50MOL   C35133769   0.753   5.496   7.854  0.0294  0.1177  0.5226
   50MOL   C35233770   0.763   5.396   7.750 -0.4901 -0.0699  0.5061
   50MOL   C35333771   0.861   5.300   7.762 -0.2902 -0.5212  0.1932
   50MOL   C35433772   0.947   5.287   7.874 -0.7900  0.4385  0.3874
   50MOL   O35533773   1.052   5.196   7.865 -0.2125  0.1473  0.5017
   50MOL   C35633774   1.038   5.074   7.803 -0.3055 -0.3952  0.4158
   50MOL   C35733775   0.926   4.990   7.841 -0.3123  0.3717 -0.4739
   50MOL   C35833776   0.893   4.881   7.754 -0.0915 -0.1212 -0.1504
   50MOL   C35933777   0.961   4.866   7.635  0.2735  0.0241  0.4943
   50MOL   C36033778   1.061   4.947   7.595 -0.3009 -0.0408 -0.7295
   50MOL   C36133779   1.106   5.049   7.681 -0.7247 -0.1373 -0.3588
   50MOL   C36233780   0.925   5.373   7.984 -0.3498  0.0390  1.0927
   50MOL   C36333781   0.838   5.485   7.970 -0.1622 -0.2748 -0.1765
   50MOL   H36433782   0.921   5.729   7.872  0.0124  0.3411 -0.2660
   50MOL   H36533783   0.975   5.951   7.953  1.0986 -1.8353 -2.3810
   50MOL   H36633784   0.572   5.989   8.099 -0.5721 -1.1292 -0.0040
   50MOL   H36733785   0.514   5.783   7.997 -0.0361 -0.2905 -1.1002
   50MOL   H36833786   0.689   5.412   7.673  1.6316  2.5474 -1.0722
   50MOL   H36933787   0.867   5.218   7.692  0.8306  0.4301 -0.8737
   50MOL   H37033788   0.876   5.004   7.935  0.4274  0.0391 -0.0244
   50MOL   H37133789   0.821   4.809   7.793  0.6287 -0.8284 -0.1240
   50MOL   H37233790   1.107   4.939   7.497  1.9191 -0.6533  0.3123
   50MOL   H37333791   1.184   5.109   7.638 -1.7423  0.2065 -1.7421
   50MOL   H37433792   0.993   5.377   8.067 -0.3550  0.9673  1.0637
   50MOL   H37533793   0.831   5.555   8.052 -0.2059  0.5081 -0.8409
   50MOL   C37633794   1.074   4.566   7.279  0.5839 -0.0034  0.1455
   50MOL   C37733795   0.985   4.657   7.343 -0.3216 -1.0324  0.8528
   50MOL   C37833796   0.982   4.674   7.481 -0.7905  0.0541 -0.4833
   50MOL   O37933797   0.907   4.776   7.539  0.5125  0.0676  0.1183
   50MOL   C38033798   1.065   4.595   7.558 -0.0859  0.5323 -0.2032
   50MOL   C38133799   1.143   4.491   7.500  0.6720 -0.7791  0.0267
   50MOL   C38233800   1.149   4.479   7.360  0.4649 -0.0460  0.5323
   50MOL   C38333801   1.239   4.375   7.295  0.2091  0.2057 -0.1609
   50MOL   O38433802   1.228   4.355   7.173 -0.1446  0.3770 -0.1275
   50MOL   C38533803   1.329   4.292   7.382  0.0727  0.6705  0.1025
   50MOL   C38633804   1.308   4.153   7.375 -0.2069  0.0044 -0.3263
   50MOL   C38733805   1.377   4.068   7.461  0.6634 -0.1312 -0.2316
   50MOL   C38833806   1.481   4.120   7.541  0.1858 -0.1915 -0.3682
   50MOL   O38933807   1.554   4.034   7.620 -0.8055 -0.5631  0.4238
   50MOL   C39033808   1.628   3.947   7.543 -0.8003 -0.2343 -0.0882
   50MOL   C39133809   1.738   3.992   7.466  0.2147 -0.1243 -0.7602
   50MOL   C39233810   1.814   3.899   7.387  0.7392 -0.2542  0.5771
   50MOL   C39333811   1.784   3.761   7.396  0.6525  0.1932  0.4966
   50MOL   C39433812   1.696   3.716   7.489  0.2318  0.1699  0.2284
   50MOL   C39533813   1.610   3.807   7.559  0.0194  0.4925 -0.3961
   50MOL   C39633814   1.508   4.262   7.548  0.7726  0.1844 -0.1983
   50MOL   C39733815   1.419   4.347   7.475  0.5281  0.3819  0.7563
   50MOL   H39833816   1.075   4.554   7.172  1.7086 -0.7239  0.2290
   50MOL   H39933817   0.923   4.718   7.280  1.3758 -1.6768 -1.4631
   50MOL   H40033818   1.048   4.597   7.665 -0.7976  2.8855 -0.3104
   50MOL   H40133819   1.187   4.416   7.564  1.6211  0.2295  0.5703
   50MOL   H40233820   1.239   4.101   7.310  0.3348 -1.6564  0.3849
   50MOL   H40333821   1.352   3.965   7.483 -0.6572  0.4131  0.9112
   50MOL   H40433822   1.752   4.099   7.467  0.7315 -0.1920 -0.3786
   50MOL   H40533823   1.890   3.932   7.318 -0.2056  0.0017 -0.3550
   50MOL   H40633824   1.675   3.610   7.496 -0.9619  0.4589  1.2422
   50MOL   H40733825   1.525   3.769   7.614  0.8402 -0.2318  0.3923
   50MOL   H40833826   1.585   4.294   7.617  0.3320 -2.9925  1.8585
   50MOL   H40933827   1.457   4.447   7.463 -3.0886  1.7510  0.0568
   50MOL   C41033828   2.150   3.586   7.540  0.5277  0.0807 -0.7552
   50MOL   C41133829   2.024   3.639   7.503 -1.0527  0.3684 -0.2259
   50MOL   C41233830   1.965   3.606   7.381  0.0159 -0.0335  0.4541
   50MOL   O41333831   1.859   3.667   7.323  0.0907  0.1640  0.0148
   50MOL   C41433832   2.032   3.512   7.302  0.1030 -1.6879  0.1928
   50MOL   C41533833   2.154   3.455   7.342 -0.4234 -0.0929  0.5322
   50MOL   C41633834   2.216   3.494   7.460  0.0928 -0.6754 -0.5715
   50MOL   C41733835   2.346   3.422   7.501  0.4758  0.5491 -0.0534
   50MOL   O41833836   2.374   3.312   7.459  0.1848 -0.3593  0.6840
   50MOL   C41933837   2.440   3.503   7.583  0.9369 -0.2779 -0.7900
   50MOL   C42033838   2.450   3.643   7.572 -0.2441  0.2265 -0.4593
   50MOL   C42133839   2.546   3.715   7.646 -1.1304  0.1782 -0.2070
   50MOL   C42233840   2.654   3.645   7.714  0.1313  0.4863 -0.4992
   50MOL   O42333841   2.759   3.719   7.760 -0.1954  0.4304 -0.4327
   50MOL   C42433842   2.735   3.821   7.845  0.8251  0.3526 -0.6343
   50MOL   C42533843   2.631   3.820   7.934  0.9092 -0.2765 -0.5266
   50MOL   C42633844   2.625   3.922   8.028  0.5016 -0.6053  0.2850
   50MOL   C42733845   2.711   4.036   8.022 -0.7744  0.0664  0.4336
   50MOL   C42833846   2.807   4.041   7.917 -0.0996 -0.3066  0.4158
   50MOL   C42933847   2.821   3.934   7.828  0.5435  0.8469  0.6542
   50MOL   C43033848   2.649   3.506   7.720 -0.2034 -0.4088  0.0984
   50MOL   C43133849   2.544   3.432   7.649  0.4566 -0.5280 -0.1343
   50MOL   H43233850   2.196   3.620   7.632  1.0990  0.0272 -1.0200
   50MOL   H43333851   1.985   3.710   7.574  0.8039 -0.8759  2.0847
   50MOL   H43433852   1.995   3.491   7.203  0.4494  1.5339 -0.6824
   50MOL   H43533853   2.190   3.379   7.274  0.7237  1.6926 -0.9375
   50MOL   H43633854   2.380   3.707   7.520 -1.4773  1.2251  2.3583
   50MOL   H43733855   2.541   3.822   7.638 -2.5381 -0.1000 -3.5546
   50MOL   H43833856   2.563   3.736   7.931  1.3426 -0.5879 -2.2954
   50MOL   H43933857   2.545   3.919   8.102 -0.2848 -0.1690 -0.5347
   50MOL   H44033858   2.872   4.126   7.902  1.7518 -1.2534  2.6988
   50MOL   H44133859   2.897   3.944   7.751 -1.3717 -0.2526 -1.4488
   50MOL   H44233860   2.725   3.444   7.766 -1.3605 -1.1555  1.0412
   50MOL   H44333861   2.544   3.325   7.659 -0.4475 -0.5466 -0.3699
   50MOL   C44433862   2.676   4.097   0.155  0.9228 -0.4655  0.4616
   50MOL   C44533863   2.723   4.093   0.024  0.3707  0.8651 -0.9113
   50MOL   C44633864   2.640   4.142   8.229 -0.0828  0.2069  0.5042
   50MOL   O44733865   2.687   4.149   8.097 -0.2312  0.5237  0.0492
   50MOL   C44833866   2.507   4.182   8.256 -0.2344  0.2841 -0.4235
   50MOL   C44933867   2.462   4.196   0.075  0.4212 -0.5950 -0.0165
   50MOL   C45033868   2.546   4.151   0.184 -0.4407  0.1854 -0.4653
   50MOL   C45133869   2.500   4.161   0.327  0.4750  0.9335  0.3220
   50MOL   O45233870   2.506   4.069   0.411  0.3590  0.4967  0.1514
   50MOL   C45333871   2.430   4.287   0.362 -0.5743 -1.1227 -0.2151
   50MOL   C45433872   2.338   4.286   0.468  0.5237 -0.3418  0.7753
   50MOL   C45533873   2.258   4.396   0.501 -0.0514  0.5033  0.2429
   50MOL   C45633874   2.272   4.510   0.429  0.0337 -0.0483 -0.3488
   50MOL   O45733875   2.187   4.618   0.441 -0.0580  0.2313 -0.0951
   50MOL   C45833876   2.230   4.718   0.524  0.1455  0.8389  0.0706
   50MOL   C45933877   2.172   4.734   0.651 -0.0152 -0.0414 -0.9090
   50MOL   C46033878   2.208   4.846   0.733  0.2624  0.0917  0.2723
   50MOL   C46133879   2.302   4.938   0.680 -0.7691  0.2376  0.6085
   50MOL   C46233880   2.364   4.921   0.554 -0.1413  0.2485  0.1410
   50MOL   C46333881   2.320   4.811   0.476  0.2369 -0.3037  0.8012
   50MOL   C46433882   2.372   4.519   0.335  0.0365  0.0983  0.1503
   50MOL   C46533883   2.453   4.412   0.299 -0.2833  0.1435 -0.2923
   50MOL   H46633884   2.742   4.071   0.236  0.9136 -0.2440  0.5413
   50MOL   H46733885   2.818   4.048   0.000  1.8519  2.5593  1.6976
   50MOL   H46833886   2.443   4.214   8.175 -0.4283  0.3826 -0.2285
   50MOL   H46933887   2.365   4.242   0.090  1.7181  1.9171  0.9874
   50MOL   H47033888   2.324   4.195   0.524 -0.7016 -2.1336 -2.2714
   50MOL   H47133889   2.175   4.385   0.570 -0.8058 -0.2614 -0.7795
   50MOL   H47233890   2.104   4.656   0.683  1.1879 -0.9839 -0.6054
   50MOL   H47333891   2.163   4.874   0.827 -1.9116 -2.8072  0.1842
   50MOL   H47433892   2.432   5.000   0.522 -0.8957  1.3015  1.1113
   50MOL   H47533893   2.363   4.793   0.379 -2.1572 -2.4148  0.0800
   50MOL   H47633894   2.379   4.611   0.278  1.0572 -0.1554 -0.1395
   50MOL   H47733895   2.509   4.422   0.207 -0.8427  0.9201 -0.5472
   50MOL   C47833896   2.605   5.120   0.970  0.5525  0.1426 -0.2403
   50MOL   C47933897   2.526   5.113   0.852 -0.4867  0.2220  0.6086
   50MOL   C48033898   2.399   5.057   0.857 -0.1375 -0.9301  0.0281
   50MOL   O48133899   2.320   5.054   0.746  0.6516 -0.3979  0.0928
   50MOL   C48233900   2.343   5.016   0.982 -0.3820 -0.0546  0.7496
   50MOL   C48333901   2.419   5.017   1.095  0.4183 -0.0259  0.4670
   50MOL   C48433902   2.552   5.059   1.089  0.4614 -0.2322  0.4266
   50MOL   C48533903   2.643   5.027   1.205 -0.0243 -0.2731 -0.7427
   50MOL   O48633904   2.763   5.061   1.196 -0.3839  0.0833 -0.1781
   50MOL   C48733905   2.601   4.949   1.320  0.7752  0.3478  0.1463
   50MOL   C48833906   2.659   4.826   1.346 -0.1244 -0.1584  0.2061
   50MOL   C48933907   2.641   4.759   1.467 -0.1934 -0.7153  0.3842
   50MOL   C49033908   2.553   4.815   1.565  0.0487  0.5988  0.2642
   50MOL   O49133909   2.527   4.753   1.691 -0.1092 -0.4229 -0.0569
   50MOL   C49233910   2.580   4.633   1.727  0.4574  0.0536  0.1284
   50MOL   C49333911   2.658   4.625   1.838 -0.4152  0.7779  0.5752
   50MOL   C49433912   2.716   4.508   1.885 -0.5615 -0.6418 -0.9725
   50MOL   C49533913   2.685   4.390   1.824  0.4611 -0.1133 -0.1491
   50MOL   C49633914   2.604   4.388   1.702  0.3737 -0.3169 -0.2292
   50MOL   C49733915   2.543   4.507   1.664  0.0583  0.6717 -0.0748
   50MOL   C49833916   2.478   4.931   1.535 -0.2104 -0.2382  0.4319
   50MOL   C49933917   2.510   5.001   1.415  0.5935  0.2861 -0.2493
   50MOL   H50033918   2.708   5.148   0.955  0.6409 -0.5761 -1.0360
   50MOL   H50133919   2.572   5.137   0.758 -0.6857 -0.3729  0.3579
   50MOL   H50233920   2.240   4.984   0.991 -1.0479  1.5271 -0.9153
   50MOL   H50333921   2.394   4.972   1.191 -0.0726  0.3156  0.5016
   50MOL   H50433922   2.730   4.782   1.278  0.4598 -1.0990  1.3830
   50MOL   H50533923   2.690   4.663   1.471 -0.7841 -1.0342 -0.1863
   50MOL   H50633924   2.670   4.720   1.889 -1.5009  1.2262  0.0073
   50MOL   H50733925   2.767   4.506   1.981 -1.4120  2.0773 -0.4158
   50MOL   H50833926   2.582   4.290   1.665 -1.1790 -0.1839  0.3235
   50MOL   H50933927   2.477   4.507   1.579 -0.6543 -1.0629  0.4688
   50MOL   H51033928   2.432   4.984   1.617  1.5799  1.8132  0.1393
   50MOL   H51133929   2.468   5.100   1.408  0.5119  0.2703 -0.0016
   50MOL   C51233930   2.447   4.189   2.120 -0.3257 -0.3504 -0.2545
   50MOL   C51333931   2.508   4.239   2.004 -0.4326 -0.2763  0.1019
   50MOL   C51433932   2.650   4.220   1.989  0.1756 -0.5811 -0.1041
   50MOL   O51533933   2.724   4.270   1.885 -0.2456  0.7025  0.3831
   50MOL   C51633934   2.718   4.164   2.094 -0.5703  0.4333  0.0894
   50MOL   C51733935   2.650   4.117   2.212  0.2376  0.8241 -0.5741
   50MOL   C51833936   2.511   4.123   2.223  1.0252  0.1854 -0.2684
   50MOL   C51933937   2.424   4.060   2.332 -0.9903  0.1715  0.7529
   50MOL   O52033938   2.306   4.029   2.314 -0.1523  0.3791 -0.1261
   50MOL   C52133939   2.486   4.028   2.464  0.4841 -0.4159 -0.0292
   50MOL   C52233940   2.561   4.119   2.534 -0.2811 -0.7565 -0.0843
   50MOL   C52333941   2.600   4.078   2.666  0.0554  0.4391 -0.1728
   50MOL   C52433942   2.558   3.960   2.726  0.8523  0.1605 -0.1873
   50MOL   O52533943   2.612   3.929   2.849 -0.0084  0.2385  0.6324
   50MOL   C52633944   2.540   3.962   2.957 -0.1356 -0.0210  0.4712
   50MOL   C52733945   2.488   3.862   3.042  0.3867  0.3120  0.2214
   50MOL   C52833946   2.416   3.891   3.153  0.3171  0.2850  0.2235
   50MOL   C52933947   2.399   4.024   3.193  0.3572 -0.2247  0.0575
   50MOL   C53033948   2.444   4.129   3.116 -0.5439 -0.3715 -0.3868
   50MOL   C53133949   2.516   4.094   2.997 -0.1593 -0.1566 -0.2912
   50MOL   C53233950   2.483   3.875   2.657 -0.2851  1.2663  0.1362
   50MOL   C53333951   2.445   3.911   2.523 -0.1006 -0.5384  0.6713
   50MOL   H53433952   2.341   4.210   2.117 -0.1343  0.5623 -0.8508
   50MOL   H53533953   2.450   4.298   1.935 -0.0594  0.7048  0.6120
   50MOL   H53633954   2.826   4.165   2.093 -0.5517 -0.9441 -1.3761
   50MOL   H53733955   2.710   4.071   2.289 -0.6161 -0.7744 -0.8560
   50MOL   H53833956   2.597   4.212   2.493 -3.3956 -0.1344 -1.5569
   50MOL   H53933957   2.660   4.149   2.719 -1.4439  1.4313  0.2175
   50MOL   H54033958   2.503   3.757   3.022 -1.3253  0.2441 -0.8007
   50MOL   H54133959   2.390   3.805   3.212 -0.8749 -0.2168 -1.0318
   50MOL   H54233960   2.435   4.232   3.149  2.1533  0.1169 -1.0798
   50MOL   H54333961   2.552   4.165   2.923 -1.8420  2.9206  1.7501
   50MOL   H54433962   2.459   3.779   2.701 -0.2939  0.3631 -1.7769
   50MOL   H54533963   2.379   3.842   2.473 -0.5971  0.6459 -0.3307
   50MOL   C54633964   2.436   4.260   3.596  0.2768 -0.0908 -0.2784
   50MOL   C54733965   2.375   4.215   3.473 -0.0213 -0.0461 -0.3379
   50MOL   C54833966   2.386   4.085   3.421  0.3056  0.2298  0.7556
   50MOL   O54933967   2.328   4.052   3.300  0.6116 -0.4498  0.0481
   50MOL   C55033968   2.470   3.999   3.488  0.4856  0.3491  0.3111
   50MOL   C55133969   2.533   4.034   3.608 -0.0185 -0.2338  0.1033
   50MOL   C55233970   2.515   4.160   3.669  0.8314  0.0046  0.3394
   50MOL   C55333971   2.569   4.193   3.802 -0.9126  0.3339 -0.5979
   50MOL   O55433972   2.657   4.120   3.856  0.2744  0.5930  0.2966
   50MOL   C55533973   2.501   4.296   3.889 -0.2204  0.4304  0.0236
   50MOL   C55633974   2.366   4.273   3.916 -0.7829  0.4302 -0.2565
   50MOL   C55733975   2.294   4.360   4.004 -0.0080  0.4579  0.5216
   50MOL   C55833976   2.361   4.471   4.053  0.0674 -0.2753  0.2232
   50MOL   O55933977   2.285   4.552   4.130  0.0145 -0.0697  0.1663
   50MOL   C56033978   2.290   4.681   4.106  0.1270 -0.5583 -0.6111
   50MOL   C56133979   2.333   4.762   4.207 -0.8337  0.6271  0.4695
   50MOL   C56233980   2.333   4.902   4.193 -1.2189  0.3594 -0.3349
   50MOL   C56333981   2.285   4.958   4.076 -0.8512  1.2874 -0.5485
   50MOL   C56433982   2.249   4.874   3.971 -0.2173 -0.7067 -0.4170
   50MOL   C56533983   2.251   4.735   3.986 -0.2011 -0.2051 -0.6141
   50MOL   C56633984   2.497   4.500   4.025 -0.7741 -1.2961 -0.2422
   50MOL   C56733985   2.569   4.412   3.937 -0.2199 -0.1464 -0.3243
   50MOL   H56833986   2.414   4.355   3.641  0.4281 -1.0403  1.8789
   50MOL   H56933987   2.311   4.277   3.412 -1.0890 -1.3124 -0.5086
   50MOL   H57033988   2.492   3.902   3.448 -0.2987 -1.0301  3.1261
   50MOL   H57133989   2.597   3.957   3.649 -0.8183 -2.2200 -2.2588
   50MOL   H57233990   2.312   4.191   3.872  1.8562  0.0913 -3.0085
   50MOL   H57333991   2.189   4.350   4.027 -0.7082  1.1167 -2.2252
   50MOL   H57433992   2.362   4.726   4.304 -0.4716  1.3570  0.6388
   50MOL   H57533993   2.363   4.971   4.270 -0.1297 -0.8575  0.3598
   50MOL   H57633994   2.233   4.922   3.875 -0.0732  0.5093  0.1574
   50MOL   H57733995   2.219   4.666   3.910 -1.7891 -0.3941  0.2091
   50MOL   H57833996   2.546   4.588   4.066 -1.0959 -0.2140 -2.1507
   50MOL   H57933997   2.668   4.443   3.911  0.4294 -0.8596  1.2137
   50MOL   C58033998   2.535   5.356   4.118 -0.2236 -0.4138  0.5324
   50MOL   C58133999   2.418   5.278   4.129  0.0214 -0.2760  0.9016
   50MOL   C58234000   2.402   5.158   4.054  0.0625  0.0749 -0.1024
   50MOL   O58334001   2.286   5.087   4.061  0.2259 -0.0642  0.1974
   50MOL   C58434002   2.509   5.126   3.966  0.3872 -0.4325  0.5334
   50MOL   C58534003   2.627   5.208   3.949 -0.4419  0.1097 -0.6642
   50MOL   C58634004   2.641   5.325   4.031 -0.4056  0.6251 -0.6620
   50MOL   C58734005   2.764   5.409   4.023  0.3172  0.2229  0.4696
   50MOL   O58834006   2.764   5.525   4.061 -0.0974 -0.0816 -0.0100
   50MOL   C58934007   2.896   5.345   3.992  0.6728  1.0131 -0.3603
   50MOL   C59034008   2.929   5.209   4.023  0.3716 -0.6630 -0.4345
   50MOL   C59134009   3.064   5.164   3.996  0.7703 -0.5122 -0.1582
   50MOL   C59234010   3.163   5.253   3.939 -1.0312  0.6799 -0.9492
   50MOL   O59334011   3.292   5.202   3.920 -0.5657 -0.0270 -0.5156
   50MOL   C59434012   3.336   5.094   4.001 -0.5142  0.0485 -0.6023
   50MOL   C59534013   3.339   5.106   4.142  0.4476  0.5073 -0.2616
   50MOL   C59634014   3.403   5.007   4.209  0.1608  0.4215 -0.4905
   50MOL   C59734015   3.443   4.887   4.155  0.2970  0.2498  1.0060
   50MOL   C59834016   3.427   4.862   4.013 -0.0004 -0.5269 -0.0805
   50MOL   C59934017   3.391   4.979   3.942 -0.3578 -0.3279 -0.1065
   50MOL   C60034018   3.125   5.389   3.913 -0.5341  0.1721  0.2979
   50MOL   C60134019   2.992   5.431   3.941  0.7133  0.3348  0.2844
   50MOL   H60234020   2.531   5.457   4.156 -0.5911  0.1029 -0.8220
   50MOL   H60334021   2.330   5.316   4.179 -0.2469 -0.1585  0.3406
   50MOL   H60434022   2.516   5.033   3.910  0.3393 -0.3860  0.4518
   50MOL   H60534023   2.711   5.181   3.886  0.0420 -1.7450  0.7360
   50MOL   H60634024   2.851   5.146   4.064  0.3159  0.5733  1.4425
   50MOL   H60734025   3.089   5.062   4.020 -0.7311 -0.7093  0.6398
   50MOL   H60834026   3.295   5.181   4.205  1.7132  0.6934  0.4133
   50MOL   H60934027   3.401   5.011   4.317  0.5351 -0.0165 -0.4640
   50MOL   H61034028   3.461   4.768   3.973  0.0012  0.1424 -1.6791
   50MOL   H61134029   3.398   4.976   3.834  2.3356 -2.3106  0.0743
   50MOL   H61234030   3.190   5.457   3.861 -1.1763  2.6654  2.6004
   50MOL   H61334031   2.978   5.533   3.909 -2.0287  0.0974  0.6207
   50MOL   C61434032   3.313   4.663   4.546 -0.4154  0.6274 -0.7751
   50MOL   C61534033   3.411   4.729   4.465  0.5149  0.5689  0.4611
   50MOL   C61634034   3.406   4.722   4.318 -0.3071  0.8261  0.3001
   50MOL   O61734035   3.496   4.787   4.235 -0.4131 -0.1810 -0.6260
   50MOL   C61834036   3.302   4.648   4.267 -0.0429  0.0774  0.2788
   50MOL   C61934037   3.195   4.600   4.346  0.2765  0.5438 -0.2628
   50MOL   C62034038   3.195   4.610   4.488 -0.0539 -0.3952  0.3602
   50MOL   C62134039   3.090   4.545   4.571 -0.1647  0.7508  0.2348
   50MOL   O62234040   3.111   4.524   4.690  0.4179  0.2080  0.7913
   50MOL   C62334041   2.962   4.500   4.502  0.2313 -0.1976  0.2256
   50MOL   C62434042   2.938   4.362   4.493  0.5834 -0.3605 -0.1665
   50MOL   C62534043   2.826   4.316   4.422  0.4651  0.2986  0.5442
   50MOL   C62634044   2.747   4.415   4.358  0.1459 -0.0182 -0.2273
   50MOL   O62734045   2.647   4.374   4.266  0.1375  0.2749 -0.4726
   50MOL   C62834046   2.536   4.318   4.317 -0.8665 -0.4793 -0.2393
   50MOL   C62934047   2.427   4.387   4.381 -0.5542  0.0334 -0.4785
   50MOL   C63034048   2.306   4.327   4.403  0.0003  0.6504 -0.0816
   50MOL   C63134049   2.285   4.193   4.359  0.4977 -0.9546 -0.0528
   50MOL   C63234050   2.390   4.127   4.296 -0.5219 -0.0856 -0.6998
   50MOL   C63334051   2.516   4.186   4.276 -0.0045  0.2749  0.2097
   50MOL   C63434052   2.772   4.555   4.373  0.2275 -0.4723  0.3711
   50MOL   C63534053   2.875   4.594   4.450 -0.3845 -0.6832 -0.1666
   50MOL   H63634054   3.312   4.673   4.654 -2.3664 -0.1589 -0.6952
   50MOL   H63734055   3.490   4.773   4.523  1.6784 -3.1981  1.9000
   50MOL   H63834056   3.297   4.642   4.159  0.7869 -0.7951  0.2799
   50MOL   H63934057   3.126   4.539   4.290  0.7821  0.6469 -0.9927
   50MOL   H64034058   3.012   4.289   4.524  1.6102  0.0182 -1.6707
   50MOL   H64134059   2.796   4.214   4.405  0.5406  0.4854 -0.8096
   50MOL   H64234060   2.435   4.489   4.416 -1.3891  0.3782 -1.2982
   50MOL   H64334061   2.226   4.381   4.451 -0.2923 -1.5921  2.1001
   50MOL   H64434062   2.375   4.030   4.250 -2.1558 -0.2782  0.2253
   50MOL   H64534063   2.600   4.130   4.237  0.5135  0.7352  0.6440
   50MOL   H64634064   2.711   4.626   4.318 -1.4597 -0.9162  1.6149
   50MOL   H64734065   2.888   4.699   4.468  1.7439 -0.4819 -2.5411
   50MOL   C64834066   1.931   4.099   4.659  0.2163  0.0495  0.2550
   50MOL   C64934067   1.982   4.131   4.531  0.5367  0.5370 -0.4365
   50MOL   C65034068   2.120   4.107   4.496  1.1792 -0.1148 -0.3560
   50MOL   O65134069   2.163   4.134   4.368  0.0759 -0.4630 -0.2932
   50MOL   C65234070   2.200   4.050   4.596  0.4605 -0.6235 -0.0191
   50MOL   C65334071   2.153   4.024   4.727  0.2881  0.2174  0.3392
   50MOL   C65434072   2.014   4.049   4.762  0.5087  0.5020  0.8184
   50MOL   C65534073   1.955   4.028   4.900 -0.3321 -0.1960  0.0714
   50MOL   O65634074   1.840   3.996   4.916  0.5616  0.8672 -0.2499
   50MOL   C65734075   2.054   4.044   5.010 -0.5536 -0.3768  0.3284
   50MOL   C65834076   2.057   3.946   5.103 -0.4212 -0.0058 -0.7058
   50MOL   C65934077   2.155   3.943   5.205  0.2443  0.3407  0.1654
   50MOL   C66034078   2.250   4.048   5.205  0.2112 -0.1433 -0.6740
   50MOL   O66134079   2.346   4.058   5.307 -0.0620  0.2233  0.0847
   50MOL   C66234080   2.309   4.105   5.430 -0.5469  0.2463 -0.2661
   50MOL   C66334081   2.389   4.212   5.484  0.5415 -0.0249  0.0884
   50MOL   C66434082   2.373   4.257   5.617 -0.5590 -0.5472 -0.0725
   50MOL   C66534083   2.277   4.193   5.694  0.2260  0.0839  0.7076
   50MOL   C66634084   2.194   4.090   5.645  0.5501 -0.0176  0.4108
   50MOL   C66734085   2.212   4.049   5.510  1.0326 -0.6685  0.5676
   50MOL   C66834086   2.243   4.154   5.115 -0.7821 -0.2130  0.3597
   50MOL   C66934087   2.147   4.155   5.014 -0.5084  0.3594 -0.1241
   50MOL   H67034088   1.824   4.108   4.670  0.3837  1.1711  1.0556
   50MOL   H67134089   1.913   4.169   4.457 -0.5136  0.9683  0.7334
   50MOL   H67234090   2.305   4.030   4.580  1.1928  1.1087  2.2927
   50MOL   H67334091   2.217   3.973   4.798  0.1253 -0.7984 -0.2330
   50MOL   H67434092   1.976   3.875   5.096  0.4387 -0.8298 -2.7862
   50MOL   H67534093   2.159   3.870   5.284 -0.2076  1.4415  1.2244
   50MOL   H67634094   2.459   4.258   5.416  0.3589 -1.0541 -0.8156
   50MOL   H67734095   2.433   4.339   5.651  0.8201 -2.0232  1.1568
   50MOL   H67834096   2.122   4.039   5.707 -0.5415 -0.2342 -1.0309
   50MOL   H67934097   2.154   3.961   5.485 -1.9307  1.4084 -0.0256
   50MOL   H68034098   2.316   4.232   5.121 -0.3765 -0.5540 -0.0736
   50MOL   H68134099   2.146   4.231   4.938 -0.4057 -1.7040 -2.2442
   50MOL   H68234100   2.255   4.223   5.796 -0.5617  0.0113  0.5601
   51MOL     C134101   8.282   7.198   3.406  0.1022  0.7099 -0.9560
   51MOL     C234102   0.077   7.251   3.481 -0.1392  0.2040  0.3495
   51MOL     C334103   0.203   7.266   3.422  0.7900 -0.0929 -0.0483
   51MOL     O434104   0.307   7.312   3.497 -0.1052 -0.1232  0.3356
   51MOL     C534105   0.225   7.232   3.289  0.4892 -0.5392 -0.3179
   51MOL     C634106   0.120   7.176   3.214  0.1989 -0.3547 -0.2839
   51MOL     C734107   8.303   7.160   3.269  0.0462  0.0010 -0.9999
   51MOL     C834108   8.200   7.088   3.190 -0.0333  0.4841  0.5998
   51MOL     O934109   8.164   7.127   3.076 -0.1607 -0.0041  0.9245
   51MOL    C1034110   8.159   6.944   3.239  0.0762 -0.4478 -0.4236
   51MOL    C1134111   8.226   6.875   3.340 -0.2220  0.1893 -0.4384
   51MOL    C1234112   8.183   6.746   3.387  0.4048  0.1928 -0.0824
   51MOL    C1334113   8.078   6.689   3.316  0.0140  0.0474  0.3784
   51MOL    O1434114   8.031   6.564   3.358 -0.2127 -0.6655  0.1378
   51MOL    C1534115   7.994   6.472   3.256 -0.2383 -0.9501 -0.6108
   51MOL    C1634116   7.862   6.440   3.219  0.7107 -0.5987  0.2113
   51MOL    C1734117   7.826   6.351   3.117  0.1555 -0.0876 -0.6160
   51MOL    C1834118   7.925   6.274   3.057  0.1356  0.0785  1.3732
   51MOL    C1934119   8.059   6.302   3.088  0.4177 -0.2407  0.1648
   51MOL    C2034120   8.087   6.397   3.186  0.4178 -0.2061  0.6371
   51MOL    C2134121   8.020   6.753   3.199 -0.0674  0.3796  0.8295
   51MOL    C2234122   8.068   6.880   3.157 -0.3777 -0.2576 -0.2720
   51MOL    H2334123   8.189   7.168   3.451  0.3025 -0.4052 -1.2769
   51MOL    H2434124   0.064   7.271   3.586  1.1038 -0.6758  0.6869
   51MOL    H2534125   0.318   7.243   3.234  0.1188  0.8283 -0.7013
   51MOL    H2634126   0.146   7.161   3.110  1.7234  0.8021 -0.0888
   51MOL    H2734127   0.002   6.924   3.377  1.8210 -2.3333 -1.8166
   51MOL    H2834128   8.237   6.698   3.467  1.0885  1.2085  0.0900
   51MOL    H2934129   7.782   6.490   3.271 -0.4908 -1.4448 -0.7816
   51MOL    H3034130   7.722   6.341   3.090  0.5440 -1.6459 -1.5346
   51MOL    H3134131   8.138   6.247   3.039  1.2619  2.4529 -1.6337
   51MOL    H3234132   8.193   6.413   3.203  0.8176 -1.2974 -0.7870
   51MOL    H3334133   7.942   6.704   3.142 -0.1798  0.5552  0.8339
   51MOL    H3434134   8.023   6.936   3.076 -0.2365  1.1449  0.5998
   51MOL    H3534135   0.275   7.373   3.562 -0.4174  0.7828 -0.6644
   51MOL    C3634136   8.001   6.088   2.619  0.0575  0.6737 -0.5018
   51MOL    C3734137   7.978   6.079   2.762  0.2376  0.6285 -0.0693
   51MOL    C3834138   7.918   6.187   2.832  0.5212  0.5988 -0.4615
   51MOL    O3934139   7.897   6.172   2.971  0.8972  0.3063 -0.0849
   51MOL    C4034140   7.858   6.292   2.756 -0.2102 -0.3405 -0.5619
   51MOL    C4134141   7.873   6.302   2.619  0.2002  0.4752  0.0080
   51MOL    C4234142   7.955   6.201   2.551 -0.4500 -0.4201  0.4747
   51MOL    C4334143   7.986   6.224   2.407  0.6313 -0.0021 -0.3160
   51MOL    O4434144   7.944   6.329   2.354 -0.0950 -0.1630  0.1041
   51MOL    C4534145   8.066   6.128   2.328  0.0724  0.1050  0.4277
   51MOL    C4634146   8.174   6.176   2.251 -0.7612 -0.4645  0.2449
   51MOL    C4734147   8.249   6.085   2.172  0.2661 -0.0320  0.0220
   51MOL    C4834148   8.206   5.949   2.163  0.5427  0.4375 -0.2413
   51MOL    O4934149   8.268   5.861   2.076 -0.3085 -0.5505 -0.5328
   51MOL    C5034150   8.277   5.902   1.952 -0.1600  0.6792  0.7011
   51MOL    C5134151   0.090   5.909   1.894  0.4812  0.0753  0.9861
   51MOL    C5234152   0.106   5.978   1.772 -0.7575  0.5311 -0.7087
   51MOL    C5334153   8.312   5.999   1.691 -0.5936 -0.3830 -0.1115
   51MOL    C5434154   8.184   5.971   1.742  0.2749  0.2140  0.5983
   51MOL    C5534155   8.163   5.921   1.869  0.9754  0.0319  0.0367
   51MOL    C5634156   8.098   5.901   2.244 -0.7829 -0.2490  0.1715
   51MOL    C5734157   8.028   5.991   2.321 -0.5012 -0.0534  0.1856
   51MOL    H5834158   8.058   6.010   2.571  1.0655 -0.2954  2.1605
   51MOL    H5934159   8.028   5.997   2.812 -0.5486  1.2196  1.7147
   51MOL    H6034160   7.814   6.369   2.817 -1.4302 -0.6809 -0.9925
   51MOL    H6134161   7.825   6.390   2.578  0.8464  1.5397  1.4906
   51MOL    H6234162   8.206   6.279   2.258 -3.7577  0.6612 -1.3961
   51MOL    H6334163   0.017   6.133   2.117 -1.4693  0.0728 -2.5183
   51MOL    H6434164   0.183   5.889   1.945  1.2823 -2.3433 -1.3046
   51MOL    H6534165   0.203   5.978   1.724 -0.9510 -0.3099 -1.1192
   51MOL    H6634166   8.102   6.001   1.678  0.8761 -0.0485 -0.2981
   51MOL    H6734167   8.059   5.915   1.899  0.7094  1.0428 -0.6402
   51MOL    H6834168   8.064   5.800   2.228  0.7205 -0.7458  0.0118
   51MOL    H6934169   7.935   5.965   2.369  0.7755 -2.5901  1.3751
   51MOL    C7034170   0.258   6.316   1.494  0.0651 -0.3776 -0.4199
   51MOL    C7134171   0.193   6.190   1.492 -0.4684 -0.1231 -0.0631
   51MOL    C7234172   0.074   6.178   1.558 -0.4803 -0.4889 -0.3863
   51MOL    O7334173   0.015   6.053   1.562  0.4651 -0.0597 -0.2567
   51MOL    C7434174   0.017   6.286   1.631  0.0074  0.5567  0.0499
   51MOL    C7534175   0.076   6.413   1.627  0.4687  0.4566  0.0195
   51MOL    C7634176   0.204   6.429   1.566  0.5633  0.6234  0.0303
   51MOL    C7734177   0.272   6.565   1.567 -0.2009  0.5482 -0.5915
   51MOL    O7834178   0.251   6.642   1.660  0.1609 -0.3706  0.1582
   51MOL    C7934179   0.365   6.601   1.454 -0.0431  0.1396  0.0303
   51MOL    C8034180   0.327   6.564   1.324 -0.0382 -1.0244 -0.5041
   51MOL    C8134181   0.408   6.599   1.211 -0.3878 -0.5685  0.0088
   51MOL    C8234182   0.532   6.667   1.230  0.2012 -0.5038 -0.1257
   51MOL    O8334183   0.610   6.704   1.120 -1.0809  0.1769  0.0971
   51MOL    C8434184   0.579   6.823   1.053 -0.1812 -0.6871  0.0620
   51MOL    C8534185   0.451   6.890   1.056 -0.0940  0.6457 -0.3328
   51MOL    C8634186   0.428   7.009   0.985 -0.3000 -0.1927  0.1667
   51MOL    C8734187   0.527   7.063   0.902 -0.1799  0.4210 -0.1450
   51MOL    C8834188   0.656   7.011   0.897  0.2954  0.1532 -0.2112
   51MOL    C8934189   0.681   6.890   0.974  0.1482  0.2902 -1.1609
   51MOL    C9034190   0.573   6.704   1.360 -0.4544 -0.7791 -0.1549
   51MOL    C9134191   0.489   6.669   1.470  0.1103  0.4595 -0.3979
   51MOL    H9234192   0.356   6.332   1.452  0.0417  1.3583  0.1690
   51MOL    H9334193   0.232   6.105   1.439  1.2751  0.9901 -0.5971
   51MOL    H9434194   8.238   6.271   1.686  0.8291 -0.7691  1.1115
   51MOL    H9534195   0.035   6.499   1.678  0.7763 -2.0257  4.7478
   51MOL    H9634196   0.232   6.515   1.309  0.7369 -2.5042 -0.6615
   51MOL    H9734197   0.371   6.572   1.113  1.2290 -0.7686 -0.5636
   51MOL    H9834198   0.374   6.840   1.113 -0.1510 -0.4494 -1.3602
   51MOL    H9934199   0.329   7.052   0.996 -1.4283 -2.7476  0.2030
   51MOL   H10034200   0.726   7.069   0.839 -2.6648  2.1478 -1.9132
   51MOL   H10134201   0.775   6.837   0.976  0.0054  0.0646 -0.2901
   51MOL   H10234202   0.668   6.754   1.374 -1.2213  0.9001 -0.8260
   51MOL   H10334203   0.514   6.697   1.571  2.2021  1.0846 -1.0563
   51MOL   C10434204   0.359   7.019   0.509  0.3864  0.3710 -0.0091
   51MOL   C10534205   0.426   7.036   0.634  0.9749  0.1757 -0.8393
   51MOL   C10634206   0.406   7.144   0.719 -0.0340 -0.3356  0.4558
   51MOL   O10734207   0.486   7.169   0.825 -0.2424  0.2886 -0.5941
   51MOL   C10834208   0.321   7.241   0.670 -0.6639 -0.5594 -0.3098
   51MOL   C10934209   0.254   7.231   0.545  0.1454 -0.0152 -0.2266
   51MOL   C11034210   0.276   7.123   0.461 -0.2965  0.2118  0.6240
   51MOL   C11134211   0.200   7.114   0.330  0.5969 -0.4162  0.3776
   51MOL   O11234212   0.081   7.144   0.334  0.3802 -0.2441 -0.3799
   51MOL   C11334213   0.274   7.077   0.201  0.3546  1.0124 -0.4333
   51MOL   C11434214   0.412   7.075   0.191 -0.0404 -0.5785  0.8947
   51MOL   C11534215   0.470   7.070   0.065 -0.4768  0.4283 -0.2375
   51MOL   C11634216   0.395   7.051   8.262  0.5638  0.0124  0.4310
   51MOL   O11734217   0.468   7.043   8.144 -0.0024  0.1819 -0.0715
   51MOL   C11834218   0.500   7.157   8.074 -0.1795 -0.3097  0.2314
   51MOL   C11934219   0.404   7.253   8.044 -0.5810 -0.1394 -0.0320
   51MOL   C12034220   0.451   7.365   7.976  1.0033 -0.0397 -0.6586
   51MOL   C12134221   0.583   7.379   7.941  0.0317 -0.4405  0.5189
   51MOL   C12234222   0.681   7.288   7.977  0.2878  0.0395  0.3177
   51MOL   C12334223   0.633   7.173   8.039  0.0115 -0.0799  0.0300
   51MOL   C12434224   0.249   7.046   8.270 -0.4742  0.5133  0.1883
   51MOL   C12534225   0.194   7.064   0.087  0.3785 -0.3206  0.0068
   51MOL   H12634226   0.376   6.925   0.460 -0.4559 -0.3226  1.0013
   51MOL   H12734227   0.492   6.960   0.672 -1.5286 -2.7791 -2.2732
   51MOL   H12834228   0.303   7.334   0.723  0.9880 -0.7757  0.6801
   51MOL   H12934229   0.186   7.306   0.508  0.0052  0.1430  0.3458
   51MOL   H13034230   0.476   7.085   0.277  1.6102  0.2229 -0.3986
   51MOL   H13134231   0.577   7.069   0.047 -0.6664  0.3574 -1.4111
   51MOL   H13234232   0.298   7.240   8.064 -0.8001  0.5075 -0.7371
   51MOL   H13334233   0.387   7.444   7.940  1.4673  0.8617  0.4782
   51MOL   H13434234   0.784   7.307   7.951  0.4462 -0.3170  0.6747
   51MOL   H13534235   0.693   7.089   8.071 -1.3384 -1.2678 -0.5323
   51MOL   H13634236   0.192   7.029   8.180 -0.2760  0.3780  0.0849
   51MOL   H13734237   0.087   7.065   0.098  0.4274  2.9948  0.6113
   51MOL   C13834238   0.537   7.336   7.530  0.8628 -0.1203 -0.4490
   51MOL   C13934239   0.576   7.344   7.668  0.1518 -0.3453 -0.4777
   51MOL   C14034240   0.577   7.469   7.730  0.5604  0.3698 -0.1250
   51MOL   O14134241   0.621   7.481   7.859 -0.3866  0.4741 -0.1202
   51MOL   C14234242   0.516   7.579   7.657 -0.2649 -0.0556  0.6426
   51MOL   C14334243   0.464   7.565   7.529 -0.4953  0.6339  0.1138
   51MOL   C14434244   0.474   7.442   7.463  0.2396  0.0006  0.1199
   51MOL   C14534245   0.426   7.424   7.323 -0.5031  0.1198 -0.0693
   51MOL   O14634246   0.352   7.327   7.290  1.2624  0.4534  0.4680
   51MOL   C14734247   0.472   7.529   7.227  0.6847  0.0312 -0.6126
   51MOL   C14834248   0.601   7.580   7.221 -0.8475 -0.7684 -0.2458
   51MOL   C14934249   0.638   7.680   7.128 -0.3558  0.6802  0.2502
   51MOL   C15034250   0.544   7.727   7.028 -0.2632  0.1385  0.2838
   51MOL   O15134251   0.586   7.818   6.934 -0.2890  0.3454 -0.2926
   51MOL   C15234252   0.497   7.912   6.891  0.0561  0.2514 -0.0113
   51MOL   C15334253   0.461   7.933   6.753  0.0951  0.0902 -0.2927
   51MOL   C15434254   0.368   8.039   6.726  0.6799 -0.1067 -0.6109
   51MOL   C15534255   0.322   8.120   6.836 -0.0545  0.0382  0.4509
   51MOL   C15634256   0.360   8.099   6.968  0.2093 -0.1425  1.0755
   51MOL   C15734257   0.454   8.000   6.997 -0.4817  0.9817  0.4805
   51MOL   C15834258   0.417   7.664   7.032  0.6342 -0.1622 -0.5827
   51MOL   C15934259   0.380   7.571   7.131 -0.4733  0.4518  0.4462
   51MOL   H16034260   0.545   7.248   7.468 -0.0597  1.6415 -3.1348
   51MOL   H16134261   0.607   7.256   7.722  0.6594  0.6742  0.9115
   51MOL   H16234262   0.497   7.669   7.713 -1.7018 -1.6156  2.7242
   51MOL   H16334263   0.417   7.652   7.487 -2.7624 -1.2627 -1.4051
   51MOL   H16434264   0.665   7.546   7.302 -1.0290 -0.1765  0.1571
   51MOL   H16534265   0.741   7.707   7.109  0.0135 -1.1661 -0.4904
   51MOL   H16634266   0.498   7.881   6.666  1.0080  3.5761 -2.0466
   51MOL   H16734267   0.340   8.072   6.627 -1.1379  0.2298 -0.0034
   51MOL   H16834268   0.331   8.181   7.032 -0.7022 -0.8127  1.5236
   51MOL   H16934269   0.506   7.995   7.091 -1.8963 -0.4380  1.2141
   51MOL   H17034270   0.349   7.708   6.960 -0.9793 -0.1902  0.9086
   51MOL   H17134271   0.279   7.532   7.134 -0.4481  0.3740  0.3130
   51MOL   C17234272   8.210   8.171   6.968 -0.2584  0.2456  0.3961
   51MOL   C17334273   0.034   8.205   6.952 -0.7212  0.3037  0.1759
   51MOL   C17434274   0.104   8.182   6.826  0.0005  0.1254 -0.1205
   51MOL   O17534275   0.234   8.216   6.808  0.1314 -0.1989  0.2134
   51MOL   C17634276   0.029   8.140   6.720 -0.2089  1.0853 -0.1993
   51MOL   C17734277   8.204   8.111   6.732 -0.1066 -0.4097 -0.4862
   51MOL   C17834278   8.147   8.120   6.858  1.0141  0.2177 -0.2816
   51MOL   C17934279   8.001   8.093   6.862 -0.4569  0.3847  0.3818
   51MOL   O18034280   7.925   8.189   6.881 -1.0172  0.3665 -0.4185
   51MOL   C18134281   7.951   7.959   6.834 -0.0068  0.7000  0.4005
   51MOL   C18234282   8.038   7.853   6.819 -0.0375  0.3651 -0.0557
   51MOL   C18334283   7.980   7.724   6.801  0.2207  0.5924 -0.2827
   51MOL   C18434284   7.841   7.703   6.783  0.2107  0.8546  0.3055
   51MOL   O18534285   7.782   7.583   6.770 -0.0647  0.5097 -0.1554
   51MOL   C18634286   7.832   7.480   6.851  0.3138 -0.6226 -0.1384
   51MOL   C18734287   7.820   7.501   6.987 -0.2076  0.7426 -0.6684
   51MOL   C18834288   7.874   7.408   7.078  0.2607 -0.1493  0.2921
   51MOL   C18934289   7.952   7.301   7.036  0.5939  0.0150  0.1338
   51MOL   C19034290   7.956   7.279   6.893  0.4383  0.2564 -0.2757
   51MOL   C19134291   7.901   7.367   6.800  0.0806  0.2547 -0.3220
   51MOL   C19234292   7.761   7.817   6.767  0.2311  0.2221  0.3533
   51MOL   C19334293   7.812   7.940   6.802  0.0435 -0.0108 -0.2863
   51MOL   H19434294   8.159   8.197   7.060  0.1636  1.3757  0.3235
   51MOL   H19534295   0.089   8.243   7.036 -0.0656 -1.9540  0.8079
   51MOL   H19634296   0.072   8.123   6.622 -1.7236 -0.0677 -0.6870
   51MOL   H19734297   8.143   8.074   6.651 -1.0330 -2.1657  0.9816
   51MOL   H19834298   8.143   7.873   6.833 -0.3789  2.0308  0.1601
   51MOL   H19934299   8.048   7.640   6.796  1.0927  1.3622 -1.7314
   51MOL   H20034300   7.772   7.589   7.027 -0.2450  0.8041 -0.8460
   51MOL   H20134301   7.851   7.407   7.184 -1.0481  1.6996  0.0489
   51MOL   H20234302   8.007   7.188   6.862  3.0007  0.9648  1.6269
   51MOL   H20334303   7.903   7.338   6.696 -0.0998 -2.4568  0.3915
   51MOL   H20434304   7.654   7.805   6.759  0.2827 -0.8742  1.2315
   51MOL   H20534305   7.754   8.031   6.798  1.7490  1.2336  1.9577
   51MOL   C20634306   0.008   7.229   7.279  1.0458  0.3137  0.0723
   51MOL   C20734307   8.220   7.239   7.179  0.3533  0.4590  0.2217
   51MOL   C20834308   8.084   7.219   7.216 -0.0688 -0.1044  0.0994
   51MOL   O20934309   7.992   7.197   7.114 -0.1688 -0.2842  0.4803
   51MOL   C21034310   8.049   7.200   7.347 -0.1265  0.1421  0.4176
   51MOL   C21134311   8.147   7.192   7.448 -0.2260  0.5881 -0.3377
   51MOL   C21234312   8.288   7.208   7.415  0.5024 -0.2942  0.1904
   51MOL   C21334313   0.087   7.214   7.515  0.1481 -0.5256  0.5806
   51MOL   O21434314   0.157   7.318   7.523 -0.1089 -0.0066 -0.2867
   51MOL   C21534315   0.105   7.097   7.601 -0.1681 -0.1760 -0.4938
   51MOL   C21634316   0.043   6.967   7.580  0.4679 -0.7278  0.0799
   51MOL   C21734317   0.086   6.862   7.658 -0.2864 -0.5568 -0.8676
   51MOL   C21834318   0.179   6.875   7.759 -0.0740  0.0195 -0.1378
   51MOL   O21934319   0.222   6.761   7.819 -0.5419 -0.0702  0.4832
   51MOL   C22034320   0.133   6.702   7.905  0.1744  0.3773 -0.2288
   51MOL   C22134321   0.077   6.575   7.871 -0.0262  0.0986  0.3157
   51MOL   C22234322   8.305   6.514   7.963 -0.2636  0.1247  0.2582
   51MOL   C22334323   8.255   6.582   8.075 -0.5955  0.8174  0.1336
   51MOL   C22434324   8.297   6.712   8.099  0.0552  0.5539  0.3963
   51MOL   C22534325   0.079   6.771   8.017 -0.0702  0.5295 -0.0821
   51MOL   C22634326   0.241   6.996   7.785 -1.1901  0.5175  0.0120
   51MOL   C22734327   0.205   7.104   7.700  0.0851  0.1684 -0.8404
   51MOL   H22834328   0.112   7.237   7.250  0.9298 -0.6833 -0.6568
   51MOL   H22934329   8.239   7.243   7.073 -3.1843 -1.3487 -0.5918
   51MOL   H23034330   7.946   7.173   7.367  0.3054 -1.5698  0.4234
   51MOL   H23134331   8.113   7.177   7.549  2.1009 -1.3865  0.2142
   51MOL   H23234332   8.289   6.945   7.498 -0.6566 -0.2388  0.8523
   51MOL   H23334333   0.026   6.773   7.651 -0.9233 -0.2563  0.6098
   51MOL   H23434334   0.108   6.522   7.782 -2.7052  0.0209 -0.5944
   51MOL   H23534335   8.271   6.413   7.943  0.4682  0.5137 -3.2698
   51MOL   H23634336   8.272   6.759   8.193 -0.4033 -1.6403  1.4030
   51MOL   H23734337   0.119   6.865   8.052  1.5466 -0.3539  0.4842
   51MOL   H23834338   0.313   7.011   7.865 -1.0040 -2.1373  0.3686
   51MOL   H23934339   0.244   7.203   7.717  0.9165 -0.4856  1.1930
   51MOL   C24034340   8.173   6.173   8.269 -0.4180 -0.0915 -0.4590
   51MOL   C24134341   8.146   6.286   8.194 -0.2070 -1.1691  0.2340
   51MOL   C24234342   8.193   6.414   8.231  0.1483 -0.2839  0.5177
   51MOL   O24334343   8.161   6.524   8.154 -0.6206 -0.1959  0.7105
   51MOL   C24434344   8.255   6.435   0.043  0.4604 -0.6687  0.6631
   51MOL   C24534345   8.280   6.318   0.117 -0.4741  0.4985  0.3314
   51MOL   C24634346   8.243   6.190   0.079  0.6383 -0.8338 -0.7847
   51MOL   C24734347   8.272   6.078   0.171  0.7586 -0.6159 -0.4623
   51MOL   O24834348   0.075   6.065   0.208 -0.3559 -0.3935 -0.2165
   51MOL   C24934349   8.170   5.985   0.217 -0.2107  0.7823  0.3203
   51MOL   C25034350   8.191   5.841   0.216 -0.2629 -0.0312  0.0491
   51MOL   C25134351   8.088   5.752   0.249 -0.1538  0.0782  0.3311
   51MOL   C25234352   7.961   5.806   0.287 -0.2171  0.8491  0.1210
   51MOL   O25334353   7.858   5.721   0.327 -0.0653  0.5388 -0.0281
   51MOL   C25434354   7.828   5.626   0.231  0.2838  0.1518  0.1408
   51MOL   C25534355   7.716   5.651   0.139  0.2160  0.4026  1.0615
   51MOL   C25634356   7.691   5.557   0.033 -1.5117 -1.0403  0.8900
   51MOL   C25734357   7.769   5.439   0.028  0.7197 -0.6021 -0.3310
   51MOL   C25834358   7.863   5.414   0.129 -0.3800 -0.8668 -0.4649
   51MOL   C25934359   7.890   5.500   0.237 -0.0049  0.4932  0.2714
   51MOL   C26034360   7.941   5.946   0.287  0.5965  0.0309 -0.4333
   51MOL   C26134361   8.046   6.039   0.260 -0.9798 -0.5057 -0.3054
   51MOL   H26234362   8.137   6.079   8.230  3.3467 -2.0885  0.6549
   51MOL   H26334363   8.093   6.271   8.101 -1.5586  2.0020  0.4488
   51MOL   H26434364   8.274   6.536   0.075  2.6943 -1.2526  1.3314
   51MOL   H26534365   0.010   6.341   0.213  1.0336  0.5661 -0.3390
   51MOL   H26634366   8.286   5.792   0.201 -0.5251 -1.1259  1.8846
   51MOL   H26734367   8.124   5.650   0.245 -0.5040 -0.0527  0.5106
   51MOL   H26834368   7.662   5.744   0.140 -1.1368 -0.3556  0.3090
   51MOL   H26934369   7.608   5.572   8.278 -0.9911  0.4948  0.5610
   51MOL   H27034370   7.924   5.326   0.124 -0.3543 -0.7681 -2.2142
   51MOL   H27134371   7.966   5.473   0.309  0.4791  0.2303 -0.3306
   51MOL   H27234372   7.851   5.986   0.331 -0.5350  0.6525 -3.2496
   51MOL   H27334373   8.031   6.146   0.259  0.9074 -0.2045 -4.5294
   51MOL   C27434374   7.393   5.331   8.187  0.7415  0.5842 -0.1508
   51MOL   C27534375   7.518   5.308   8.247  0.3238 -0.0128  0.0096
   51MOL   C27634376   7.641   5.327   8.179  0.6394 -0.9152 -0.0074
   51MOL   O27734377   7.765   5.349   8.239  0.0663  0.2356  0.3708
   51MOL   C27834378   7.634   5.341   8.034 -0.0774  0.0606  0.3931
   51MOL   C27934379   7.508   5.358   7.976  0.1929 -0.6420 -0.2676
   51MOL   C28034380   7.384   5.349   8.052  0.1149 -0.5136  0.0754
   51MOL   C28134381   7.255   5.384   7.992 -0.0851 -0.2903 -0.0571
   51MOL   O28234382   7.248   5.394   7.870 -0.1025  0.1700 -0.0927
   51MOL   C28334383   7.144   5.419   8.081 -0.0203  0.3736 -0.1897
   51MOL   C28434384   7.115   5.557   8.107 -0.9212  0.5147 -0.4024
   51MOL   C28534385   7.014   5.584   8.199 -0.5402  0.2719 -0.1277
   51MOL   C28634386   6.938   5.478   8.256  0.6354  0.2876  0.2216
   51MOL   O28734387   6.834   5.503   0.032  0.3787  0.2808 -1.1551
   51MOL   C28834388   6.857   5.516   0.166 -0.1349 -0.5000 -0.3864
   51MOL   C28934389   6.875   5.645   0.223  0.2472 -0.6308  0.0415
   51MOL   C29034390   6.890   5.669   0.360  0.0808  0.0514 -0.6893
   51MOL   C29134391   6.889   5.554   0.447 -0.4272  0.1118 -0.3137
   51MOL   C29234392   6.874   5.423   0.393 -1.1048  0.2612 -0.2831
   51MOL   C29334393   6.862   5.406   0.257  0.0101  0.0724  0.7299
   51MOL   C29434394   6.959   5.344   8.224  0.5648 -0.0902  0.9083
   51MOL   C29534395   7.059   5.314   8.133  0.0947  0.6799 -0.1513
   51MOL   H29634396   7.307   5.332   8.252  0.0389 -0.6097 -1.0369
   51MOL   H29734397   7.531   5.287   0.039 -2.4057 -0.7559  0.2434
   51MOL   H29834398   7.722   5.353   7.973 -1.0081  0.3909 -0.9056
   51MOL   H29934399   7.500   5.376   7.870  2.1754 -1.9530 -0.6683
   51MOL   H30034400   7.173   5.636   8.061  1.4091 -0.2888  1.0947
   51MOL   H30134401   6.983   5.684   8.224  0.8068  0.9010 -0.9237
   51MOL   H30234402   6.878   5.736   0.167  1.9623  0.2887  1.5744
   51MOL   H30334403   6.887   5.772   0.393 -0.4936 -0.3441  0.5386
   51MOL   H30434404   6.864   5.341   0.462  1.6135 -0.3659 -0.5993
   51MOL   H30534405   6.848   5.307   0.215  0.6966  0.1034  0.4248
   51MOL   H30634406   6.896   5.263   8.258  0.3776 -0.1557  0.4108
   51MOL   H30734407   7.098   5.215   8.112 -1.5910 -0.2285  0.9470
   51MOL   C30834408   7.244   5.548   0.708  0.6465  0.6701 -0.4986
   51MOL   C30934409   7.108   5.517   0.670 -0.1213 -0.2057 -0.1073
   51MOL   C31034410   7.022   5.617   0.631  0.1634 -0.0271  0.6514
   51MOL   O31134411   6.897   5.574   0.584 -0.0509  0.0370 -0.0218
   51MOL   C31234412   7.053   5.748   0.629 -0.2277 -0.1678 -0.7924
   51MOL   C31334413   7.180   5.779   0.678 -0.5342  0.2971 -0.4221
   51MOL   C31434414   7.285   5.683   0.711  0.7026 -0.8388  0.7142
   51MOL   C31534415   7.426   5.722   0.733  0.1720 -0.5225  0.0881
   51MOL   O31634416   7.462   5.828   0.687 -1.0026 -0.7724 -0.1020
   51MOL   C31734417   7.523   5.620   0.792 -0.1346  0.3551 -0.1092
   51MOL   C31834418   7.646   5.616   0.740 -0.3616  0.4449  0.6983
   51MOL   C31934419   7.760   5.556   0.808  0.0980 -1.0448 -0.2678
   51MOL   C32034420   7.732   5.497   0.939  0.6209 -0.2695  0.8011
   51MOL   O32134421   7.839   5.439   1.012 -0.0792  0.3661  0.1249
   51MOL   C32234422   7.928   5.516   1.084 -0.1783 -0.0740 -0.6263
   51MOL   C32334423   8.068   5.483   1.076  0.1931  0.1301  0.6120
   51MOL   C32434424   8.159   5.555   1.154  0.1526 -1.0119  0.2233
   51MOL   C32534425   8.110   5.661   1.239  0.6586 -0.2324 -0.4826
   51MOL   C32634426   7.979   5.699   1.238  0.9883  0.5772 -0.0730
   51MOL   C32734427   7.883   5.627   1.164  0.3350  0.2605  0.1124
   51MOL   C32834428   7.603   5.508   0.993  0.8212  0.9934 -0.1063
   51MOL   C32934429   7.499   5.565   0.915  0.0703 -0.1542 -0.4664
   51MOL   H33034430   7.307   5.460   0.717 -0.2996 -0.1441 -1.7016
   51MOL   H33134431   7.083   5.411   0.664  1.9595 -0.6711 -0.8588
   51MOL   H33234432   6.989   5.825   0.589 -0.7471  0.3510  1.0212
   51MOL   H33334433   7.211   5.882   0.673  3.5500 -0.7464  1.3981
   51MOL   H33434434   7.662   5.675   0.651 -3.2804 -1.8852 -1.4571
   51MOL   H33534435   7.863   5.562   0.773  0.5712  1.0054  1.3867
   51MOL   H33634436   8.103   5.408   1.007  1.2853  0.7279  0.5055
   51MOL   H33734437   8.264   5.532   1.148  0.9722  2.1871  1.3619
   51MOL   H33834438   7.944   5.785   1.294 -2.4466 -0.3432 -0.6902
   51MOL   H33934439   7.777   5.646   1.174  0.5156  0.7993  0.9834
   51MOL   H34034440   7.577   5.473   1.092 -0.4074 -0.5654 -0.9676
   51MOL   H34134441   7.397   5.566   0.952  0.0320 -0.6583 -0.5509
   51MOL   C34234442   0.016   5.959   1.047 -0.6001  0.2443 -0.0462
   51MOL   C34334443   8.245   5.870   1.116 -0.3666 -0.1030  0.0841
   51MOL   C34434444   8.287   5.807   1.235  0.1966  0.4693  0.2542
   51MOL   O34534445   8.198   5.736   1.313 -0.0640 -0.5696  0.4718
   51MOL   C34634446   0.101   5.843   1.292  0.4469 -0.4562  0.9163
   51MOL   C34734447   0.184   5.933   1.224 -0.0781  0.3621  0.5177
   51MOL   C34834448   0.141   5.995   1.102 -0.6768 -0.0018  0.7239
   51MOL   C34934449   0.229   6.099   1.046  0.5703  0.1754  0.3529
   51MOL   O35034450   0.188   6.171   0.964 -0.6762 -0.2380  0.0377
   51MOL   C35134451   0.370   6.104   1.086 -0.0745 -0.2518 -0.5241
   51MOL   C35234452   0.425   6.213   1.153  0.2323 -0.2097  0.5323
   51MOL   C35334453   0.558   6.208   1.199 -0.0823  0.2892  0.0410
   51MOL   C35434454   0.637   6.095   1.176 -0.6756  0.5091 -0.2131
   51MOL   O35534455   0.756   6.093   1.242  0.3048 -0.0863 -0.3159
   51MOL   C35634456   0.871   6.122   1.171 -0.0046  0.6109  0.5614
   51MOL   C35734457   0.985   6.036   1.174 -0.4279  0.1750  0.1090
   51MOL   C35834458   1.092   6.068   1.088 -0.2896  0.6633  0.2380
   51MOL   C35934459   1.095   6.185   1.013  0.8415  0.0265  0.0016
   51MOL   C36034460   0.986   6.276   1.022  0.2434  0.3448 -0.0534
   51MOL   C36134461   0.868   6.243   1.093  0.1641 -0.0524 -0.3210
   51MOL   C36234462   0.582   5.988   1.102 -1.0898  0.1464  0.0394
   51MOL   C36334463   0.450   5.994   1.054 -0.4537  0.7506  0.2086
   51MOL   H36434464   8.291   5.999   0.954 -0.4848 -0.1800 -0.2782
   51MOL   H36534465   8.155   5.837   1.068 -0.8857  2.1513 -0.5093
   51MOL   H36634466   0.128   5.804   1.389  1.6603 -1.9462 -0.0125
   51MOL   H36734467   0.277   5.966   1.270  0.2720  1.2395 -0.7859
   51MOL   H36834468   0.364   6.301   1.159 -1.1636 -1.2597  2.5207
   51MOL   H36934469   0.598   6.286   1.262  1.5185 -1.2684  1.0259
   51MOL   H37034470   0.992   5.942   1.227  0.6938  1.8494  3.0696
   51MOL   H37134471   1.183   6.010   1.089 -0.0611  0.8427 -3.5401
   51MOL   H37234472   0.993   6.365   0.961 -0.6403  0.1549 -0.4308
   51MOL   H37334473   0.785   6.312   1.096  0.4584  0.4289 -2.6061
   51MOL   H37434474   0.639   5.901   1.074 -2.0279 -0.6081  0.4438
   51MOL   H37534475   0.409   5.913   0.995  1.0789 -0.0725  0.2332
   51MOL   C37634476   1.229   5.980   0.669  1.1900  0.3413 -0.3635
   51MOL   C37734477   1.173   6.047   0.778 -0.5319  0.0763  0.2741
   51MOL   C37834478   1.255   6.142   0.841  0.2876  0.3690  0.4009
   51MOL   O37934479   1.203   6.226   0.936 -0.8208 -0.5026 -0.4258
   51MOL   C38034480   1.388   6.161   0.801 -0.3935 -0.2182 -0.2447
   51MOL   C38134481   1.445   6.092   0.693  0.6473 -0.3187  0.2262
   51MOL   C38234482   1.364   5.992   0.629 -0.1545  0.3830 -0.5584
   51MOL   C38334483   1.414   5.904   0.521  0.3703  1.0027  0.3275
   51MOL   O38434484   1.349   5.896   0.415 -0.0165  0.0022 -0.6637
   51MOL   C38534485   1.548   5.833   0.532 -0.1342 -0.7832 -0.4636
   51MOL   C38634486   1.612   5.820   0.660  0.4698  0.3870 -0.0624
   51MOL   C38734487   1.742   5.759   0.675  0.0258 -0.3862  0.0420
   51MOL   C38834488   1.802   5.706   0.559 -0.0998 -0.5857 -0.0203
   51MOL   O38934489   1.919   5.637   0.579 -0.0422 -0.1648 -0.0107
   51MOL   C39034490   1.918   5.496   0.595 -0.9455  1.0622  0.4077
   51MOL   C39134491   1.808   5.425   0.658  0.1940  0.6954 -0.4231
   51MOL   C39234492   1.823   5.285   0.700 -0.4459  0.1758 -0.3384
   51MOL   C39334493   1.938   5.222   0.668  0.0829  0.2940  0.7861
   51MOL   C39434494   2.047   5.288   0.601  0.5851 -0.0265 -0.2794
   51MOL   C39534495   2.036   5.424   0.569 -0.1125  1.2092  0.0184
   51MOL   C39634496   1.743   5.721   0.433  0.2007 -0.2665 -0.1259
   51MOL   C39734497   1.622   5.786   0.416  0.4713  0.5816 -0.9131
   51MOL   H39834498   1.166   5.919   0.606 -0.5792  1.9589 -0.2275
   51MOL   H39934499   1.069   6.032   0.804 -0.1618 -2.1910  0.5892
   51MOL   H40034500   1.451   6.234   0.850 -0.5572 -1.3145  1.6648
   51MOL   H40134501   1.544   6.104   0.652  0.3233 -1.8438 -1.0432
   51MOL   H40234502   1.560   5.851   0.749 -0.4771 -1.8329  0.1916
   51MOL   H40334503   1.776   5.725   0.772 -1.3899 -0.6723  0.4553
   51MOL   H40434504   1.717   5.479   0.680  1.0041  1.7841  0.3208
   51MOL   H40534505   1.752   5.226   0.757  0.3029  1.2897  1.7848
   51MOL   H40634506   2.132   5.224   0.578  0.0136 -0.6352 -0.7423
   51MOL   H40734507   2.124   5.469   0.527  0.5409 -0.2080 -0.1733
   51MOL   H40834508   1.803   5.690   0.349 -0.4459 -0.3203 -0.5735
   51MOL   H40934509   1.584   5.803   0.317  1.4136  2.7984 -0.9240
   51MOL   C41034510   1.825   4.872   0.955 -0.0925  0.0367  0.2059
   51MOL   C41134511   1.864   4.926   0.832 -0.1186  1.0539 -0.2096
   51MOL   C41234512   1.929   5.045   0.821  0.3741 -0.7176 -0.7938
   51MOL   O41334513   1.965   5.093   0.701  0.7459  0.3745  0.5005
   51MOL   C41434514   1.958   5.120   0.934  0.2752  0.1662 -0.5845
   51MOL   C41534515   1.927   5.070   1.064 -0.6203 -0.0247  0.7000
   51MOL   C41634516   1.859   4.941   1.072 -0.3715 -0.2212 -0.4257
   51MOL   C41734517   1.818   4.879   1.200 -0.4493  0.0090 -0.2966
   51MOL   O41834518   1.718   4.817   1.213  0.4471  0.0870  0.4615
   51MOL   C41934519   1.917   4.896   1.313  0.6820 -0.4299 -0.1572
   51MOL   C42034520   1.860   4.907   1.444 -0.2580 -0.0755  0.1551
   51MOL   C42134521   1.946   4.906   1.555 -0.5781 -0.3087 -0.6700
   51MOL   C42234522   2.083   4.932   1.539  0.5467 -0.3672  0.8306
   51MOL   O42334523   2.173   4.947   1.640 -0.1532 -0.1218  0.4601
   51MOL   C42434524   2.177   4.842   1.720  0.2858 -0.3637 -0.1574
   51MOL   C42534525   2.105   4.853   1.843 -0.0500 -0.0858  0.0978
   51MOL   C42634526   2.110   4.756   1.945  0.9988 -0.3928  0.2458
   51MOL   C42734527   2.183   4.635   1.919 -0.2742 -0.3127  0.3689
   51MOL   C42834528   2.240   4.619   1.794 -0.1294  0.3891  0.1195
   51MOL   C42934529   2.235   4.718   1.694 -0.2637  0.1750  1.1674
   51MOL   C43034530   2.130   4.943   1.411 -0.2373  0.0576 -0.2162
   51MOL   C43134531   2.051   4.918   1.299 -0.2376  0.0886  0.0254
   51MOL   H43234532   1.760   4.786   0.958  0.3621 -0.2867  0.8052
   51MOL   H43334533   1.820   4.878   0.745 -0.4544 -0.0122  0.5394
   51MOL   H43434534   2.019   5.208   0.920 -0.7607  1.0941  0.6146
   51MOL   H43534535   1.957   5.124   1.153 -0.3342  1.6779 -0.4093
   51MOL   H43634536   1.754   4.887   1.451 -0.5900  1.0274 -1.4274
   51MOL   H43734537   1.910   4.891   1.656 -2.7797 -1.2400 -1.5640
   51MOL   H43834538   2.071   4.954   1.860  1.0848  0.3506 -0.2065
   51MOL   H43934539   2.074   4.769   2.046 -2.2323 -1.1631 -0.7286
   51MOL   H44034540   2.283   4.521   1.777 -1.4848  0.1778 -2.3839
   51MOL   H44134541   2.269   4.689   1.595 -1.8748  0.2474  0.5839
   51MOL   H44234542   2.236   4.964   1.398  0.6865 -2.1997  3.1913
   51MOL   H44334543   2.102   4.914   1.203  0.5304 -0.0328  0.4388
   51MOL   C44434544   2.489   4.541   2.187 -0.2194 -0.3184 -0.8857
   51MOL   C44534545   2.398   4.549   2.084 -0.0552  0.2297  0.2157
   51MOL   C44634546   2.263   4.541   2.114 -0.4365 -0.3107  0.0992
   51MOL   O44734547   2.175   4.532   2.012 -0.5016 -0.5176  0.1396
   51MOL   C44834548   2.220   4.536   2.248  0.3001 -0.4797  0.2731
   51MOL   C44934549   2.311   4.531   2.352  0.9107  0.7024  0.7226
   51MOL   C45034550   2.449   4.535   2.323  0.5754  0.8135  0.0899
   51MOL   C45134551   2.559   4.518   2.424  1.4224 -0.2632  0.4832
   51MOL   O45234552   2.642   4.432   2.415 -0.2834  0.0278  0.0498
   51MOL   C45334553   2.566   4.623   2.529  0.0960 -0.8118  0.3417
   51MOL   C45434554   2.497   4.748   2.518  0.1105  0.6955 -0.1730
   51MOL   C45534555   2.514   4.844   2.614 -0.0148  0.6159  0.8914
   51MOL   C45634556   2.606   4.827   2.718  0.0805  0.6693  0.2736
   51MOL   O45734557   2.624   4.937   2.797  0.4533  0.2333  0.1417
   51MOL   C45834558   2.574   4.940   2.921 -0.9324  0.3667 -0.3586
   51MOL   C45934559   2.439   4.961   2.951 -0.1512 -0.2531  0.4689
   51MOL   C46034560   2.383   4.954   3.081  0.2732  0.1606  0.4187
   51MOL   C46134561   2.466   4.910   3.187  1.1276  0.1892  0.0171
   51MOL   C46234562   2.604   4.888   3.162  0.2748 -0.3913 -0.2997
   51MOL   C46334563   2.653   4.900   3.031  0.3577  0.1063  0.3579
   51MOL   C46434564   2.682   4.708   2.730  0.2172 -0.8760 -0.2621
   51MOL   C46534565   2.663   4.611   2.634 -0.2455  0.3556  0.1881
   51MOL   H46634566   2.595   4.547   2.167  0.1499 -0.5194  0.9337
   51MOL   H46734567   2.433   4.541   1.982 -0.1525  1.1315  0.1118
   51MOL   H46834568   2.113   4.535   2.261  0.5887 -3.2427  2.9321
   51MOL   H46934569   2.276   4.524   2.454  2.4360  0.5378  1.2487
   51MOL   H47034570   2.431   4.763   2.433 -0.4557 -0.4683  0.0452
   51MOL   H47134571   2.478   4.944   2.597 -0.4463  0.2544 -0.3989
   51MOL   H47234572   2.390   5.006   2.866  0.6303 -0.8010 -0.2833
   51MOL   H47334573   2.280   4.979   3.100  0.2044  2.4771 -2.6378
   51MOL   H47434574   2.663   4.851   3.244 -0.8441  1.8364  1.5771
   51MOL   H47534575   2.752   4.863   3.007  0.3330  1.3815 -1.7850
   51MOL   H47634576   2.756   4.706   2.809  1.5324  0.1577 -1.4323
   51MOL   H47734577   2.717   4.518   2.644 -2.4352 -0.7605  2.2655
   51MOL   C47834578   2.114   5.062   3.387  0.0912 -0.3187 -0.4148
   51MOL   C47934579   2.196   4.957   3.342  0.3611  0.9059  0.4603
   51MOL   C48034580   2.336   4.971   3.357  0.1994 -0.2239  0.2786
   51MOL   O48134581   2.417   4.877   3.305  0.1074 -0.7648  0.4064
   51MOL   C48234582   2.390   5.081   3.429 -0.2489 -0.1523  0.8891
   51MOL   C48334583   2.312   5.194   3.460 -0.1832  0.1463  0.1937
   51MOL   C48434584   2.171   5.179   3.442 -0.5944  0.1099  0.2488
   51MOL   C48534585   2.095   5.299   3.501  0.3946 -0.6773 -0.3682
   51MOL   O48634586   2.139   5.412   3.484 -0.0383 -0.0946 -0.2436
   51MOL   C48734587   1.971   5.271   3.577 -0.1434 -0.3836  0.5144
   51MOL   C48834588   1.862   5.355   3.565  0.1507  0.6224 -0.5958
   51MOL   C48934589   1.740   5.314   3.628 -0.6257 -0.2100  0.6502
   51MOL   C49034590   1.741   5.200   3.716 -0.3010  0.1116  0.1210
   51MOL   O49134591   1.642   5.199   3.812 -0.6767 -1.0389 -0.1611
   51MOL   C49234592   1.514   5.190   3.762 -0.8510  0.2247  0.0144
   51MOL   C49334593   1.434   5.305   3.749  0.2282 -0.3203 -0.4226
   51MOL   C49434594   1.308   5.290   3.682  0.6683  0.4366  0.6257
   51MOL   C49534595   1.254   5.163   3.647  0.1902 -0.1941  0.0437
   51MOL   C49634596   1.333   5.049   3.676  0.2792 -0.3181  0.3545
   51MOL   C49734597   1.460   5.064   3.734 -0.3372  0.5698 -0.5151
   51MOL   C49834598   1.851   5.113   3.716 -0.2726  0.6560 -0.1850
   51MOL   C49934599   1.965   5.147   3.647 -0.2114  0.1870  0.4818
   51MOL   H50034600   2.006   5.062   3.385  0.0369 -0.3527  1.1712
   51MOL   H50134601   2.165   4.868   3.290  0.9193  1.3150 -0.5994
   51MOL   H50234602   2.497   5.093   3.431 -0.4149  1.3238  1.5395
   51MOL   H50334603   2.349   5.280   3.513 -1.1021  0.6408  0.0528
   51MOL   H50434604   1.864   5.450   3.513  0.0334  0.8982 -0.0961
   51MOL   H50534605   1.657   5.382   3.624  1.6556  2.6172  0.0149
   51MOL   H50634606   1.470   5.404   3.771 -1.0685  0.2017 -0.5820
   51MOL   H50734607   1.246   5.374   3.655  0.8521  0.6326  0.8075
   51MOL   H50834608   1.300   4.951   3.644  3.5925 -0.7527 -2.0055
   51MOL   H50934609   1.524   4.979   3.752  2.5373  2.6438 -0.4663
   51MOL   H51034610   1.837   5.023   3.774 -0.0188  1.0130  0.4310
   51MOL   H51134611   2.048   5.078   3.643 -0.1661  0.3181 -1.2402
   51MOL   C51234612   0.898   5.424   3.531  0.3047 -0.3068  0.6587
   51MOL   C51334613   0.998   5.335   3.497 -0.0036  0.5664 -0.1175
   51MOL   C51434614   1.037   5.230   3.585 -0.6756  0.1899 -0.1266
   51MOL   O51534615   1.143   5.144   3.570 -0.1565  0.3648 -0.6988
   51MOL   C51634616   0.959   5.205   3.700 -0.4591  0.2254 -0.6388
   51MOL   C51734617   0.855   5.289   3.731  0.1585 -0.3260 -0.5411
   51MOL   C51834618   0.826   5.405   3.651 -0.1274  0.7111 -0.6375
   51MOL   C51934619   0.717   5.501   3.694 -0.2896  0.2843  0.1986
   51MOL   O52034620   0.701   5.536   3.812 -0.4389  0.7699  0.1269
   51MOL   C52134621   0.618   5.547   3.596  0.1769 -0.7356  0.3117
   51MOL   C52234622   0.534   5.654   3.631  0.5364 -0.4617 -0.1733
   51MOL   C52334623   0.439   5.703   3.538  0.7965 -0.0177  0.0909
   51MOL   C52434624   0.410   5.638   3.415  0.1029 -0.9002 -0.7212
   51MOL   O52534625   0.311   5.678   3.332  0.1624  0.8578 -0.3532
   51MOL   C52634626   0.357   5.745   3.224 -1.3058 -0.2810  0.2546
   51MOL   C52734627   0.380   5.884   3.240  0.3642  0.3126  0.1632
   51MOL   C52834628   0.447   5.952   3.133 -0.0299  0.2143 -0.0132
   51MOL   C52934629   0.482   5.893   3.013  0.1589  0.0657 -0.6573
   51MOL   C53034630   0.449   5.755   2.997 -0.3732 -0.9277  0.1336
   51MOL   C53134631   0.390   5.683   3.099 -0.4518 -0.0849 -0.7790
   51MOL   C53234632   0.480   5.519   3.390  0.2789  0.6778 -0.5588
   51MOL   C53334633   0.589   5.479   3.474  0.2642 -0.0653 -0.3003
   51MOL   H53434634   0.873   5.505   3.464  1.1002 -0.7730 -0.1968
   51MOL   H53534635   1.048   5.356   3.404  0.5925 -0.4829 -0.0366
   51MOL   H53634636   0.988   5.120   3.760 -0.9357  0.4844 -0.0351
   51MOL   H53734637   0.794   5.285   3.819  1.0481 -0.3071  0.0909
   51MOL   H53834638   0.551   5.713   3.720 -3.9433  2.1076 -0.8227
   51MOL   H53934639   0.370   5.781   3.568 -0.8087 -2.3078  2.5615
   51MOL   H54034640   0.348   5.937   3.328  3.2582  1.3987  0.6227
   51MOL   H54134641   0.471   6.056   3.150 -0.8261  0.3284  0.4607
   51MOL   H54234642   0.465   5.705   2.902  2.7888  0.4510 -0.1059
   51MOL   H54334643   0.366   5.579   3.083 -0.2546 -0.2363 -0.1246
   51MOL   H54434644   0.464   5.472   3.294 -2.3921 -0.6761  0.5219
   51MOL   H54534645   0.642   5.387   3.451  2.1779  0.8457  0.3243
   51MOL   C54634646   0.893   6.106   2.896  0.1396 -0.1924  0.1438
   51MOL   C54734647   0.756   6.076   2.881 -0.2970  0.4604  0.2596
   51MOL   C54834648   0.688   5.971   2.948 -0.1444  0.0893  0.1651
   51MOL   O54934649   0.555   5.960   2.922 -0.0142  0.0837  0.1493
   51MOL   C55034650   0.763   5.889   3.040  0.2814  0.4703 -0.1164
   51MOL   C55134651   0.899   5.920   3.060  0.1059 -0.3722  0.3714
   51MOL   C55234652   0.963   6.020   2.983 -0.3173 -0.4799 -0.1428
   51MOL   C55334653   1.105   6.034   2.990  0.6135 -0.4355  0.0293
   51MOL   O55434654   1.156   6.142   3.019  0.8788 -0.2092  0.8419
   51MOL   C55534655   1.191   5.911   2.969  0.0940  0.9343 -0.2112
   51MOL   C55634656   1.328   5.917   3.015  0.1814  0.0337 -0.3383
   51MOL   C55734657   1.421   5.817   3.008  1.0068 -0.4033 -0.4298
   51MOL   C55834658   1.381   5.691   2.955  0.1444 -0.5444  0.0809
   51MOL   O55934659   1.472   5.591   2.956  0.3919 -0.0716  0.2234
   51MOL   C56034660   1.516   5.545   2.834  1.0065  0.3010 -0.3441
   51MOL   C56134661   1.502   5.609   2.710  0.6537  0.3793 -0.3018
   51MOL   C56234662   1.542   5.551   2.589  0.8354 -0.6529 -0.5622
   51MOL   C56334663   1.606   5.426   2.597  0.1915  0.5703  0.3033
   51MOL   C56434664   1.638   5.366   2.716 -0.6350 -0.0793  0.0259
   51MOL   C56534665   1.588   5.423   2.835  0.0716 -0.1779 -0.6144
   51MOL   C56634666   1.247   5.671   2.905 -0.7091 -0.2450  0.0064
   51MOL   C56734667   1.158   5.782   2.914 -0.0132 -0.1030  0.1227
   51MOL   H56834668   0.945   6.186   2.844  0.3285 -0.5783 -0.2704
   51MOL   H56934669   0.690   6.144   2.829 -1.2344 -0.9900 -0.4859
   51MOL   H57034670   0.712   5.814   3.098  0.1615  0.8440  0.2649
   51MOL   H57134671   0.955   5.873   3.140  2.1134  1.8394  0.3111
   51MOL   H57234672   1.357   6.008   3.066  0.8497  1.0499 -2.4765
   51MOL   H57334673   1.521   5.821   3.050  0.3217  2.5068  1.0931
   51MOL   H57434674   1.444   5.701   2.715 -1.5289 -1.0575  2.0269
   51MOL   H57534675   1.525   5.610   2.501 -0.1200 -1.7389 -1.1147
   51MOL   H57634676   1.688   5.271   2.723  0.7528  0.5275 -1.3111
   51MOL   H57734677   1.607   5.364   2.924 -1.0507 -0.4144 -0.5143
   51MOL   H57834678   1.227   5.578   2.854 -0.9999  0.5127 -1.2643
   51MOL   H57934679   1.070   5.773   2.852  1.9884 -2.9962 -2.4681
   51MOL   C58034680   1.596   5.507   2.153  0.1399  0.5577 -0.3057
   51MOL   C58134681   1.576   5.432   2.269 -0.4299 -0.1716 -0.1991
   51MOL   C58234682   1.669   5.431   2.373  0.2065  0.1317 -0.5279
   51MOL   O58334683   1.651   5.356   2.483 -0.0467 -0.3468 -0.1707
   51MOL   C58434684   1.797   5.489   2.347  0.1461 -0.1625 -0.5470
   51MOL   C58534685   1.829   5.561   2.228 -0.9168 -0.0716  0.5101
   51MOL   C58634686   1.724   5.566   2.132  0.0162  0.1813  0.5144
   51MOL   C58734687   1.759   5.638   2.005 -0.1702  0.0520 -0.1652
   51MOL   O58834688   1.871   5.683   1.979 -0.5606  0.2231  0.1279
   51MOL   C58934689   1.655   5.664   1.902 -0.3940  0.0832 -0.2304
   51MOL   C59034690   1.531   5.731   1.923  0.0286  1.0760 -1.1167
   51MOL   C59134691   1.437   5.740   1.820  0.3202  0.1598  0.5682
   51MOL   C59234692   1.461   5.688   1.688  0.2877 -0.5118  0.2228
   51MOL   O59334693   1.367   5.695   1.590 -0.0145 -0.7200  0.0607
   51MOL   C59434694   1.365   5.815   1.518 -0.4823  0.0177 -0.1356
   51MOL   C59534695   1.483   5.875   1.466  0.0463 -0.5117 -0.2119
   51MOL   C59634696   1.471   5.998   1.396  0.1977 -0.4096  0.4949
   51MOL   C59734697   1.347   6.061   1.377 -0.1780  0.5030 -0.1117
   51MOL   C59834698   1.231   6.001   1.431 -0.3868 -0.0323 -0.1273
   51MOL   C59934699   1.243   5.878   1.499 -0.2696 -0.1723 -0.0040
   51MOL   C60034700   1.585   5.626   1.664 -0.4012 -0.4476  0.1536
   51MOL   C60134701   1.685   5.622   1.766  0.5024 -1.1313 -0.1467
   51MOL   H60234702   1.505   5.517   2.095  0.6926  2.2315 -0.9055
   51MOL   H60334703   1.484   5.378   2.287 -0.4579  0.2778  1.0828
   51MOL   H60434704   1.885   5.475   2.408 -0.1527  1.2382  0.2198
   51MOL   H60534705   1.927   5.604   2.217  0.2511 -2.3412  1.7399
   51MOL   H60634706   1.514   5.772   2.021 -0.1135  1.8417 -1.4573
   51MOL   H60734707   1.337   5.778   1.834  0.5299  0.8703  0.1261
   51MOL   H60834708   1.575   5.822   1.482  0.3130 -0.4277 -1.4820
   51MOL   H60934709   1.554   6.052   1.353  0.8659 -0.6968  1.3995
   51MOL   H61034710   1.136   6.037   1.395  0.6077  2.1262 -0.7381
   51MOL   H61134711   1.151   5.831   1.532 -0.8361  2.1763  1.9472
   51MOL   H61234712   1.605   5.611   1.559  2.0889  3.0352  0.0331
   51MOL   H61334713   1.786   5.597   1.734  0.6025  0.2939 -0.9871
   51MOL   C61434714   1.508   6.507   1.324  0.3677 -0.6338 -0.3940
   51MOL   C61534715   1.457   6.386   1.271  0.1012  0.3528 -0.8069
   51MOL   C61634716   1.404   6.294   1.359  0.5649  0.2045  0.2314
   51MOL   O61734717   1.342   6.182   1.306 -0.2816  0.2797  0.7433
   51MOL   C61834718   1.396   6.320   1.498  0.6291 -0.2792  0.2990
   51MOL   C61934719   1.450   6.431   1.556  0.2322 -0.1404  0.0272
   51MOL   C62034720   1.504   6.531   1.469 -0.0805 -0.4382 -0.8992
   51MOL   C62134721   1.549   6.659   1.526  0.1243  0.0174 -1.4762
   51MOL   O62234722   1.643   6.722   1.480 -0.1694 -0.3907 -0.3718
   51MOL   C62334723   1.472   6.712   1.641  0.1979 -0.3169 -0.5141
   51MOL   C62434724   1.333   6.754   1.625 -0.2814  0.0248  0.4117
   51MOL   C62534725   1.261   6.809   1.730  0.1129  0.1022  0.0674
   51MOL   C62634726   1.320   6.819   1.859 -0.0866 -0.7324 -0.5605
   51MOL   O62734727   1.253   6.869   1.969  0.2781  0.2343  0.8844
   51MOL   C62834728   1.253   7.006   1.990  0.4142 -0.1875  0.0124
   51MOL   C62934729   1.135   7.078   2.025  0.2087  0.7626 -0.1568
   51MOL   C63034730   1.143   7.218   2.055  0.7424 -0.1268  0.5495
   51MOL   C63134731   1.268   7.281   2.054 -0.4508  0.0391 -0.3532
   51MOL   C63234732   1.380   7.214   2.005  0.6826  0.4876 -0.0194
   51MOL   C63334733   1.372   7.080   1.975  0.1988  0.3554  0.7466
   51MOL   C63434734   1.456   6.776   1.874  0.3518 -0.2635  1.1205
   51MOL   C63534735   1.534   6.739   1.763 -0.4069 -0.0934 -0.1307
   51MOL   H63634736   1.559   6.582   1.267  1.8052 -1.4669 -0.2429
   51MOL   H63734737   1.459   6.357   1.167  1.3202  0.7568 -0.9086
   51MOL   H63834738   1.344   6.253   1.565  1.4237 -1.2840 -0.0763
   51MOL   H63934739   1.439   6.451   1.662  1.8354 -0.5293  0.2727
   51MOL   H64034740   1.294   6.748   1.525 -3.3669 -2.6224  1.6657
   51MOL   H64134741   1.157   6.833   1.715 -0.2436 -1.2093  0.4016
   51MOL   H64234742   1.039   7.032   2.038 -0.3034  1.4853 -1.2895
   51MOL   H64334743   1.049   7.264   2.083  0.4622 -1.0054  1.0790
   51MOL   H64434744   1.479   7.256   2.011  1.3302 -1.1196  0.5662
   51MOL   H64534745   1.467   7.042   1.941 -0.6015  0.4244 -1.6587
   51MOL   H64634746   1.504   6.776   1.971  0.0626 -0.7155  1.2630
   51MOL   H64734747   1.635   6.705   1.778  0.3733  2.2303  0.0215
   51MOL   C64834748   1.027   7.582   2.300 -0.0053  0.5871  0.3739
   51MOL   C64934749   1.146   7.517   2.257  0.0257 -0.1222 -0.4121
   51MOL   C65034750   1.176   7.484   2.124 -0.1704  0.3248  0.2215
   51MOL   O65134751   1.287   7.412   2.096 -0.1529  0.1027 -0.2797
   51MOL   C65234752   1.089   7.521   2.025 -0.1459  0.5828  0.1759
   51MOL   C65334753   0.964   7.588   2.063 -0.2370 -0.0591 -0.0827
   51MOL   C65434754   0.938   7.616   2.201 -0.3761 -0.1941 -0.3786
   51MOL   C65534755   0.813   7.693   2.249 -0.9187  0.0479  0.3297
   51MOL   O65634756   0.795   7.713   2.364 -0.3304 -0.5233  0.3172
   51MOL   C65734757   0.720   7.740   2.151  0.5171  0.1900 -0.4805
   51MOL   C65834758   0.758   7.811   2.032  0.7318 -0.0757  0.6065
   51MOL   C65934759   0.660   7.852   1.940  1.0698  0.7222  0.2370
   51MOL   C66034760   0.524   7.827   1.969  0.0091  0.0897 -0.0555
   51MOL   O66134761   0.430   7.870   1.883  0.2418 -0.1640  0.2489
   51MOL   C66234762   0.373   7.779   1.804  0.6353  0.7995 -0.0145
   51MOL   C66334763   0.279   7.686   1.863  0.2504 -0.0116  0.7328
   51MOL   C66434764   0.218   7.588   1.783  0.5757 -0.4897  0.1690
   51MOL   C66534765   0.226   7.586   1.644 -0.5890  0.4894  0.5204
   51MOL   C66634766   0.314   7.683   1.582 -0.1403  0.6397 -0.0037
   51MOL   C66734767   0.399   7.766   1.662  0.0886 -0.5012  0.1865
   51MOL   C66834768   0.484   7.759   2.090  0.1289  0.4974 -0.4263
   51MOL   C66934769   0.583   7.718   2.178  0.3200 -0.6967  0.4163
   51MOL   H67034770   1.005   7.608   2.402 -0.7489 -2.4539  1.0423
   51MOL   H67134771   1.219   7.496   2.334  1.7153  0.4277 -1.8368
   51MOL   H67234772   1.105   7.495   1.922 -0.7686  2.8416 -0.5155
   51MOL   H67334773   0.897   7.615   1.983 -0.4174 -0.1866  0.0277
   51MOL   H67434774   0.862   7.833   2.013  0.8162 -1.7087 -0.9541
   51MOL   H67534775   0.689   7.902   1.850 -0.6267  1.2023 -0.0470
   51MOL   H67634776   0.265   7.685   1.970 -1.5006 -3.1385  0.5065
   51MOL   H67734777   0.168   7.509   1.836 -0.2223 -1.1785 -1.5794
   51MOL   H67834778   0.323   7.688   1.475  0.9635  0.8704  0.0979
   51MOL   H67934779   0.475   7.822   1.610  0.7905 -0.2264  1.4991
   51MOL   H68034780   0.378   7.748   2.109  0.3510 -0.0753  0.4769
   51MOL   H68134781   0.556   7.659   2.264 -0.1424  2.1230  2.2893
   51MOL   H68234782   0.178   7.508   1.587 -0.6075  1.1728 -0.4152
   52MOL     C134783   2.984   3.696   7.065  0.4106  0.5431  0.9969
   52MOL     C234784   2.887   3.800   7.064 -0.0016 -0.4857 -0.0442
   52MOL     C334785   2.843   3.844   6.943  0.1109  0.4038  0.0082
   52MOL     O434786   2.753   3.942   6.943 -0.4250 -0.1660 -0.2744
   52MOL     C534787   2.882   3.785   6.823  0.2730 -0.1673  0.5528
   52MOL     C634788   2.981   3.684   6.816 -0.4020  0.4152  0.7878
   52MOL     C734789   3.039   3.643   6.944  0.8361 -0.0395  0.3985
   52MOL     C834790   3.152   3.548   6.964 -0.2319 -0.2492 -0.5584
   52MOL     O934791   3.203   3.541   7.080  0.4436  0.5995  0.0614
   52MOL    C1034792   3.194   3.470   6.847 -0.5535 -0.3741 -0.5049
   52MOL    C1134793   3.323   3.465   6.808 -0.0453  0.6877 -0.0128
   52MOL    C1234794   3.365   3.388   6.695 -0.4295 -0.6913  0.4883
   52MOL    C1334795   3.276   3.315   6.620  0.3094  1.0576 -0.4024
   52MOL    O1434796   3.314   3.246   6.505 -0.2182  0.4139 -0.3743
   52MOL    C1534797   3.406   3.145   6.519 -0.3599 -0.5661 -0.4435
   52MOL    C1634798   3.394   3.057   6.625  0.0465 -0.0395  0.2274
   52MOL    C1734799   3.488   2.958   6.642 -0.1225  0.5147  0.2684
   52MOL    C1834800   3.593   2.933   6.551  0.7067  0.4953  0.1308
   52MOL    C1934801   3.598   3.021   6.441 -0.5130  0.5555  0.2777
   52MOL    C2034802   3.509   3.128   6.424 -0.7766  0.3548  0.1177
   52MOL    C2134803   3.139   3.320   6.659 -0.7848  0.1353 -0.4112
   52MOL    C2234804   3.102   3.398   6.769 -0.3289  0.4912 -0.7750
   52MOL    H2334805   3.020   3.657   7.159 -0.6757  0.4570  1.3813
   52MOL    H2434806   2.847   3.846   7.153 -1.1934 -1.4858 -0.0335
   52MOL    H2534807   2.844   3.835   6.735  3.5545  0.8474 -0.3820
   52MOL    H2634808   3.025   3.648   6.723 -0.1416 -1.0263  1.4456
   52MOL    H2734809   3.394   3.517   6.871  1.3033  0.0769 -0.9812
   52MOL    H2834810   3.468   3.386   6.661 -0.1140  0.7255  1.3134
   52MOL    H2934811   3.310   3.064   6.693  0.4098 -1.4733  0.8467
   52MOL    H3034812   3.481   2.904   6.735 -1.4285  0.3850  0.1053
   52MOL    H3134813   3.668   3.007   6.360 -2.2244  1.3750 -1.3684
   52MOL    H3234814   3.524   3.205   6.351  0.2005  1.6453  1.6446
   52MOL    H3334815   3.078   3.260   6.593 -1.0208  0.4253 -0.4623
   52MOL    H3434816   2.997   3.396   6.795 -0.7395  0.8331 -2.3263
   52MOL    H3534817   2.680   3.927   7.001 -0.3680  0.6563  0.0180
   52MOL    C3634818   3.590   2.524   6.376 -0.5640  0.1939 -0.0702
   52MOL    C3734819   3.598   2.663   6.414 -0.0312  0.5969 -0.5238
   52MOL    C3834820   3.661   2.705   6.535 -0.6774 -0.1099  0.2150
   52MOL    O3934821   3.685   2.835   6.575 -0.3843  0.5935 -0.0577
   52MOL    C4034822   3.712   2.603   6.617 -0.0439  0.3150 -0.5528
   52MOL    C4134823   3.685   2.465   6.591 -0.1923  0.2991  0.4996
   52MOL    C4234824   3.623   2.428   6.470  0.1829 -0.4196  0.3853
   52MOL    C4334825   3.584   2.290   6.448 -0.5930  0.1184  0.2498
   52MOL    O4434826   3.587   2.237   6.334  0.8368  0.1305 -0.0869
   52MOL    C4534827   3.538   2.215   6.568  0.9867 -0.3221  0.1538
   52MOL    C4634828   3.448   2.275   6.658  0.2688  0.2481  0.7825
   52MOL    C4734829   3.422   2.207   6.780  0.2415 -0.1988  0.3859
   52MOL    C4834830   3.473   2.079   6.796  0.7655  0.2492  1.4112
   52MOL    O4934831   3.471   2.029   6.923 -0.2028  0.2446 -0.1255
   52MOL    C5034832   3.545   2.102   7.017  0.1230 -0.0211  0.2604
   52MOL    C5134833   3.484   2.165   7.130  0.0255 -0.6205  0.7232
   52MOL    C5234834   3.564   2.243   7.214  0.7267 -0.3431 -0.2507
   52MOL    C5334835   3.701   2.255   7.187 -0.2497 -0.4648  0.0013
   52MOL    C5434836   3.766   2.179   7.085  0.1094 -0.4935  0.3513
   52MOL    C5534837   3.684   2.111   6.996 -0.0477 -0.7770  0.3779
   52MOL    C5634838   3.551   2.015   6.701 -0.6507  0.1452  0.5057
   52MOL    C5734839   3.582   2.081   6.584 -0.5392 -0.0246  0.6848
   52MOL    H5834840   3.543   2.499   6.282  1.6361  0.4304 -1.2625
   52MOL    H5934841   3.561   2.739   6.347 -0.2437  0.9711  0.0136
   52MOL    H6034842   3.763   2.630   6.709  0.1295  1.7255 -1.0499
   52MOL    H6134843   3.706   2.394   6.670  0.7972  1.8807  1.6773
   52MOL    H6234844   3.399   2.368   6.633 -1.6838 -1.0203 -0.2405
   52MOL    H6334845   3.362   2.253   6.857  2.7679  1.1824  1.5979
   52MOL    H6434846   3.377   2.155   7.137  0.0029 -1.7081 -0.9609
   52MOL    H6534847   3.518   2.282   7.304 -0.1576 -1.6684 -0.1118
   52MOL    H6634848   3.872   2.161   7.078 -0.0575 -1.1784 -0.4639
   52MOL    H6734849   3.720   2.055   6.910  2.3997  0.8488  0.2763
   52MOL    H6834850   3.586   1.913   6.708 -0.7272  0.0028 -1.0380
   52MOL    H6934851   3.631   2.031   6.502 -3.6516  1.4493 -2.2278
   52MOL    C7034852   3.751   2.257   7.612  0.5866 -0.0258 -0.0838
   52MOL    C7134853   3.745   2.243   7.476  0.6948 -0.0054 -0.1662
   52MOL    C7234854   3.745   2.359   7.397 -0.7300 -0.3465  0.0316
   52MOL    O7334855   3.771   2.344   7.260  0.3123 -0.4950 -0.1941
   52MOL    C7434856   3.728   2.484   7.450 -0.3465  0.4202  0.4054
   52MOL    C7534857   3.746   2.496   7.589 -0.3513  0.2505 -0.0728
   52MOL    C7634858   3.750   2.383   7.674 -0.4781 -0.1562 -0.3998
   52MOL    C7734859   3.768   2.409   7.820  0.2046  0.0654  0.6242
   52MOL    O7834860   3.813   2.521   7.853 -0.0718  0.1960  0.1223
   52MOL    C7934861   3.735   2.298   7.920  1.2214 -0.7034  0.7187
   52MOL    C8034862   3.838   2.257   8.003  0.3553  0.2108 -0.4934
   52MOL    C8134863   3.812   2.159   8.098  0.1415 -0.1318 -0.0136
   52MOL    C8234864   3.690   2.095   8.116 -0.2342 -0.0376 -0.7098
   52MOL    O8334865   3.679   2.002   8.216 -0.0791  0.6705 -0.0274
   52MOL    C8434866   3.578   1.914   8.216 -0.2597 -0.3789  0.4738
   52MOL    C8534867   3.472   1.912   8.306 -0.5681  0.0889  0.2979
   52MOL    C8634868   3.364   1.827   8.292  0.4191  0.3523 -0.1270
   52MOL    C8734869   3.365   1.727   8.192  0.0793 -0.1378 -0.0096
   52MOL    C8834870   3.472   1.722   8.101 -0.2643  0.2473 -0.4325
   52MOL    C8934871   3.562   1.828   8.105 -0.7525  0.4379 -0.6499
   52MOL    C9034872   3.590   2.137   8.025 -0.2753 -0.3750  0.0680
   52MOL    C9134873   3.612   2.237   7.926  0.0660  0.5830 -0.1509
   52MOL    H9234874   3.752   2.166   7.670 -0.3398  0.4619  0.7067
   52MOL    H9334875   3.743   2.139   7.448 -0.0983 -0.1318  0.3410
   52MOL    H9434876   3.727   2.573   7.389  0.0894 -0.1850 -0.4931
   52MOL    H9534877   3.756   2.597   7.626 -0.0784  0.4708 -0.7389
   52MOL    H9634878   3.924   2.321   8.004 -1.6185  2.9605  1.1879
   52MOL    H9734879   3.892   2.137   8.167 -1.1605  0.5262  1.7439
   52MOL    H9834880   3.467   1.975   0.081 -2.2560  0.4145 -0.0196
   52MOL    H9934881   3.285   1.844   0.051  2.6335  2.0605  1.9970
   52MOL   H10034882   3.491   1.643   8.030  1.6498 -1.1493  1.5556
   52MOL   H10134883   3.646   1.828   8.037  0.5288 -0.2510  0.8943
   52MOL   H10234884   3.494   2.088   8.030 -0.2772 -0.7117 -2.5117
   52MOL   H10334885   3.535   2.275   7.861 -1.4741 -1.1557  0.6066
   52MOL   C10434886   3.380   1.279   8.185  0.0538  0.5234 -0.2031
   52MOL   C10534887   3.382   1.418   8.209  0.7982 -0.0075  1.0310
   52MOL   C10634888   3.275   1.502   8.165  0.1170 -0.2872 -0.0326
   52MOL   O10734889   3.263   1.637   8.203 -0.0584  0.7915  0.0458
   52MOL   C10834890   3.169   1.435   8.097 -0.1155 -0.0209 -0.9077
   52MOL   C10934891   3.163   1.297   8.072  0.1297 -0.2484  0.0878
   52MOL   C11034892   3.271   1.219   8.112  0.7557 -0.4401  0.2212
   52MOL   C11134893   3.281   1.078   8.071  0.2096  0.4791 -0.2269
   52MOL   O11234894   3.381   1.012   8.085 -0.6199 -0.0071  0.1385
   52MOL   C11334895   3.161   1.018   8.002 -0.8595 -0.6698  0.0942
   52MOL   C11434896   3.035   1.013   8.071  0.4050 -0.4260  0.2452
   52MOL   C11534897   2.919   0.968   8.003  0.5214 -0.0326 -0.7753
   52MOL   C11634898   2.934   0.913   7.875  0.2651 -0.8422  0.1165
   52MOL   O11734899   2.826   0.895   7.795  0.2939 -0.0400 -0.3457
   52MOL   C11834900   2.730   0.799   7.834 -0.0364  0.6090 -0.4853
   52MOL   C11934901   2.760   0.664   7.812 -0.1284 -0.4748  0.6189
   52MOL   C12034902   2.662   0.564   7.840  0.1447 -0.6877 -0.0976
   52MOL   C12134903   2.534   0.611   7.888  0.4795 -0.3359 -0.3474
   52MOL   C12234904   2.509   0.747   7.914 -0.1687 -0.6593  0.0845
   52MOL   C12334905   2.606   0.840   7.884 -0.0180  0.3572 -0.2891
   52MOL   C12434906   3.062   0.908   7.809  0.8329 -0.3631  0.3221
   52MOL   C12534907   3.176   0.960   7.876 -0.1088  0.4233 -0.0115
   52MOL   H12634908   3.463   1.224   8.225 -1.6767 -1.6178  0.5489
   52MOL   H12734909   3.465   1.459   8.263  0.1967  2.0194  0.4632
   52MOL   H12834910   3.088   1.493   8.054  0.1444  0.7865 -0.3260
   52MOL   H12934911   3.078   1.261   8.017  0.0048 -0.4650  0.4237
   52MOL   H13034912   3.023   1.061   8.167  0.1827  1.2625 -0.6079
   52MOL   H13134913   2.822   0.981   8.050  1.3084 -1.7709  1.4097
   52MOL   H13234914   2.858   0.644   7.774  1.3907  2.2939  2.8269
   52MOL   H13334915   2.694   0.464   7.816  0.1531 -1.0753  1.4828
   52MOL   H13434916   2.413   0.780   7.951  0.8548  0.0509  2.1663
   52MOL   H13534917   2.582   0.944   7.901 -1.1095  0.3958 -1.9860
   52MOL   H13634918   3.064   0.879   7.705 -1.1100  0.4331  0.0456
   52MOL   H13734919   3.265   0.971   7.816 -1.2965  1.1475 -1.6867
   52MOL   C13834920   2.197   0.521   7.633  0.5212  0.0829  0.1679
   52MOL   C13934921   2.281   0.569   7.731  0.5567 -0.0104 -0.7126
   52MOL   C14034922   2.351   0.483   7.820 -0.2777  0.0072 -0.6653
   52MOL   O14134923   2.429   0.526   7.921  0.1928 -0.9139 -0.0390
   52MOL   C14234924   2.329   0.343   7.798  0.8918  0.3396  1.4357
   52MOL   C14334925   2.240   0.294   7.700 -0.3598 -0.2918  0.0191
   52MOL   C14434926   2.169   0.385   7.621  0.1751 -0.0100 -0.5992
   52MOL   C14534927   2.069   0.337   7.520  0.2256 -0.0937 -0.3215
   52MOL   O14634928   2.053   0.216   7.498 -0.0963  0.0359 -0.4964
   52MOL   C14734929   1.989   0.429   7.439  0.6418  0.2942 -0.1183
   52MOL   C14834930   1.883   0.500   7.492  0.1409 -0.4663  0.2622
   52MOL   C14934931   1.821   0.604   7.415 -0.3833  0.0687  0.0370
   52MOL   C15034932   1.862   0.624   7.281 -0.8853 -0.7624  0.0664
   52MOL   O15134933   1.805   0.719   7.200 -0.0312  0.1032 -0.2070
   52MOL   C15234934   1.674   0.760   7.210  0.7380  0.8091 -0.3412
   52MOL   C15334935   1.643   0.893   7.236 -0.2371 -0.1534  0.0608
   52MOL   C15434936   1.513   0.938   7.229  0.0014  0.4806 -0.0350
   52MOL   C15534937   1.403   0.855   7.204  0.0451  0.6639 -0.1648
   52MOL   C15634938   1.437   0.721   7.168 -0.3600 -0.3751  0.0197
   52MOL   C15734939   1.573   0.675   7.175  0.2144 -0.1031 -0.3864
   52MOL   C15834940   1.966   0.546   7.227 -0.0908  0.6581  0.5544
   52MOL   C15934941   2.029   0.448   7.307 -0.4206  0.1372 -0.1287
   52MOL   H16034942   2.142   0.594   7.574 -1.3377 -1.9143 -0.6523
   52MOL   H16134943   2.295   0.674   7.752  2.3453 -0.3281 -0.2543
   52MOL   H16234944   2.367   0.270   7.869 -2.7879 -1.4261  1.6746
   52MOL   H16334945   2.219   0.188   7.702  0.5965 -0.5114 -1.3485
   52MOL   H16434946   1.853   0.479   7.593  2.0703 -0.1620  0.9196
   52MOL   H16534947   1.737   0.657   7.457  0.7409  2.7541 -0.9831
   52MOL   H16634948   1.720   0.963   7.266 -0.5357  1.1071 -2.0653
   52MOL   H16734949   1.479   1.040   7.237  2.1704  1.4159 -2.1447
   52MOL   H16834950   1.352   0.658   7.146 -0.7734  0.9086 -2.1087
   52MOL   H16934951   1.604   0.573   7.158  1.0393 -0.3795  2.4842
   52MOL   H17034952   2.004   0.575   7.130 -1.1889  0.3988  0.0334
   52MOL   H17134953   2.112   0.393   7.264  2.1478  1.2616  3.1255
   52MOL   C17234954   1.045   0.660   7.355 -0.1049 -0.0862 -0.1887
   52MOL   C17334955   1.148   0.748   7.336 -0.1386  0.3260  0.3288
   52MOL   C17434956   1.155   0.830   7.223  0.5039  0.4071  0.0485
   52MOL   O17534957   1.272   0.909   7.202 -0.3988  0.3805 -0.6739
   52MOL   C17634958   1.058   0.814   7.122 -0.4252  0.0480 -0.5020
   52MOL   C17734959   0.963   0.712   7.129  0.8601 -0.3953  0.0914
   52MOL   C17834960   0.961   0.631   7.251 -0.3612  0.6727  0.3711
   52MOL   C17934961   0.856   0.525   7.260  0.1394  0.4060 -0.4327
   52MOL   O18034962   0.875   0.415   7.316  0.3619 -0.1610  0.2703
   52MOL   C18134963   0.724   0.563   7.195 -0.0814  0.6994 -0.6143
   52MOL   C18234964   0.665   0.463   7.114 -0.0244  0.1834 -0.6348
   52MOL   C18334965   0.544   0.485   7.047 -0.3944  0.2726  0.1895
   52MOL   C18434966   0.467   0.597   7.069  0.4345 -0.3669 -0.3124
   52MOL   O18534967   0.339   0.609   7.017  0.3974 -0.0923  0.8375
   52MOL   C18634968   0.244   0.661   7.096 -0.9256 -0.3558  0.1121
   52MOL   C18734969   0.191   0.591   7.202 -0.9833 -0.7976 -0.7597
   52MOL   C18834970   0.075   0.643   7.267 -0.0842 -0.3736  0.3887
   52MOL   C18934971   0.025   0.768   7.228  0.3374  0.2549 -0.5725
   52MOL   C19034972   0.089   0.846   7.132 -0.4113  0.5867 -0.0070
   52MOL   C19134973   0.196   0.791   7.061 -0.7790  0.3161 -0.5447
   52MOL   C19234974   0.528   0.703   7.146  0.3525  0.5822  0.0226
   52MOL   C19334975   0.652   0.684   7.208  0.4036 -0.4664 -0.3851
   52MOL   H19434976   1.035   0.604   7.447  2.4295 -1.8817 -0.9547
   52MOL   H19534977   1.216   0.763   7.419  0.1956  1.4108 -0.1408
   52MOL   H19634978   1.053   0.881   7.038 -0.0843 -0.1853 -0.7053
   52MOL   H19734979   0.893   0.697   7.048  0.6452 -0.9924  0.3869
   52MOL   H19834980   0.700   0.361   7.109 -4.0843 -1.3539  0.2945
   52MOL   H19934981   0.515   0.410   6.974  3.1967  0.0029 -1.0680
   52MOL   H20034982   0.211   0.486   7.211 -0.7969 -0.6516  0.6202
   52MOL   H20134983   0.023   0.581   7.339  1.5560  0.0757  1.9828
   52MOL   H20234984   0.061   0.948   7.111 -2.1664  0.1486  0.1273
   52MOL   H20334985   0.248   0.840   6.980  0.7830 -1.4618 -0.6302
   52MOL   H20434986   0.478   0.799   7.145 -1.4429 -0.3290 -1.3428
   52MOL   H20534987   0.686   0.765   7.271 -1.5828  0.8099 -0.8925
   52MOL   C20634988   8.039   0.720   7.584 -0.1926  0.7469 -0.1287
   52MOL   C20734989   8.073   0.749   7.452 -0.6413 -0.2530 -0.7244
   52MOL   C20834990   8.203   0.791   7.420 -0.4282  0.0658  0.1299
   52MOL   O20934991   8.225   0.817   7.288 -0.0988 -0.7501 -0.1635
   52MOL   C21034992   8.299   0.807   7.518 -0.4523  0.2979  0.1215
   52MOL   C21134993   8.269   0.766   7.651 -0.2402 -0.5682  0.3837
   52MOL   C21234994   8.138   0.725   7.682  0.4935  0.6719 -0.6745
   52MOL   C21334995   8.087   0.692   7.819 -0.7234  0.7799  0.4495
   52MOL   O21434996   7.970   0.683   7.851  0.0609 -0.0147 -0.0120
   52MOL   C21534997   8.191   0.676   7.920  0.2173  0.5559 -0.4947
   52MOL   C21634998   8.172   0.732   8.046  0.3116 -0.5284 -0.2027
   52MOL   C21734999   8.275   0.722   8.139  0.0562  1.0556 -0.1683
   52MOL   C21835000   0.074   0.636   8.119 -0.4920 -0.0827  0.3375
   52MOL   O21935001   0.179   0.645   8.205 -0.3427  0.1908  0.1827
   52MOL   C22035002   0.286   0.710   8.147  0.0544  0.2053  0.2161
   52MOL   C22135003   0.268   0.823   8.062 -0.0210  0.0608 -0.6028
   52MOL   C22235004   0.391   0.887   8.013  0.0174  0.3890 -0.0167
   52MOL   C22335005   0.519   0.856   8.065  0.1387 -0.5325  0.0014
   52MOL   C22435006   0.531   0.745   8.152 -0.0024  0.6024  0.6704
   52MOL   C22535007   0.416   0.668   8.185 -0.1736  0.5871 -0.5345
   52MOL   C22635008   0.082   0.561   7.998 -0.1047 -0.0341 -0.1241
   52MOL   C22735009   8.295   0.582   7.902 -0.6385  0.2442 -0.1117
   52MOL   H22835010   7.936   0.692   7.604  0.5344 -1.6982  0.3062
   52MOL   H22935011   7.994   0.736   7.379 -1.4946 -0.0918  0.1505
   52MOL   H23035012   0.086   0.840   7.496 -0.8358  1.0754 -0.4796
   52MOL   H23135013   0.030   0.790   7.726 -0.9620 -2.7806  1.8378
   52MOL   H23235014   8.093   0.805   8.058  0.8006  0.0782 -0.5834
   52MOL   H23335015   8.269   0.781   8.229  0.6131  2.4704 -1.0429
   52MOL   H23435016   0.173   0.849   8.018 -0.1039 -0.7535 -0.9081
   52MOL   H23535017   0.376   0.979   7.959 -0.4681  1.3027  1.6411
   52MOL   H23635018   0.629   0.714   8.186  0.5340  0.0749 -1.2519
   52MOL   H23735019   0.436   0.582   8.248 -0.7097  2.4280  2.2437
   52MOL   H23835020   0.152   0.482   7.977  0.2455  1.2434 -4.2739
   52MOL   H23935021   8.302   0.524   7.811  0.5322 -0.5216  0.4514
   52MOL   C24035022   0.801   1.080   8.310  0.8082 -0.3292  0.2594
   52MOL   C24135023   0.758   0.982   8.219  0.6822  0.0628 -0.2044
   52MOL   C24235024   0.672   1.025   8.115 -0.1402 -0.1669  0.2616
   52MOL   O24335025   0.627   0.930   8.029 -0.0396 -0.3937 -0.7475
   52MOL   C24435026   0.641   1.164   8.097 -0.8522  0.7336 -0.0595
   52MOL   C24535027   0.699   1.264   8.180 -1.0173 -0.1850 -0.3840
   52MOL   C24635028   0.771   1.217   8.297 -0.4923  0.2290  0.1995
   52MOL   C24735029   0.805   1.322   0.088  0.3858 -0.2835  0.4231
   52MOL   O24835030   0.823   1.436   0.053  0.0842 -0.3835 -0.3455
   52MOL   C24935031   0.827   1.275   0.225 -0.0698  0.7187  0.9747
   52MOL   C25035032   0.711   1.228   0.289  0.3575  0.1960  0.1997
   52MOL   C25135033   0.719   1.189   0.426 -1.3700  0.2362  0.0158
   52MOL   C25235034   0.841   1.206   0.497 -0.9648 -0.5059 -0.4080
   52MOL   O25335035   0.846   1.169   0.625  0.1907 -0.2843 -0.4968
   52MOL   C25435036   0.892   1.049   0.659 -0.5139  0.7432  0.1515
   52MOL   C25535037   1.030   1.038   0.674 -0.2122 -0.3515  0.1802
   52MOL   C25635038   1.080   0.913   0.722 -0.2431  1.0141  0.8633
   52MOL   C25735039   0.992   0.806   0.748  1.2123  0.1415 -0.0002
   52MOL   C25835040   0.852   0.821   0.726  0.4743 -0.2977 -0.5096
   52MOL   C25935041   0.802   0.941   0.673  0.2390  0.6806 -0.2377
   52MOL   C26035042   0.957   1.260   0.431 -0.6137  0.1598  0.1173
   52MOL   C26135043   0.951   1.296   0.295  0.6075  0.3182  0.6921
   52MOL   H26235044   0.860   1.054   0.083 -2.0830  1.3499  2.8659
   52MOL   H26335045   0.791   0.881   8.238 -1.3603 -1.6541 -5.0394
   52MOL   H26435046   0.570   1.202   8.024 -2.2377  1.1446  1.4721
   52MOL   H26535047   0.678   1.370   8.173  2.1581  0.3839 -1.8795
   52MOL   H26635048   0.621   1.207   0.232  1.9410 -3.3271 -1.1842
   52MOL   H26735049   0.638   1.139   0.478  0.0121 -1.0572  0.9764
   52MOL   H26835050   1.098   1.117   0.647 -0.5934 -0.4140 -1.0080
   52MOL   H26935051   1.185   0.905   0.747 -0.3043  2.5293  1.6978
   52MOL   H27035052   0.782   0.744   0.756 -2.9573  2.7894 -0.1810
   52MOL   H27135053   0.695   0.948   0.665 -0.2414 -2.6431  2.1515
   52MOL   H27235054   1.055   1.268   0.475 -0.0288  2.7754 -1.6156
   52MOL   H27335055   1.031   1.341   0.239 -0.3053 -0.4535 -1.2949
   52MOL   C27435056   0.942   0.339   0.774  0.3161  1.0247 -0.3028
   52MOL   C27535057   0.986   0.463   0.825  0.0691  0.1377  0.3793
   52MOL   C27635058   1.004   0.568   0.736  0.4758 -0.3650 -0.0656
   52MOL   O27735059   1.035   0.685   0.802 -0.0262 -0.1923  0.1107
   52MOL   C27835060   0.964   0.555   0.601 -1.3547 -0.0640  1.0381
   52MOL   C27935061   0.928   0.426   0.549  0.5736 -0.2404 -0.4955
   52MOL   C28035062   0.916   0.318   0.638 -0.0548  0.2698  0.5246
   52MOL   C28135063   0.860   0.187   0.593 -0.3580 -0.8628 -0.8188
   52MOL   O28235064   0.754   0.144   0.638  0.1567  0.0271  0.0356
   52MOL   C28335065   0.926   0.139   0.471 -0.6668  0.6241 -0.1401
   52MOL   C28435066   1.048   0.078   0.471 -0.4655  0.8480 -0.4732
   52MOL   C28535067   1.102   0.017   0.357 -0.3270  0.6637  0.1484
   52MOL   C28635068   1.044   0.030   0.234  0.2958  0.4712 -0.0237
   52MOL   O28735069   1.096   8.289   0.119 -0.4131 -0.0319 -0.0818
   52MOL   C28835070   1.162   0.058   0.026 -0.3440  0.4026 -0.2134
   52MOL   C28935071   1.149   0.024   8.204 -0.5270 -0.3911 -0.0068
   52MOL   C29035072   1.223   0.103   8.108  0.0685  0.6091  0.3139
   52MOL   C29135073   1.300   0.213   8.142  0.8252  0.2846  0.1470
   52MOL   C29235074   1.301   0.254   8.273 -0.5727 -0.1240 -1.0200
   52MOL   C29335075   1.238   0.177   0.064  0.1367 -0.4311  0.4178
   52MOL   C29435076   0.926   0.106   0.224  0.1775 -0.5562 -0.0368
   52MOL   C29535077   0.865   0.155   0.345  0.2587  0.0477  1.1842
   52MOL   H29635078   0.917   0.259   0.842  0.4368  0.1889 -1.2365
   52MOL   H29735079   1.010   0.486   0.928  2.5073 -0.0891 -0.0944
   52MOL   H29835080   0.970   0.633   0.527 -0.6396 -1.2645 -0.1895
   52MOL   H29935081   0.901   0.414   0.445 -1.3202 -0.3277 -0.0159
   52MOL   H30035082   1.114   0.078   0.557 -0.6008  0.4947 -0.3653
   52MOL   H30135083   1.202   8.291   0.363 -0.0489  1.3731  0.0356
   52MOL   H30235084   1.098   8.246   8.176 -0.6663 -0.5259  0.6809
   52MOL   H30335085   1.219   0.064   8.007  0.7480  1.6538 -0.1186
   52MOL   H30435086   1.359   0.339   8.307 -1.8342 -0.2119  1.4873
   52MOL   H30535087   1.259   0.207   0.166 -1.9537 -0.0655  0.7520
   52MOL   H30635088   0.882   0.116   0.127 -0.8552  0.5161  0.5283
   52MOL   H30735089   0.769   0.205   0.337  0.1835  0.1248  2.6012
   52MOL   C30835090   1.337   0.630   7.978 -0.1317  0.2073 -0.5980
   52MOL   C30935091   1.383   0.515   8.047 -0.1482  0.2673 -0.4991
   52MOL   C31035092   1.347   0.390   7.990 -0.1487  1.3614  0.1606
   52MOL   O31135093   1.381   0.273   8.050  0.1277  0.9200 -0.2502
   52MOL   C31235094   1.283   0.385   7.865  0.3469  1.4036  0.3904
   52MOL   C31335095   1.237   0.501   7.806  0.3918 -0.1585  0.3069
   52MOL   C31435096   1.261   0.627   7.860  0.3917  0.1157  0.0118
   52MOL   C31535097   1.207   0.755   7.805 -0.7436 -0.2746  0.5636
   52MOL   O31635098   1.177   0.769   7.683 -0.4543 -0.4534  0.7475
   52MOL   C31735099   1.186   0.871   7.891 -0.3099  0.1215 -1.0251
   52MOL   C31835100   1.119   0.862   8.019  0.1962 -0.3883 -0.6779
   52MOL   C31935101   1.090   0.983   8.083  0.1865 -0.2269 -0.4463
   52MOL   C32035102   1.121   1.107   8.026 -0.2627 -0.6286  0.3560
   52MOL   O32135103   1.093   1.224   8.089  0.3341 -0.3225  0.1548
   52MOL   C32235104   1.001   1.307   8.032  0.6106  1.1303 -0.1339
   52MOL   C32335105   0.909   1.264   7.930 -0.5311  0.2959  0.3386
   52MOL   C32435106   0.818   1.355   7.865  0.0215  0.3115 -0.3601
   52MOL   C32535107   0.820   1.493   7.908 -0.5487 -0.0101 -0.7523
   52MOL   C32635108   0.916   1.542   8.005 -1.1966  0.9975  0.4466
   52MOL   C32735109   1.000   1.443   8.062 -0.6502  0.3550  0.1204
   52MOL   C32835110   1.194   1.109   7.903 -0.5819 -0.2094 -0.1998
   52MOL   C32935111   1.223   0.994   7.834  0.4455 -0.2975  0.0531
   52MOL   H33035112   1.351   0.725   8.028  0.5842 -0.2049 -0.0107
   52MOL   H33135113   1.434   0.533   8.140  0.3810  0.7443 -0.8813
   52MOL   H33235114   1.253   0.288   7.829  0.5450  0.9371  1.4670
   52MOL   H33335115   1.179   0.505   7.715  0.1035  0.7868  0.5315
   52MOL   H33435116   1.096   0.766   8.063 -1.2941 -0.0916 -0.7862
   52MOL   H33535117   1.031   0.982   8.173 -0.3426 -0.6056 -0.7932
   52MOL   H33635118   0.908   1.162   7.897  2.1001  0.5440 -0.6280
   52MOL   H33735119   0.753   1.312   7.790  0.8701 -0.3166 -0.7519
   52MOL   H33835120   0.922   1.648   8.025  0.3649  1.2425 -1.1704
   52MOL   H33935121   1.081   1.481   8.123  0.1966 -2.0045  0.5352
   52MOL   H34035122   1.216   1.201   7.850 -1.4395  2.6839  4.2391
   52MOL   H34135123   1.275   1.002   7.740  0.9130 -1.0090  0.2468
   52MOL   C34235124   0.478   1.713   8.085  0.1702  0.3938  0.1547
   52MOL   C34335125   0.601   1.688   8.025  0.3457 -0.6977  0.6065
   52MOL   C34435126   0.615   1.585   7.931 -0.0690 -0.4473  0.4968
   52MOL   O34535127   0.730   1.573   7.860  0.2379 -0.0293  0.0345
   52MOL   C34635128   0.506   1.502   7.901 -0.3755  0.0584 -0.4231
   52MOL   C34735129   0.381   1.538   7.949  0.5424  1.2606  0.3462
   52MOL   C34835130   0.365   1.638   8.041 -0.3080 -0.4076  0.3058
   52MOL   C34935131   0.229   1.668   8.108  0.0165  0.6746 -0.7372
   52MOL   O35035132   0.152   1.573   8.127 -0.4535  0.0879 -0.1603
   52MOL   C35135133   0.187   1.807   8.129  0.4076 -0.3110 -0.7064
   52MOL   C35235134   0.181   1.864   8.259 -0.1030  0.3989  0.0708
   52MOL   C35335135   0.118   1.993   8.274 -0.4429  0.0638 -0.0592
   52MOL   C35435136   0.084   2.069   8.160  0.4444 -0.2359 -0.1360
   52MOL   O35535137   0.037   2.197   8.183  0.3952 -0.8051 -0.3280
   52MOL   C35635138   8.243   2.238   8.111  0.2846 -0.3886 -0.8517
   52MOL   C35735139   8.276   2.336   8.018 -0.4142 -0.4699 -0.0753
   52MOL   C35835140   8.178   2.412   7.951 -0.3182 -0.1579  0.6132
   52MOL   C35935141   8.043   2.402   7.990  0.8687 -0.3261  0.7781
   52MOL   C36035142   8.012   2.313   8.096 -0.5602 -0.5752 -0.1499
   52MOL   C36135143   8.108   2.228   8.149  0.9950  0.4073  0.0499
   52MOL   C36235144   0.100   2.015   8.031 -0.0287  0.0141 -1.5388
   52MOL   C36335145   0.149   1.884   8.016  0.9642  0.1572  0.0590
   52MOL   H36435146   0.466   1.797   8.151  1.5816 -1.0898  2.4009
   52MOL   H36535147   0.688   1.750   8.039 -0.2266  0.5651 -1.1897
   52MOL   H36635148   0.501   1.417   7.834 -2.6081  0.3223 -0.6261
   52MOL   H36735149   0.294   1.486   7.910 -0.1046  1.7604  1.1020
   52MOL   H36835150   0.212   1.813   0.036 -0.5050 -0.4413 -0.2598
   52MOL   H36935151   0.117   2.041   0.058  0.1737 -1.2358  0.6089
   52MOL   H37035152   0.063   2.360   7.986 -0.0264 -1.6925  0.2014
   52MOL   H37135153   8.210   2.490   7.884  0.2623 -0.2012  0.8299
   52MOL   H37235154   7.914   2.324   8.140 -0.5846 -0.5417 -0.2133
   52MOL   H37335155   8.080   2.168   8.235  0.5167  0.5934  0.0219
   52MOL   H37435156   0.093   2.086   7.949  1.0769  1.2485 -0.5896
   52MOL   H37535157   0.154   1.841   7.917 -0.2607  0.8433 -0.3120
   52MOL   C37635158   7.934   2.498   7.580 -0.2991  0.1852  0.7419
   52MOL   C37735159   7.969   2.522   7.715  0.4644  0.4265  0.2645
   52MOL   C37835160   7.908   2.447   7.808  0.1221 -0.3924 -0.7530
   52MOL   O37935161   7.938   2.479   7.939 -0.4297  0.0817 -0.6596
   52MOL   C38035162   7.816   2.342   7.774 -0.7667  0.2946 -0.2725
   52MOL   C38135163   7.789   2.310   7.637 -0.1599 -0.2583  0.2516
   52MOL   C38235164   7.841   2.395   7.536  0.1864  0.2003 -0.3957
   52MOL   C38335165   7.806   2.373   7.392 -0.4092 -0.1288  0.1344
   52MOL   O38435166   7.767   2.462   7.320  0.6501 -0.0795 -0.5416
   52MOL   C38535167   7.830   2.231   7.353  0.1809 -0.5623  0.8710
   52MOL   C38635168   7.760   2.180   7.243  0.9473 -0.0088 -0.2557
   52MOL   C38735169   7.791   2.054   7.182 -0.2510 -0.3070 -0.0812
   52MOL   C38835170   7.902   1.977   7.224 -0.1636 -0.0261 -0.2552
   52MOL   O38935171   7.920   1.848   7.181  0.0571  0.4025 -0.1140
   52MOL   C39035172   8.008   1.847   7.074 -0.9746 -0.1747 -0.9272
   52MOL   C39135173   7.979   1.886   6.942 -0.4270  0.7234  0.1088
   52MOL   C39235174   8.077   1.870   6.843  0.4478 -0.0885  0.3783
   52MOL   C39335175   8.210   1.829   6.877 -0.0697 -0.3458  0.4148
   52MOL   C39435176   8.239   1.790   7.007  0.7256  0.1151 -0.3552
   52MOL   C39535177   8.134   1.794   7.107 -0.8566 -0.0042  0.7124
   52MOL   C39635178   7.973   2.022   7.341 -0.5364 -0.2434 -0.0185
   52MOL   C39735179   7.941   2.153   7.397 -0.6980  0.6998 -0.0413
   52MOL   H39835180   7.976   2.559   7.502  0.2862  0.2417  1.1014
   52MOL   H39935181   8.046   2.595   7.734 -0.0685  1.4570 -1.4135
   52MOL   H40035182   7.777   2.282   7.854 -0.2898  3.5033  2.4516
   52MOL   H40135183   7.728   2.225   7.610  1.3170 -0.8430 -1.2888
   52MOL   H40235184   7.683   2.241   7.199  2.0185  0.4258 -1.5775
   52MOL   H40335185   7.731   2.006   7.106 -0.0800  2.0143 -1.7533
   52MOL   H40435186   7.877   1.913   6.921 -0.5629 -0.0090 -0.2050
   52MOL   H40535187   8.059   1.894   6.740  1.0795 -1.3027 -0.0200
   52MOL   H40635188   0.025   1.753   7.029 -0.0563 -1.6493  0.3090
   52MOL   H40735189   8.157   1.758   7.206  1.5404  1.5270  0.7576
   52MOL   H40835190   8.065   1.975   7.372  0.1900  1.0000 -0.2549
   52MOL   H40935191   8.010   2.196   7.468 -2.0257  1.3050  0.9026
   52MOL   C41035192   0.035   1.490   6.632  0.4521  0.1070  0.1805
   52MOL   C41135193   0.043   1.599   6.724 -0.0284  0.0953  0.4884
   52MOL   C41235194   8.295   1.723   6.690 -0.4179  1.4679 -0.9484
   52MOL   O41335195   8.306   1.826   6.781 -0.1580 -0.3514 -0.0460
   52MOL   C41435196   8.219   1.732   6.572 -0.3057  0.4434  1.1065
   52MOL   C41535197   8.198   1.621   6.489 -0.8408 -0.4503 -0.0769
   52MOL   C41635198   8.263   1.499   6.515 -0.4071 -0.8511 -0.7653
   52MOL   C41735199   8.238   1.390   6.420  0.6500  0.4970 -0.0757
   52MOL   O41835200   8.158   1.408   6.324 -0.1247 -0.1664 -0.0340
   52MOL   C41935201   8.298   1.260   6.437  0.5859 -0.5799  0.1410
   52MOL   C42035202   8.292   1.186   6.562 -0.5894  0.4060  0.4163
   52MOL   C42135203   0.030   1.054   6.570  0.0618 -0.0264 -0.2389
   52MOL   C42235204   0.082   0.992   6.456  0.9745  0.1043 -0.5909
   52MOL   O42335205   0.122   0.860   6.470 -0.4203 -0.4092  0.6372
   52MOL   C42435206   0.252   0.847   6.518 -0.0565 -0.8279  0.2668
   52MOL   C42535207   0.360   0.934   6.483  0.6211 -0.1575 -0.4226
   52MOL   C42635208   0.482   0.932   6.554 -0.2577  0.5580  0.0136
   52MOL   C42735209   0.497   0.839   6.662 -0.0294  0.2516 -0.5262
   52MOL   C42835210   0.391   0.751   6.702 -0.8427 -0.1428 -0.3520
   52MOL   C42935211   0.270   0.757   6.626  0.4732 -0.6414 -0.6869
   52MOL   C43035212   0.074   1.058   6.336  0.0916  0.2896 -0.1120
   52MOL   C43135213   0.034   1.191   6.325  0.0702 -0.7878 -0.1833
   52MOL   H43235214   0.091   1.402   6.657  1.4892  0.9217  0.7913
   52MOL   H43335215   0.112   1.596   6.807 -0.1548  2.2599  0.7017
   52MOL   H43435216   8.175   1.828   6.547  0.2731  0.3072 -0.4426
   52MOL   H43535217   8.133   1.632   6.404  0.0248  2.8230 -0.3795
   52MOL   H43635218   8.246   1.231   6.649 -0.3020  1.6204 -0.0362
   52MOL   H43735219   0.009   0.998   6.660 -3.0558 -1.2664 -1.6519
   52MOL   H43835220   0.355   1.002   6.400  0.0194  1.2878  0.7785
   52MOL   H43935221   0.562   1.000   6.528  1.1324 -0.0273  2.6660
   52MOL   H44035222   0.400   0.697   6.795 -0.6271  2.3824  1.1413
   52MOL   H44135223   0.181   0.704   6.658 -0.5761  1.0380 -0.7846
   52MOL   H44235224   0.118   1.007   6.252 -1.4031  0.3502 -0.9451
   52MOL   H44335225   0.056   1.238   6.231  0.7390 -2.4652 -0.8915
   52MOL   C44435226   0.848   0.598   6.582  0.5363 -0.1518 -0.2698
   52MOL   C44535227   0.763   0.705   6.593  0.5854 -0.3493  0.2974
   52MOL   C44635228   0.697   0.734   6.710  0.4775  0.4022 -0.0443
   52MOL   O44735229   0.616   0.844   6.728 -0.2268  0.2006 -0.0272
   52MOL   C44835230   0.723   0.655   6.823  0.5302  0.9968  0.8436
   52MOL   C44935231   0.809   0.542   6.815 -0.2686 -0.3692  0.3346
   52MOL   C45035232   0.872   0.509   6.693 -0.1114 -0.5075 -0.4325
   52MOL   C45135233   0.966   0.396   6.684  0.1422 -0.1521 -0.0414
   52MOL   O45235234   1.001   0.352   6.576 -0.0119  0.1317 -0.1211
   52MOL   C45335235   1.036   0.350   6.811  0.6792 -0.2234  0.1243
   52MOL   C45435236   1.114   0.430   6.892 -0.2576 -0.2051  0.6491
   52MOL   C45535237   1.178   0.373   7.008  0.1468 -0.4035  0.2727
   52MOL   C45635238   1.157   0.238   7.043 -0.1227 -0.2561  0.3223
   52MOL   O45735239   1.216   0.182   7.153 -0.4520 -0.2561  0.6273
   52MOL   C45835240   1.159   0.208   7.274 -0.2533  0.0877  0.1022
   52MOL   C45935241   1.034   0.145   7.315  0.3203 -0.4945  0.3668
   52MOL   C46035242   0.982   0.165   7.445 -0.2714 -0.5369 -0.3181
   52MOL   C46135243   1.062   0.239   7.537  0.7335 -0.1776  0.3181
   52MOL   C46235244   1.182   0.293   7.499  0.3073  0.2231 -0.0370
   52MOL   C46335245   1.233   0.282   7.367 -1.1654 -0.2496  1.0057
   52MOL   C46435246   1.081   0.159   6.959 -0.3253  0.1352  0.2661
   52MOL   C46535247   1.025   0.211   6.841  0.0746 -1.1423  0.3893
   52MOL   H46635248   0.920   0.590   6.502 -1.6163  1.0298 -2.3627
   52MOL   H46735249   0.760   0.785   6.520 -2.4558  0.0537  0.7632
   52MOL   H46835250   0.671   0.683   6.913 -2.5774 -1.2773 -0.1639
   52MOL   H46935251   0.821   0.484   6.906  2.1240  1.6764  1.3807
   52MOL   H47035252   1.128   0.536   6.871  0.6622 -0.7996 -1.9428
   52MOL   H47135253   1.227   0.443   7.074  1.0868 -1.2006  0.4396
   52MOL   H47235254   0.986   0.074   7.250 -0.9563 -0.4060  1.2015
   52MOL   H47335255   0.897   0.105   7.475 -0.1505 -0.9861 -0.8724
   52MOL   H47435256   1.248   0.335   7.573 -0.8825  0.7836  0.7226
   52MOL   H47535257   1.327   0.325   7.334 -1.8450  0.1914 -0.3942
   52MOL   H47635258   1.060   0.058   6.993  3.1662 -0.8099 -0.1818
   52MOL   H47735259   0.986   0.140   6.769 -1.7776 -0.3182  0.5452
   52MOL   C47835260   0.956   8.266   7.901 -0.0238  0.3329  0.4948
   52MOL   C47935261   0.945   0.078   7.833 -0.8962 -0.7531 -0.3172
   52MOL   C48035262   1.042   0.118   7.738 -0.1881  0.4375  0.1176
   52MOL   O48135263   1.027   0.234   7.669  0.7226  0.0070  0.7815
   52MOL   C48235264   1.152   0.034   7.715 -0.0009  0.2606  0.2316
   52MOL   C48335265   1.160   8.223   7.782  0.1591 -0.0412  0.1771
   52MOL   C48435266   1.068   8.187   7.880  0.1515 -0.7859 -0.3817
   52MOL   C48535267   1.081   8.053   7.943 -0.1796  0.0782 -0.0497
   52MOL   O48635268   0.984   7.991   7.987  0.4873  0.6289  0.1588
   52MOL   C48735269   1.216   7.987   7.939  0.5124  0.0202 -0.2894
   52MOL   C48835270   1.230   7.849   7.914  0.1137 -0.5705 -0.6146
   52MOL   C48935271   1.354   7.784   7.915 -0.2941  0.3025 -0.4817
   52MOL   C49035272   1.468   7.852   7.946  0.0305  0.2602 -0.0778
   52MOL   O49135273   1.594   7.797   7.931  0.3810  0.2591  0.5925
   52MOL   C49235274   1.703   7.833   8.011  0.8772  0.1153  0.4637
   52MOL   C49335275   1.785   7.947   7.983  0.1725 -0.6182 -0.1271
   52MOL   C49435276   1.906   7.972   8.059  0.0546 -0.0819  0.7767
   52MOL   C49535277   1.929   7.890   8.166  0.5543  0.4632  0.3756
   52MOL   C49635278   1.849   7.780   8.198  0.0468 -0.5341  0.4297
   52MOL   C49735279   1.736   7.752   8.122  1.6299  0.3467 -0.1043
   52MOL   C49835280   1.454   7.990   7.979  0.0616  0.3842  0.3065
   52MOL   C49935281   1.332   8.060   7.976  0.1207 -0.5924 -0.0217
   52MOL   H50035282   0.887   8.238   7.979 -0.0733 -0.7506  0.0559
   52MOL   H50135283   0.855   0.136   7.850 -1.9390 -1.7369 -2.3534
   52MOL   H50235284   1.232   0.066   7.649  0.4908 -0.4137  0.4833
   52MOL   H50335285   1.253   8.174   7.757  0.3184  0.1997  0.2876
   52MOL   H50435286   1.142   7.788   7.902 -0.2982 -0.5957  2.1696
   52MOL   H50535287   1.361   7.678   7.893  0.6197  0.5800 -1.5640
   52MOL   H50635288   1.762   8.026   7.914  0.5093  0.0021  0.4620
   52MOL   H50735289   1.953   8.067   8.038 -1.3623  0.2632 -1.0865
   52MOL   H50835290   1.866   7.721   8.288 -0.8629 -1.5699 -0.0709
   52MOL   H50935291   1.673   7.671   8.155  1.3151  1.5696  2.4359
   52MOL   H51035292   1.537   8.047   8.017 -1.5753  2.5868  0.7207
   52MOL   H51135293   1.331   8.162   8.009  2.8044 -0.0822 -1.4117
   52MOL   C51235294   1.959   8.237   0.109  0.0272  0.4163  0.5626
   52MOL   C51335295   1.938   8.109   0.054  0.1159 -0.3237  0.2213
   52MOL   C51435296   2.041   8.037   8.304  0.2915  0.2125  0.0491
   52MOL   O51535297   2.034   7.912   8.254 -0.0443  0.7589  0.2892
   52MOL   C51635298   2.170   8.096   8.308 -0.2017  0.5086  0.3850
   52MOL   C51735299   2.195   8.221   0.051 -0.5876  0.2115 -0.6489
   52MOL   C51835300   2.084   8.296   0.103  0.0139  0.2754  0.4497
   52MOL   C51935301   2.098   0.111   0.164  0.1362  0.2066 -0.5620
   52MOL   O52035302   2.037   0.137   0.273  0.0470 -0.5549 -0.3736
   52MOL   C52135303   2.188   0.213   0.106 -0.6520 -0.7934  0.5579
   52MOL   C52235304   2.237   0.318   0.195  0.0358  0.1584  0.0899
   52MOL   C52335305   2.312   0.426   0.134 -0.8375 -0.8053  0.6606
   52MOL   C52435306   2.361   0.421   8.311 -0.0287  0.4864  0.0841
   52MOL   O52535307   2.426   0.529   8.256  0.5787 -0.2016 -0.0057
   52MOL   C52635308   2.558   0.551   8.271  0.2737 -0.3928  0.2992
   52MOL   C52735309   2.648   0.448   0.005 -0.6328  0.4121  0.4491
   52MOL   C52835310   2.786   0.475   0.016 -0.3484 -0.5898  0.2757
   52MOL   C52935311   2.832   0.604   8.292 -0.2014  0.3731  1.0119
   52MOL   C53035312   2.747   0.706   8.238  0.3007  0.1640 -0.0724
   52MOL   C53135313   2.607   0.679   8.222 -0.3165 -0.1443 -0.0432
   52MOL   C53235314   2.311   0.317   8.226  0.3926 -0.0232  0.1858
   52MOL   C53335315   2.228   0.218   8.278 -0.0724 -0.3239 -0.0851
   52MOL   H53435316   1.874   8.288   0.151  0.0635  0.1518  0.9556
   52MOL   H53535317   1.840   8.068   0.072 -0.7665  1.3191 -0.7072
   52MOL   H53635318   2.258   8.044   8.272  0.2781  2.1922 -0.9638
   52MOL   H53735319   2.292   8.270   0.054 -1.1286  1.2995 -0.7541
   52MOL   H53835320   2.199   0.318   0.296  1.7337 -0.0329  0.7332
   52MOL   H53935321   2.352   0.504   0.197 -4.1016  0.4364  1.2955
   52MOL   H54035322   2.612   0.350   0.030 -2.1924  0.4812 -1.3750
   52MOL   H54135323   2.854   0.399   0.049  0.9359 -0.5124 -2.0545
   52MOL   H54235324   2.782   0.806   8.216 -2.3404  1.1130 -0.1427
   52MOL   H54335325   2.540   0.750   8.176 -1.5279 -0.5410  1.0785
   52MOL   H54435326   2.323   0.330   8.119  0.2249 -0.6608  0.0864
   52MOL   H54535327   2.201   0.139   8.209  2.7492 -1.8482  0.4414
   52MOL   C54635328   3.082   0.504   7.972 -0.3442 -0.9281  0.3514
   52MOL   C54735329   3.005   0.512   8.090 -0.7074  0.1672  0.4104
   52MOL   C54835330   3.043   0.606   8.188 -0.0786  0.6060 -0.6482
   52MOL   O54935331   2.966   0.637   8.298  0.2596  0.2132  0.8952
   52MOL   C55035332   3.148   0.694   8.164 -0.7365 -0.4357 -0.4772
   52MOL   C55135333   3.227   0.685   8.051  0.6134 -0.2549  0.2322
   52MOL   C55235334   3.198   0.586   7.957 -0.0943 -0.0340  0.4390
   52MOL   C55335335   3.282   0.577   7.833 -0.4471 -0.4935 -0.5785
   52MOL   O55435336   3.276   0.669   7.758 -0.0372  0.8258  0.3240
   52MOL   C55535337   3.360   0.453   7.801  0.6582 -0.4978 -0.2898
   52MOL   C55635338   3.361   0.343   7.892 -0.5778 -0.3311 -0.3520
   52MOL   C55735339   3.420   0.222   7.861 -0.0091  0.0012  0.0011
   52MOL   C55835340   3.502   0.205   7.753  0.0686  0.5231 -0.4714
   52MOL   O55935341   3.573   0.088   7.736  0.1413  0.3929  0.8032
   52MOL   C56035342   3.508   8.303   7.662 -0.5984 -0.3695 -0.3521
   52MOL   C56135343   3.514   8.309   7.520  0.1033  0.6492  0.2774
   52MOL   C56235344   3.439   8.210   7.451  0.2787 -0.1115  0.9188
   52MOL   C56335345   3.374   8.103   7.518 -0.2091  0.3671  0.2983
   52MOL   C56435346   3.373   8.096   7.659  0.1269  0.6841 -0.0480
   52MOL   C56535347   3.438   8.197   7.730 -0.3847  0.6420  0.6226
   52MOL   C56635348   3.502   0.311   7.661  0.1702  0.2552 -0.1610
   52MOL   C56735349   3.434   0.437   7.683 -0.4730  0.6993  0.3046
   52MOL   H56835350   3.046   0.435   7.897  0.2565  0.2985 -1.0762
   52MOL   H56935351   2.915   0.455   8.101 -0.5141 -0.2126  0.0206
   52MOL   H57035352   3.162   0.772   8.237  0.7825  1.5407 -2.7734
   52MOL   H57135353   3.312   0.749   8.033  0.1988  0.4141  0.6596
   52MOL   H57235354   3.301   0.358   7.981 -2.4261  0.5938 -1.7184
   52MOL   H57335355   3.407   0.140   7.931  1.4066 -1.4444 -1.3875
   52MOL   H57435356   3.567   0.074   7.468 -1.2679  0.1236 -1.9528
   52MOL   H57535357   3.435   8.220   7.343 -0.8602 -2.7057  0.6727
   52MOL   H57635358   3.320   8.014   7.704  2.6092 -0.9546 -0.0031
   52MOL   H57735359   3.444   8.189   7.838  0.1340  2.0077  0.6960
   52MOL   H57835360   3.563   0.303   7.573  2.9978  2.9735  1.4793
   52MOL   H57935361   3.419   0.517   7.613  2.5382 -0.5978 -1.9440
   52MOL   C58035362   3.506   7.808   7.216 -0.2057 -1.1302  0.1105
   52MOL   C58135363   3.457   7.925   7.282 -0.5112 -0.1779  0.1394
   52MOL   C58235364   3.375   7.906   7.396 -0.0883 -0.3919  0.5214
   52MOL   O58335365   3.307   8.015   7.446 -0.1510 -0.1893  0.5408
   52MOL   C58435366   3.354   7.777   7.447 -0.1759  0.7502 -0.5858
   52MOL   C58535367   3.419   7.666   7.394 -0.0556 -0.5160 -0.6836
   52MOL   C58635368   3.504   7.681   7.280 -0.5413 -0.3526  0.4556
   52MOL   C58735369   3.580   7.560   7.229 -0.3437 -0.0107 -0.6249
   52MOL   O58835370   3.551   7.446   7.259  0.1087  0.6519 -0.3200
   52MOL   C58935371   3.708   7.583   7.150  0.8957 -1.0467  0.1716
   52MOL   C59035372   3.753   7.479   7.067  0.8409 -0.5229 -0.5307
   52MOL   C59135373   3.872   7.494   6.994 -1.0637  0.2908  0.0781
   52MOL   C59235374   3.940   7.611   6.994  1.1763  0.0327 -0.1946
   52MOL   O59335375   4.048   7.625   6.913  0.0708  0.3648 -0.1872
   52MOL   C59435376   4.173   7.609   6.967  0.1494  0.8435 -0.1141
   52MOL   C59535377   4.287   7.623   6.887 -0.0417  0.8837 -0.0911
   52MOL   C59635378   4.419   7.610   6.946  0.0830  0.2457  0.1187
   52MOL   C59735379   4.435   7.575   7.079  0.1619  0.1877  0.0265
   52MOL   C59835380   4.324   7.558   7.160 -0.4109 -0.6416 -0.8575
   52MOL   C59935381   4.190   7.570   7.105  0.1830  0.5518  0.2011
   52MOL   C60035382   3.894   7.716   7.077 -0.2260 -0.2581 -0.0934
   52MOL   C60135383   3.777   7.703   7.163 -0.7999  0.5415  0.0367
   52MOL   H60235384   3.565   7.821   7.126  0.0132  2.6174  0.7188
   52MOL   H60335385   3.467   8.023   7.237 -0.2328 -0.1491  0.2678
   52MOL   H60435386   3.303   7.772   7.542 -1.0481  2.4068 -0.9487
   52MOL   H60535387   3.419   7.580   7.458 -2.3946 -0.3893 -0.4928
   52MOL   H60635388   3.702   7.384   7.068  1.1059 -0.6875 -1.7015
   52MOL   H60735389   3.897   7.414   6.926 -1.1754  1.3809 -1.2591
   52MOL   H60835390   4.278   7.634   6.780  1.5166  0.6872 -0.2545
   52MOL   H60935391   4.507   7.604   6.884  0.0581  0.7074  0.0324
   52MOL   H61035392   4.333   7.522   7.261  0.8833 -3.9057 -2.0766
   52MOL   H61135393   4.116   7.539   7.179 -1.0610 -0.8615 -1.5913
   52MOL   H61235394   3.959   7.802   7.088 -0.0702 -0.4004  0.1025
   52MOL   H61335395   3.757   7.777   7.239  0.0377 -0.0033  0.7938
   52MOL   C61435396   4.834   7.743   7.289  0.7147  0.4825 -0.6363
   52MOL   C61535397   4.744   7.642   7.251 -0.8429 -0.3521  0.1593
   52MOL   C61635398   4.637   7.667   7.168 -0.2016  0.4995  0.4443
   52MOL   O61735399   4.562   7.556   7.129  0.8285  0.2883  0.3214
   52MOL   C61835400   4.599   7.803   7.132  0.4609  0.1402  0.4356
   52MOL   C61935401   4.691   7.903   7.171  0.0431  0.2471  0.4941
   52MOL   C62035402   4.810   7.875   7.241  0.1387 -0.0854  0.6748
   52MOL   C62135403   4.899   7.992   7.272  0.3156  0.3743 -0.3664
   52MOL   O62235404   4.873   8.101   7.230 -0.7151  0.2768 -0.5078
   52MOL   C62335405   5.015   7.976   7.360 -0.6530 -0.3559 -0.4265
   52MOL   C62435406   5.143   8.022   7.317  0.1515 -0.0868  0.5997
   52MOL   C62535407   5.259   8.003   7.397 -0.9361 -0.4227 -0.4591
   52MOL   C62635408   5.242   7.937   7.521 -0.1516 -0.4333  0.6748
   52MOL   O62735409   5.352   7.913   7.596 -0.0942 -0.3972 -0.2287
   52MOL   C62835410   5.352   7.837   7.716  0.5830 -0.5351 -0.3800
   52MOL   C62935411   5.340   7.694   7.706  0.5131  0.5718 -0.0237
   52MOL   C63035412   5.333   7.611   7.825 -0.4400  0.3883  0.6032
   52MOL   C63135413   5.343   7.663   7.955 -0.3415  0.1527  0.2979
   52MOL   C63235414   5.358   7.809   7.960 -0.4351 -0.1456 -0.5625
   52MOL   C63335415   5.362   7.890   7.845  0.5723  0.4414  0.2826
   52MOL   C63435416   5.112   7.912   7.572 -0.3700  0.6840 -0.4523
   52MOL   C63535417   4.999   7.934   7.494  0.3128 -0.1765 -0.3174
   52MOL   H63635418   4.914   7.708   7.353  0.5064  0.4684 -0.3818
   52MOL   H63735419   4.763   7.546   7.298 -0.8077 -1.9950 -3.0886
   52MOL   H63835420   4.507   7.834   7.086 -0.2074 -0.7746  1.1284
   52MOL   H63935421   4.669   8.005   7.141 -0.9976 -0.3728 -0.9037
   52MOL   H64035422   5.158   8.070   7.221 -1.2294  1.8725  1.3353
   52MOL   H64135423   5.355   8.041   7.367 -1.1717  1.5304  1.1140
   52MOL   H64235424   5.338   7.653   7.606  2.1789 -2.4736  1.1214
   52MOL   H64335425   5.312   7.506   7.812 -0.7592  0.3763  1.2027
   52MOL   H64435426   5.360   7.863   8.054 -0.7706  0.5731 -0.9719
   52MOL   H64535427   5.371   7.997   7.857  0.2919  0.3184  1.6302
   52MOL   H64635428   5.093   7.879   7.673 -1.4270 -1.4226 -1.3036
   52MOL   H64735429   4.903   7.915   7.539  0.8824 -1.8409  0.2458
   52MOL   C64835430   5.551   7.292   8.029  0.9575  0.3538 -0.0209
   52MOL   C64935431   5.513   7.430   8.036  0.7036 -0.1419 -0.0900
   52MOL   C65035432   5.383   7.461   8.075  0.8369 -0.1511  0.6945
   52MOL   O65135433   5.338   7.589   8.071  0.3520  0.0076  0.1358
   52MOL   C65235434   5.288   7.360   8.107  0.2654 -0.1161 -0.2152
   52MOL   C65335435   5.329   7.226   8.092  0.3410 -0.6754  0.5301
   52MOL   C65435436   5.454   7.186   8.054 -0.2182  0.0881 -0.3305
   52MOL   C65535437   5.497   7.048   8.034  0.3507 -0.3978 -0.3796
   52MOL   O65635438   5.611   7.027   7.991  0.0188 -0.1595  0.3826
   52MOL   C65735439   5.411   6.936   8.066  0.0664  0.0806  0.4942
   52MOL   C65835440   5.374   6.910   8.196  0.2242 -0.9278 -0.3008
   52MOL   C65935441   5.292   6.797   8.222 -0.4353 -0.0171  0.0335
   52MOL   C66035442   5.242   6.720   8.112 -0.1026 -0.5943 -0.7949
   52MOL   O66135443   5.152   6.616   8.143 -0.1639 -0.1840  0.0326
   52MOL   C66235444   5.022   6.611   8.089 -0.5310 -0.1422 -0.1181
   52MOL   C66335445   4.910   6.662   8.163 -1.1752  0.5720 -0.1880
   52MOL   C66435446   4.780   6.649   8.103  0.4273  0.0412 -0.2613
   52MOL   C66535447   4.769   6.591   7.976 -0.0569 -0.5601  0.0193
   52MOL   C66635448   4.875   6.541   7.908 -0.2224  0.0696  0.0337
   52MOL   C66735449   5.002   6.555   7.964 -0.2158  0.2636 -0.6663
   52MOL   C66835450   5.276   6.750   7.978  0.3033  0.1556  0.0804
   52MOL   C66935451   5.369   6.853   7.956 -0.4494 -0.4601 -0.9966
   52MOL   H67035452   5.647   7.277   7.982  1.6952 -0.7514  1.7857
   52MOL   H67135453   5.588   7.505   8.012  1.5227 -0.9598 -0.1184
   52MOL   H67235454   5.186   7.381   8.136  0.8701 -1.0091  2.8226
   52MOL   H67335455   5.267   7.139   8.108  0.1843 -0.4458  1.2058
   52MOL   H67435456   5.407   6.982   8.270  2.0287 -0.6897 -1.3089
   52MOL   H67535457   5.259   6.775   0.010  1.7631 -0.9751  0.5836
   52MOL   H67635458   4.920   6.697   8.264 -1.3486 -1.7669  0.6872
   52MOL   H67735459   4.691   6.682   8.154  1.6742  2.2972  0.5361
   52MOL   H67835460   4.869   6.493   7.812 -2.2769 -0.3120  0.3397
   52MOL   H67935461   5.088   6.519   7.909 -1.2155 -3.4256  0.1050
   52MOL   H68035462   5.235   6.709   7.887  0.6007  1.3855 -0.6210
   52MOL   H68135463   5.392   6.883   7.855 -2.3853  1.0858 -1.0217
   52MOL   H68235464   4.673   6.603   7.928  0.6280 -0.6135 -1.3762
   53MOL     C135465   7.323   4.767   6.130 -0.3643 -0.1950  0.5251
   53MOL     C235466   7.422   4.685   6.078 -0.1956  0.1208  0.7580
   53MOL     C335467   7.496   4.600   6.163  0.2962  0.5189  0.4221
   53MOL     O435468   7.595   4.517   6.122  0.0756  0.0984  0.1890
   53MOL     C535469   7.463   4.601   6.298 -0.5087  0.6816  0.3336
   53MOL     C635470   7.364   4.688   6.348  0.1215  0.3090 -0.9417
   53MOL     C735471   7.294   4.777   6.264  0.9606  0.2029 -0.2664
   53MOL     C835472   7.193   4.880   6.307  0.1097 -0.4674 -0.2549
   53MOL     O935473   7.097   4.917   6.240  0.2724  0.1450  0.3035
   53MOL    C1035474   7.207   4.945   6.440 -0.2565  0.0715  0.2119
   53MOL    C1135475   7.095   5.003   6.510  0.4311 -0.1826  0.1068
   53MOL    C1235476   7.109   5.055   6.644  0.0340  0.3205 -0.7979
   53MOL    C1335477   7.237   5.066   6.699  0.0914  0.0561 -0.0762
   53MOL    O1435478   7.267   5.134   6.813  0.1046 -0.1103  0.3926
   53MOL    C1535479   7.203   5.098   6.932 -0.1588  0.3226 -0.0073
   53MOL    C1635480   7.177   4.964   6.972  0.7596  0.0882 -0.3431
   53MOL    C1735481   7.110   4.935   7.093 -0.4164  0.6629  0.0282
   53MOL    C1835482   7.061   5.032   7.178 -0.6958  0.4259  0.1105
   53MOL    C1935483   7.083   5.169   7.140 -0.3064 -0.1103  0.5546
   53MOL    C2035484   7.154   5.201   7.019 -0.8997  0.3830 -0.8101
   53MOL    C2135485   7.352   5.024   6.618 -0.1061 -0.6558  0.6441
   53MOL    C2235486   7.336   4.959   6.495  0.0028 -0.4327 -0.2046
   53MOL    H2335487   7.271   4.834   6.063  0.1479 -0.5042 -0.1924
   53MOL    H2435488   7.443   4.687   5.973  0.8857  0.1307  0.9749
   53MOL    H2535489   7.524   4.540   6.362  1.8995  1.0686 -1.5558
   53MOL    H2635490   7.346   4.688   6.454  1.3749 -2.4909 -0.6832
   53MOL    H2735491   7.003   5.005   6.453 -0.5164  2.4176  1.6298
   53MOL    H2835492   7.022   5.092   6.696  0.5347  1.5500 -0.8417
   53MOL    H2935493   7.207   4.877   6.915 -2.6616 -0.7266 -1.0290
   53MOL    H3035494   7.082   4.836   7.126 -1.5389  2.0789  3.6018
   53MOL    H3135495   7.054   5.250   7.205  0.8053  1.2567 -0.6114
   53MOL    H3235496   7.171   5.304   6.992 -0.0748  0.2885 -0.6927
   53MOL    H3335497   7.448   5.053   6.658 -0.0125  0.1656 -0.1425
   53MOL    H3435498   7.424   4.935   6.437 -0.0760  2.3883 -1.5512
   53MOL    H3535499   7.584   4.501   6.030 -2.2989  0.2549  0.4211
   53MOL    C3635500   6.632   5.010   7.214 -0.2810 -0.3147 -0.3553
   53MOL    C3735501   6.768   5.016   7.193 -0.0035 -0.7451 -0.2908
   53MOL    C3835502   6.859   4.997   7.304  0.2183  0.1328  0.0063
   53MOL    O3935503   7.001   4.992   7.292  0.1908  0.0959 -0.3071
   53MOL    C4035504   6.803   4.954   7.425  0.6224  0.3869  0.3856
   53MOL    C4135505   6.662   4.940   7.444 -0.1024  0.3894 -0.0781
   53MOL    C4235506   6.576   4.968   7.337 -0.6356  0.2054  0.0456
   53MOL    C4335507   6.427   4.953   7.349 -0.0322  0.5938 -0.4848
   53MOL    O4435508   6.369   4.842   7.339 -0.2688  0.1254  0.4886
   53MOL    C4535509   6.342   5.075   7.373 -0.2016 -0.1820 -0.2504
   53MOL    C4635510   6.200   5.072   7.383 -0.5528  0.9904  0.6493
   53MOL    C4735511   6.125   5.188   7.409  0.4905 -0.0666  0.4131
   53MOL    C4835512   6.187   5.308   7.436  0.4331 -0.2848  0.0554
   53MOL    O4935513   6.104   5.418   7.466  0.0183  0.2454 -0.4228
   53MOL    C5035514   6.163   5.545   7.490 -0.3634 -0.3993  0.2694
   53MOL    C5135515   6.164   5.597   7.628  0.3000  0.0894 -0.1615
   53MOL    C5235516   6.224   5.722   7.653  0.2414 -0.3509 -0.2045
   53MOL    C5335517   6.295   5.789   7.552  0.0264  0.1962  0.1849
   53MOL    C5435518   6.297   5.741   7.420  0.1617  0.9270  0.0495
   53MOL    C5535519   6.231   5.619   7.392  0.8223  0.0806  0.5969
   53MOL    C5635520   6.325   5.309   7.422 -0.1815  0.5008 -0.0575
   53MOL    C5735521   6.404   5.195   7.392 -0.1445 -0.6160  0.1208
   53MOL    H5835522   6.575   5.029   7.124 -0.0218 -1.0565 -0.6719
   53MOL    H5935523   6.802   5.028   7.092 -0.1698  2.6229  0.0052
   53MOL    H6035524   6.868   4.926   7.506 -0.5931 -0.8741  0.9242
   53MOL    H6135525   6.616   4.905   7.536  2.7089 -0.2773  1.1337
   53MOL    H6235526   6.144   4.979   7.379  0.7031  0.0909  3.0992
   53MOL    H6335527   6.017   5.186   7.413  0.4205  1.0022 -0.8285
   53MOL    H6435528   6.108   5.542   7.703 -1.6173 -0.3077 -1.8493
   53MOL    H6535529   6.225   5.764   7.752 -1.8836  0.0152 -0.3328
   53MOL    H6635530   6.334   5.799   7.337  0.1657 -0.4333 -0.9199
   53MOL    H6735531   6.216   5.599   7.287  0.1945 -0.5447  0.7984
   53MOL    H6835532   6.379   5.402   7.432 -2.2056  1.5516  1.5787
   53MOL    H6935533   6.512   5.198   7.388 -0.1433  0.9796  0.8782
   53MOL    C7035534   6.713   5.787   7.639  0.2809  0.1137 -0.8967
   53MOL    C7135535   6.585   5.808   7.581  0.4314 -0.3411  0.0376
   53MOL    C7235536   6.485   5.891   7.636 -0.6220  0.1281  0.7491
   53MOL    O7335537   6.367   5.907   7.570 -0.2774 -0.1342  0.2055
   53MOL    C7435538   6.522   5.965   7.749 -0.1910 -0.0345  0.2163
   53MOL    C7535539   6.651   5.952   7.807  0.4079 -0.5892  0.7817
   53MOL    C7635540   6.752   5.866   7.753  0.2218 -0.4332  0.0719
   53MOL    C7735541   6.885   5.852   7.817  0.5753 -1.0990 -0.0446
   53MOL    O7835542   6.945   5.751   7.810  0.2096  0.0948 -0.2809
   53MOL    C7935543   6.928   5.979   7.900 -0.3562  0.8818 -0.3264
   53MOL    C8035544   6.974   5.971   8.036 -0.3067  0.0082  0.0198
   53MOL    C8135545   6.997   6.083   8.113 -0.0254  0.7240 -0.0953
   53MOL    C8235546   6.990   6.209   8.060  0.2868  0.6966  0.1368
   53MOL    O8335547   7.013   6.322   8.135  0.6004  0.2712  0.1909
   53MOL    C8435548   7.134   6.373   8.119 -0.1390 -0.2817  0.4290
   53MOL    C8535549   7.149   6.473   8.020  0.6474  0.5650  0.3930
   53MOL    C8635550   7.265   6.541   8.015 -0.2051  0.6850  0.7487
   53MOL    C8735551   7.378   6.512   8.101 -0.1461  0.0245  0.0093
   53MOL    C8835552   7.358   6.420   8.202  0.2406  0.3857 -0.1379
   53MOL    C8935553   7.235   6.349   8.211  0.6844 -0.2324  1.0040
   53MOL    C9035554   6.941   6.224   7.928  0.5242  0.0014 -0.5913
   53MOL    C9135555   6.917   6.109   7.843 -0.5171  0.4221 -0.0235
   53MOL    H9235556   6.778   5.712   7.598  1.4404  0.3421  0.4866
   53MOL    H9335557   6.559   5.760   7.487 -0.8634  0.2052  0.1021
   53MOL    H9435558   6.444   6.027   7.791 -0.1642 -0.2310  0.5621
   53MOL    H9535559   6.679   6.010   7.894 -0.2204 -0.1678  0.7029
   53MOL    H9635560   6.990   5.870   8.072 -1.9143  0.6462  2.6072
   53MOL    H9735561   7.047   6.075   8.209 -0.6481  0.5180  0.2189
   53MOL    H9835562   7.069   6.489   7.950  0.0815  0.9398  1.1184
   53MOL    H9935563   7.265   6.624   7.947  3.1528 -0.4364 -0.7188
   53MOL   H10035564   7.445   6.408   8.265  1.0184 -1.0391 -1.4467
   53MOL   H10135565   7.215   6.273   8.285 -3.0028  0.2604  0.6106
   53MOL   H10235566   6.933   6.321   7.883  0.8407  0.6444  0.7068
   53MOL   H10335567   6.884   6.113   7.740  2.6202 -0.6588 -1.1260
   53MOL   C10435568   7.453   6.914   7.927 -0.1524 -0.0909 -0.6022
   53MOL   C10535569   7.446   6.810   8.021  0.0095 -0.1461 -0.4487
   53MOL   C10635570   7.512   6.685   8.008 -0.2671  0.3979 -0.5852
   53MOL   O10735571   7.496   6.587   8.096  0.1370 -0.3083 -0.2287
   53MOL   C10835572   7.596   6.669   7.899 -0.3460 -0.6116  0.4343
   53MOL   C10935573   7.613   6.777   7.807 -0.5669 -0.2266 -0.2674
   53MOL   C11035574   7.541   6.899   7.816 -0.1354  0.4048  0.6390
   53MOL   C11135575   7.561   7.003   7.713 -0.3738  0.6595  0.9472
   53MOL   O11235576   7.600   6.978   7.601  0.2435  0.1654  0.3267
   53MOL   C11335577   7.531   7.142   7.756  0.4327 -1.0856  0.1073
   53MOL   C11435578   7.450   7.219   7.673  0.4645  0.0407 -0.1434
   53MOL   C11535579   7.415   7.353   7.700  0.5397 -0.7711 -0.1088
   53MOL   C11635580   7.460   7.413   7.814  0.3267  0.2577 -0.0327
   53MOL   O11735581   7.425   7.545   7.842  0.9292 -0.2724  0.3780
   53MOL   C11835582   7.504   7.633   7.776 -0.4910 -0.1469  0.3455
   53MOL   C11935583   7.444   7.743   7.714 -0.0365  0.1414  0.2111
   53MOL   C12035584   7.523   7.842   7.654 -0.0508 -0.5571 -0.3783
   53MOL   C12135585   7.662   7.835   7.657  0.1096  0.3601 -0.8998
   53MOL   C12235586   7.722   7.717   7.710 -0.4896 -0.1764 -0.1791
   53MOL   C12335587   7.643   7.622   7.769 -0.2437  0.3117 -0.1533
   53MOL   C12435588   7.533   7.336   7.906 -0.2341 -0.7457  0.1565
   53MOL   C12535589   7.577   7.202   7.875 -0.1988  0.3570  0.1442
   53MOL   H12635590   7.390   7.001   7.938  1.4164  0.7034  2.3836
   53MOL   H12735591   7.379   6.829   8.104 -0.5750 -0.8381 -0.7604
   53MOL   H12835592   7.644   6.576   7.873  2.7973  1.5788 -1.9992
   53MOL   H12935593   7.672   6.753   7.719  2.6092 -0.7655  1.9265
   53MOL   H13035594   7.411   7.177   7.581 -2.0541 -0.7656  1.2707
   53MOL   H13135595   7.357   7.397   7.621  2.6590 -0.3079 -1.4656
   53MOL   H13235596   7.336   7.746   7.715 -0.0040  1.7357  0.7060
   53MOL   H13335597   7.484   7.932   7.609  0.6707 -0.2536 -0.4107
   53MOL   H13435598   7.829   7.703   7.706 -0.0102  3.0278 -0.3194
   53MOL   H13535599   7.677   7.527   7.809 -1.9737 -0.0943  0.3771
   53MOL   H13635600   7.564   7.385   7.997  0.2248  1.7993 -1.3022
   53MOL   H13735601   7.629   7.138   7.945  0.7155  1.5366  0.5576
   53MOL   C13835602   7.953   8.097   7.855  0.1779 -0.2054 -0.0256
   53MOL   C13935603   7.843   8.038   7.788  0.0374 -0.1339 -0.1168
   53MOL   C14035604   7.852   7.978   7.656 -0.6678 -0.3129  0.3644
   53MOL   O14135605   7.739   7.935   7.596 -0.1079  0.2540  0.1838
   53MOL   C14235606   7.979   7.961   7.601 -0.8326  0.3010 -0.6779
   53MOL   C14335607   8.096   8.009   7.666 -0.3837 -1.2895  0.3922
   53MOL   C14435608   8.077   8.078   7.793 -0.2459 -0.4534 -0.3817
   53MOL   C14535609   8.198   8.146   7.852  0.0535  0.7788 -0.7058
   53MOL   O14635610   8.197   8.264   7.862 -0.0820 -0.0774  0.5012
   53MOL   C14735611   0.000   8.062   7.897 -0.0301  0.2011 -0.2617
   53MOL   C14835612   8.289   7.925   7.908  0.0464  0.5390 -0.1865
   53MOL   C14935613   0.079   7.836   7.941  0.6368  0.0003  0.1037
   53MOL   C15035614   0.211   7.879   7.954  0.0737  0.7258 -0.3203
   53MOL   O15135615   0.313   7.789   7.974 -0.5284  0.1414  0.6970
   53MOL   C15235616   0.390   7.801   8.090 -0.2854 -0.7293 -0.0044
   53MOL   C15335617   0.333   7.855   8.207 -0.0942 -0.2594 -0.5482
   53MOL   C15435618   0.420   7.873   0.011  0.2669  0.1230  0.2837
   53MOL   C15535619   0.557   7.840   0.002  0.5780 -0.5957 -0.6386
   53MOL   C15635620   0.609   7.775   8.195 -0.0045 -0.5015 -0.3367
   53MOL   C15735621   0.524   7.754   8.088 -0.2748 -0.1124  0.0810
   53MOL   C15835622   0.238   8.019   7.947 -0.1966 -0.0972 -0.4454
   53MOL   C15935623   0.132   8.111   7.921  0.0970 -0.4210  0.3477
   53MOL   H16035624   7.933   8.152   7.946  0.7717  0.4259 -0.2734
   53MOL   H16135625   7.744   8.062   7.824 -0.3100 -1.6500 -0.0602
   53MOL   H16235626   7.985   7.915   7.504 -1.7916 -4.0728  1.1699
   53MOL   H16335627   8.195   8.013   7.623  0.9155 -1.9142  3.1476
   53MOL   H16435628   8.196   7.873   7.891  0.6363 -1.8478  3.3104
   53MOL   H16535629   0.048   7.733   7.955 -0.5680 -0.0856 -2.9757
   53MOL   H16635630   0.230   7.886   8.211 -0.6492 -2.0300 -0.5041
   53MOL   H16735631   0.377   7.919   0.098 -4.1504 -1.2973 -1.0402
   53MOL   H16835632   0.715   7.759   8.183  0.4644  1.7108  0.5509
   53MOL   H16935633   0.552   7.704   7.997  0.4221 -0.2442  0.3664
   53MOL   H17035634   0.342   8.051   7.952  0.3002 -1.5694 -1.0475
   53MOL   H17135635   0.151   8.217   7.927 -4.7956  0.5801  0.5432
   53MOL   C17235636   0.997   7.922   0.014 -0.0008 -0.0114  1.3493
   53MOL   C17335637   0.859   7.950   0.026 -0.2370  0.3439  0.3916
   53MOL   C17435638   0.775   7.859   0.092 -0.1312 -0.8079 -0.4083
   53MOL   O17535639   0.640   7.883   0.105  0.3012  0.1887  0.2291
   53MOL   C17635640   0.832   7.754   0.163  0.1654  0.2764 -0.4945
   53MOL   C17735641   0.972   7.729   0.166  0.5971  0.2748 -0.7390
   53MOL   C17835642   1.052   7.810   0.081 -0.2179 -0.0526  0.6231
   53MOL   C17935643   1.196   7.775   0.076  0.1431 -0.6622  0.2900
   53MOL   O18035644   1.241   7.665   0.094  0.4745  0.2669 -0.6454
   53MOL   C18135645   1.295   7.882   0.064 -0.2131 -0.1737 -1.0753
   53MOL   C18235646   1.279   8.004   0.137 -0.5919  1.2465  0.1846
   53MOL   C18335647   1.376   8.099   0.130  0.6360  0.0790 -0.1355
   53MOL   C18435648   1.493   8.077   0.063 -0.4203 -0.1889  0.1957
   53MOL   O18535649   1.609   8.159   0.064 -0.2421  0.5540  0.3692
   53MOL   C18635650   1.611   8.283   0.130  0.1691  0.4095  0.1126
   53MOL   C18735651   1.628   8.286   0.271  0.0012 -0.3398 -0.0099
   53MOL   C18835652   1.645   0.098   0.332  0.4574  0.2232 -0.6319
   53MOL   C18935653   1.660   0.213   0.256  0.1758  0.2221 -0.7260
   53MOL   C19035654   1.636   0.206   0.120 -0.1091 -0.0503  0.3294
   53MOL   C19135655   1.603   0.087   0.054  0.3941  0.7729  0.4614
   53MOL   C19235656   1.509   7.960   8.301  0.0437 -0.5679  0.0643
   53MOL   C19335657   1.407   7.866   8.298 -0.4262  0.5266  0.9215
   53MOL   H19435658   1.054   7.997   8.274 -0.2133  0.5789  1.9571
   53MOL   H19535659   0.810   8.022   8.276  1.5774  0.0927 -1.3825
   53MOL   H19635660   0.762   7.696   0.222  0.5828  0.3932  0.1228
   53MOL   H19735661   1.007   7.644   0.223  1.2069  1.3789  0.5910
   53MOL   H19835662   1.183   8.022   0.183 -0.9548 -0.0051 -0.0479
   53MOL   H19935663   1.358   8.192   0.182 -0.4670  0.4999 -1.2438
   53MOL   H20035664   1.627   8.189   0.317  0.0306 -0.4699 -0.2805
   53MOL   H20135665   1.679   0.101   0.435  2.0409  0.7874 -1.1650
   53MOL   H20235666   1.637   0.300   0.065  0.6648  0.7149  1.6166
   53MOL   H20335667   1.588   0.093   8.260  1.5584 -1.7821  0.1349
   53MOL   H20435668   1.601   7.937   8.249  0.4193 -1.9882  1.3244
   53MOL   H20535669   1.422   7.772   8.246  0.5322  1.2624 -0.1560
   53MOL   C20635670   1.971   0.419   0.518  0.3677  0.2777  0.3054
   53MOL   C20735671   1.855   0.355   0.481  0.2307  0.2657  0.4702
   53MOL   C20835672   1.802   0.376   0.353 -0.2098  0.5201  0.1309
   53MOL   O20935673   1.680   0.334   0.320  0.0823  0.5493  0.5490
   53MOL   C21035674   1.870   0.455   0.262  0.0402 -0.1492  0.0322
   53MOL   C21135675   1.979   0.533   0.306 -0.4221  0.5183 -0.4536
   53MOL   C21235676   2.034   0.514   0.435 -0.0945 -0.3263  0.2288
   53MOL   C21335677   2.149   0.597   0.473 -0.4445 -0.2522 -0.3398
   53MOL   O21435678   2.241   0.617   0.396  0.0601  0.1632  0.2667
   53MOL   C21535679   2.154   0.662   0.604 -0.4028 -0.7569 -0.1966
   53MOL   C21635680   2.031   0.695   0.670 -0.1100  0.2051 -0.0568
   53MOL   C21735681   2.029   0.738   0.804 -1.2164  0.1423 -1.3034
   53MOL   C21835682   2.155   0.757   0.872 -0.1261  0.3953  0.3525
   53MOL   O21935683   2.156   0.809   0.997  0.4192 -0.0745 -0.4639
   53MOL   C22035684   2.230   0.751   1.094 -0.4835 -0.3142  0.3672
   53MOL   C22135685   2.210   0.613   1.129  0.0771 -0.1393 -0.7962
   53MOL   C22235686   2.280   0.562   1.240 -0.9390 -0.2153 -0.1606
   53MOL   C22335687   2.358   0.647   1.321  0.6299 -0.3910  0.7767
   53MOL   C22435688   2.384   0.778   1.279 -0.2409 -0.3195 -0.2140
   53MOL   C22535689   2.324   0.824   1.163  0.1353 -0.1486  0.5817
   53MOL   C22635690   2.277   0.726   0.804 -0.2726  0.0201 -0.1510
   53MOL   C22735691   2.276   0.680   0.674 -0.2391 -0.3605  0.5419
   53MOL   H22835692   2.000   0.394   0.619 -2.5107  1.1219  1.3949
   53MOL   H22935693   1.795   0.288   0.541  0.6105 -1.5002 -1.1004
   53MOL   H23035694   1.833   0.469   0.161 -0.7530  0.4148  0.3934
   53MOL   H23135695   2.027   0.605   0.242 -0.1981  0.0094 -0.8612
   53MOL   H23235696   1.937   0.692   0.618 -0.0192  0.6932 -0.2525
   53MOL   H23335697   1.937   0.769   0.852 -1.1318 -0.0206 -1.0342
   53MOL   H23435698   2.147   0.545   1.074 -0.8155 -1.2293  1.5457
   53MOL   H23535699   2.277   0.459   1.271 -0.4033 -0.3605 -0.5864
   53MOL   H23635700   2.457   0.836   1.333  0.3676 -0.6097 -0.7171
   53MOL   H23735701   2.337   0.925   1.128 -1.0547 -0.3768 -0.5813
   53MOL   H23835702   2.369   0.726   0.860  0.3547  1.4940 -1.1422
   53MOL   H23935703   2.364   0.647   0.621  0.0389 -3.1058  2.5691
   53MOL   C24035704   2.769   0.527   1.348  0.1987 -0.1085  0.1084
   53MOL   C24135705   2.636   0.563   1.330  0.1838  0.1247 -0.5184
   53MOL   C24235706   2.557   0.609   1.440 -0.5499  0.1674 -0.6128
   53MOL   O24335707   2.427   0.603   1.429  0.3880  0.1075 -0.5171
   53MOL   C24435708   2.623   0.645   1.565  0.4588 -0.1195 -0.1090
   53MOL   C24535709   2.763   0.629   1.579  0.3877  0.3738 -0.4976
   53MOL   C24635710   2.835   0.571   1.467 -0.0754 -0.3513  0.0001
   53MOL   C24735711   2.976   0.542   1.473 -0.6703  0.5507 -0.5777
   53MOL   O24835712   3.059   0.577   1.388 -0.0886 -0.3040  0.0409
   53MOL   C24935713   3.020   0.474   1.600  0.8147  0.1502  1.2379
   53MOL   C25035714   2.942   0.364   1.638  0.2854 -0.8079 -0.1317
   53MOL   C25135715   2.975   0.277   1.742 -0.0904  0.0961 -0.3395
   53MOL   C25235716   3.096   0.304   1.817  0.1475 -0.1553  0.3517
   53MOL   O25335717   3.142   0.208   1.906  0.1376 -0.3929  0.0165
   53MOL   C25435718   3.056   0.192   2.011 -0.5090 -0.8000 -0.0250
   53MOL   C25535719   3.099   0.255   2.131 -0.5348  0.2689  0.8537
   53MOL   C25635720   3.022   0.232   2.248  0.5003 -0.1607  0.2151
   53MOL   C25735721   2.900   0.162   2.240 -0.3570 -0.2964  0.1677
   53MOL   C25835722   2.854   0.110   2.115  0.5546 -0.9449 -0.2793
   53MOL   C25935723   2.940   0.113   2.006 -0.3255  0.6207  0.3978
   53MOL   C26035724   3.173   0.422   1.786 -0.1149  0.1730  1.0531
   53MOL   C26135725   3.135   0.508   1.678 -0.0461 -0.1558 -0.0224
   53MOL   H26235726   2.829   0.477   1.273  1.1853  0.6974  0.3344
   53MOL   H26335727   2.589   0.523   1.242  0.0568 -0.1123 -0.3434
   53MOL   H26435728   2.563   0.687   1.644 -0.6036 -1.2880 -0.2850
   53MOL   H26535729   2.811   0.658   1.672 -1.6489  1.1498  0.3534
   53MOL   H26635730   2.851   0.342   1.586  1.5908 -0.5489 -2.5936
   53MOL   H26735731   2.914   0.190   1.761  0.7529 -0.3825  0.2230
   53MOL   H26835732   3.202   0.286   2.137 -0.7322  1.6086 -1.7366
   53MOL   H26935733   3.053   0.264   2.347  0.5033 -1.4993  0.6538
   53MOL   H27035734   2.763   0.052   2.113  0.9406 -1.5936  1.0324
   53MOL   H27135735   2.915   0.054   1.919 -0.3656 -1.9638  2.1205
   53MOL   H27235736   3.266   0.431   1.840 -0.0901  1.0772  0.8676
   53MOL   H27335737   3.183   0.598   1.644 -0.8200 -0.1051 -1.0216
   53MOL   C27435738   2.674   8.128   2.462 -0.0153  0.1829  0.9061
   53MOL   C27535739   2.693   8.264   2.434  0.0788 -0.3248 -0.3306
   53MOL   C27635740   2.817   8.311   2.394  0.1619  0.8800 -0.1369
   53MOL   O27735741   2.829   0.129   2.357  0.3951 -0.1131  0.2374
   53MOL   C27835742   2.924   8.217   2.382 -0.5852  0.1475  0.1625
   53MOL   C27935743   2.904   8.080   2.414 -0.3286 -0.2103 -0.0192
   53MOL   C28035744   2.778   8.037   2.462 -0.3421  0.4045  0.1488
   53MOL   C28135745   2.753   7.900   2.507  0.1599  0.4088 -0.5411
   53MOL   O28235746   2.638   7.847   2.512 -0.7330 -0.4717 -0.0920
   53MOL   C28335747   2.866   7.817   2.536  0.3704  0.0648  0.7152
   53MOL   C28435748   2.880   7.691   2.477  0.0144  0.1330 -0.4151
   53MOL   C28535749   2.990   7.606   2.516 -0.2280  0.3870  0.3194
   53MOL   C28635750   3.075   7.642   2.622 -0.7568  0.1287  1.0867
   53MOL   O28735751   3.182   7.564   2.670  0.2895 -0.2969  0.0856
   53MOL   C28835752   3.159   7.454   2.746 -0.4446  0.1903  0.3459
   53MOL   C28935753   3.215   7.330   2.704 -0.5869  0.0269 -0.0130
   53MOL   C29035754   3.185   7.217   2.780 -0.2666 -0.0001 -0.2738
   53MOL   C29135755   3.101   7.231   2.892  0.7051  0.1984 -0.4295
   53MOL   C29235756   3.068   7.359   2.946  0.1940  0.2096 -0.4303
   53MOL   C29335757   3.089   7.472   2.868 -0.9064 -0.5319  0.7854
   53MOL   C29435758   3.058   7.767   2.684 -0.0736 -1.1541 -0.7083
   53MOL   C29535759   2.957   7.853   2.637  0.1764 -0.3631 -0.6113
   53MOL   H29635760   2.579   8.084   2.488  0.0025  0.1249  0.8760
   53MOL   H29735761   2.613   0.022   2.442  0.0394 -0.1178 -2.2886
   53MOL   H29835762   3.016   8.260   2.344 -0.6658  0.6748  0.5482
   53MOL   H29935763   2.992   8.018   2.415  1.3626  2.1341 -0.1328
   53MOL   H30035764   2.810   7.673   2.397 -0.8447 -0.8955  0.5561
   53MOL   H30135765   3.009   7.518   2.458  2.5294  0.2307  1.3793
   53MOL   H30235766   3.266   7.320   2.609 -1.1776  0.0414 -0.3356
   53MOL   H30335767   3.229   7.123   2.751  1.5260  0.5509  0.5756
   53MOL   H30435768   3.024   7.378   3.043 -0.0431  0.9626 -0.6809
   53MOL   H30535769   3.066   7.573   2.899  0.2877  0.0792 -0.2756
   53MOL   H30635770   3.119   7.797   2.768  0.2771 -0.0048 -1.3673
   53MOL   H30735771   2.948   7.944   2.694 -1.4295  0.2237 -1.7719
   53MOL   C30835772   2.814   7.119   3.220  0.2645 -0.4260 -0.0257
   53MOL   C30935773   2.941   7.118   3.158  0.3217 -0.2766  0.3385
   53MOL   C31035774   2.942   7.125   3.013  0.7109 -0.0656  0.2149
   53MOL   O31135775   3.063   7.114   2.954 -0.1043  0.0864  0.3070
   53MOL   C31235776   2.821   7.137   2.940 -0.0828 -0.0478 -0.2675
   53MOL   C31335777   2.697   7.160   3.010 -0.5739  0.5694  0.6044
   53MOL   C31435778   2.687   7.137   3.154 -0.3411 -0.4543 -0.1086
   53MOL   C31535779   2.564   7.151   3.233 -0.8852  0.8064 -0.7781
   53MOL   O31635780   2.565   7.177   3.357 -0.0403  0.1014  0.2860
   53MOL   C31735781   2.431   7.132   3.167  0.4079  0.5831 -0.4348
   53MOL   C31835782   2.321   7.189   3.238 -0.4324 -0.6186 -0.2628
   53MOL   C31935783   2.189   7.191   3.190  0.4837 -0.4399  0.6360
   53MOL   C32035784   2.165   7.142   3.060  0.5756  0.2450 -0.0666
   53MOL   O32135785   2.045   7.155   2.988  0.3951 -0.5309 -0.0150
   53MOL   C32235786   1.930   7.123   3.051  0.0914 -0.3750 -0.1876
   53MOL   C32335787   1.910   7.011   3.132  0.2740 -0.2844  0.8524
   53MOL   C32435788   1.785   6.985   3.192  0.2697  0.3121  0.3642
   53MOL   C32535789   1.678   7.070   3.162  0.1739  0.4237 -0.0268
   53MOL   C32635790   1.696   7.180   3.081  0.6600  0.0351 -0.2303
   53MOL   C32735791   1.822   7.210   3.028 -0.4329  1.3536  0.5877
   53MOL   C32835792   2.266   7.061   3.002  0.0969  0.0307 -0.3862
   53MOL   C32935793   2.397   7.059   3.052 -0.9168 -0.0553  0.3125
   53MOL   H33035794   2.810   7.113   3.327  0.4097  0.4330  0.0347
   53MOL   H33135795   3.031   7.123   3.217  0.8324 -1.0119 -0.3658
   53MOL   H33235796   2.832   7.136   2.833 -0.6907 -0.3902 -0.3331
   53MOL   H33335797   2.606   7.171   2.953  0.7422 -0.5019 -1.7607
   53MOL   H33435798   2.351   7.226   3.334  0.6843  1.2053 -1.2768
   53MOL   H33535799   2.111   7.241   3.246  2.0532 -0.6950  3.1356
   53MOL   H33635800   1.989   6.938   3.145 -1.5811 -2.4442  0.3895
   53MOL   H33735801   1.766   6.896   3.249 -1.9579  1.8744  2.1516
   53MOL   H33835802   1.610   7.232   3.042  1.5749 -0.0040 -2.3535
   53MOL   H33935803   1.831   7.289   2.955 -1.2943  0.4789 -0.4910
   53MOL   H34035804   2.231   7.009   2.914 -0.2179  1.0572 -0.8748
   53MOL   H34135805   2.465   7.000   2.993 -1.7760 -1.0567  0.3095
   53MOL   C34235806   1.326   6.862   3.010 -0.2160  0.3107 -0.1597
   53MOL   C34335807   1.448   6.908   3.061  0.4573  0.0334 -0.7929
   53MOL   C34435808   1.449   7.019   3.145  0.4392 -0.0550 -0.1434
   53MOL   O34535809   1.553   7.062   3.217  0.7602 -0.0236 -0.5255
   53MOL   C34635810   1.333   7.093   3.163  0.3364  0.3649  0.6627
   53MOL   C34735811   1.209   7.058   3.101 -0.2256 -0.5565  0.0960
   53MOL   C34835812   1.200   6.930   3.026  0.4331 -0.3801 -0.1397
   53MOL   C34935813   1.071   6.876   2.973  0.3477 -0.5183  0.4727
   53MOL   O35035814   0.963   6.923   3.013 -0.4519  0.5828 -0.1490
   53MOL   C35135815   1.068   6.774   2.867 -0.4108  0.8280  0.9107
   53MOL   C35235816   1.154   6.776   2.756 -0.2479 -0.1767  0.3417
   53MOL   C35335817   1.160   6.668   2.664 -0.0340 -0.0952  0.7536
   53MOL   C35435818   1.058   6.568   2.676  0.8516 -0.4393 -0.0463
   53MOL   O35535819   1.043   6.469   2.582 -0.4072 -0.3981  0.2862
   53MOL   C35635820   1.084   6.341   2.606  0.5692  0.7196  0.5589
   53MOL   C35735821   1.182   6.311   2.701 -0.1154 -0.3651 -0.4188
   53MOL   C35835822   1.235   6.184   2.724 -0.1632 -0.2187 -0.2994
   53MOL   C35935823   1.176   6.081   2.644  0.3542  0.0824 -0.0747
   53MOL   C36035824   1.068   6.104   2.555 -0.4724  0.8732  0.4109
   53MOL   C36135825   1.021   6.236   2.535 -0.7583  0.1688  0.1184
   53MOL   C36235826   0.960   6.574   2.778 -0.0605  0.6316 -0.0799
   53MOL   C36335827   0.968   6.675   2.879 -0.1946 -0.0718  0.1392
   53MOL   H36435828   1.319   6.771   2.952 -2.1074  2.0827 -2.8391
   53MOL   H36535829   1.540   6.862   3.027  0.7163 -1.7881  2.2578
   53MOL   H36635830   1.327   7.181   3.225 -1.9820 -1.2449  2.8071
   53MOL   H36735831   1.114   7.106   3.121 -0.7875 -1.7652  0.4294
   53MOL   H36835832   1.228   6.852   2.735 -1.0461  0.3157 -0.7200
   53MOL   H36935833   1.236   6.660   2.589 -2.0170 -1.5376 -1.1624
   53MOL   H37035834   1.206   6.392   2.769 -0.0585  0.1845 -1.0843
   53MOL   H37135835   1.311   6.167   2.798 -1.0559  0.0249  0.6891
   53MOL   H37235836   1.020   6.016   2.514 -0.9833  1.2497  0.1954
   53MOL   H37335837   0.939   6.265   2.471  1.0462  0.7150 -1.9958
   53MOL   H37435838   0.890   6.493   2.788  0.9040 -0.5155 -2.2035
   53MOL   H37535839   0.905   6.675   2.966 -0.6492  2.2163 -0.1703
   53MOL   C37635840   1.504   5.920   2.397  0.7806 -0.1797  0.9324
   53MOL   C37735841   1.374   5.920   2.451 -0.2964  0.2141  0.2248
   53MOL   C37835842   1.360   5.949   2.591 -0.5952  0.7581 -1.0133
   53MOL   O37935843   1.239   5.958   2.656 -0.0407  0.3403  0.2327
   53MOL   C38035844   1.477   5.979   2.663 -0.1433  0.5844 -0.5603
   53MOL   C38135845   1.603   5.962   2.604  0.4692 -0.3028 -0.4896
   53MOL   C38235846   1.619   5.921   2.469  0.6277  0.1325  0.1363
   53MOL   C38335847   1.751   5.919   2.398  0.3988 -0.0940  0.0116
   53MOL   O38435848   1.759   5.893   2.280  0.0124 -0.5372 -0.5861
   53MOL   C38535849   1.864   5.953   2.476  0.7252 -0.4592  0.5672
   53MOL   C38635850   1.958   5.856   2.513  0.0669 -0.0711 -0.3788
   53MOL   C38735851   2.069   5.887   2.588  0.1172  0.2213  0.4841
   53MOL   C38835852   2.092   6.024   2.620 -0.4359 -0.1023 -0.2008
   53MOL   O38935853   2.215   6.061   2.665 -0.1209 -0.1228 -0.1625
   53MOL   C39035854   2.264   5.995   2.776  0.1000  0.3519 -0.5201
   53MOL   C39135855   2.374   5.914   2.758 -0.2271 -0.0081 -0.3110
   53MOL   C39235856   2.425   5.837   2.864  0.1582 -1.2351  0.7107
   53MOL   C39335857   2.357   5.840   2.987  0.0597 -0.2293 -0.5871
   53MOL   C39435858   2.246   5.928   3.009  1.1903 -0.0969  0.5124
   53MOL   C39535859   2.203   6.000   2.899  0.0793 -0.2409 -0.3317
   53MOL   C39635860   1.998   6.124   2.585  0.4693 -0.6497 -0.1587
   53MOL   C39735861   1.880   6.089   2.516  0.2043  0.1040  0.0011
   53MOL   H39835862   1.515   5.899   2.291  0.8923  0.3825  0.8329
   53MOL   H39935863   1.284   5.914   2.391  0.5964  0.2930 -1.1663
   53MOL   H40035864   1.462   6.009   2.765  3.1727  0.5527 -0.0024
   53MOL   H40135865   1.680   5.972   2.679  1.0138  0.7156 -1.1755
   53MOL   H40235866   1.950   5.750   2.494 -0.0811 -0.1075 -0.1108
   53MOL   H40335867   2.153   5.823   2.609 -0.7150 -0.7614  0.8721
   53MOL   H40435868   2.425   5.925   2.663  0.7476  2.7033  0.4812
   53MOL   H40535869   2.513   5.780   2.843  1.6008  1.1012  0.1864
   53MOL   H40635870   2.202   5.938   3.107  1.1158 -0.4156  0.5115
   53MOL   H40735871   2.111   6.055   2.909 -0.0428 -0.6374  0.7102
   53MOL   H40835872   2.016   6.226   2.615 -0.8260 -0.8469  1.3393
   53MOL   H40935873   1.808   6.163   2.486  1.2272  0.3230 -2.0632
   53MOL   C41035874   2.699   5.926   3.227  0.0548  0.1271 -0.3220
   53MOL   C41135875   2.617   5.846   3.143 -0.2247 -0.1262  0.2525
   53MOL   C41235876   2.485   5.813   3.181 -0.3134  0.2331  0.4664
   53MOL   O41335877   2.397   5.755   3.090  0.2127  0.2463  0.1769
   53MOL   C41435878   2.439   5.855   3.306 -0.8498 -0.1674 -0.5308
   53MOL   C41535879   2.521   5.932   3.389 -0.2770 -0.6491  0.3624
   53MOL   C41635880   2.647   5.971   3.352 -0.3347 -0.1424 -0.3584
   53MOL   C41735881   2.734   6.054   3.445  0.4350 -0.1950  0.7018
   53MOL   O41835882   2.706   6.046   3.564  0.0116  0.5288  0.2104
   53MOL   C41935883   2.835   6.142   3.384 -0.0847 -0.3745  0.1806
   53MOL   C42035884   2.800   6.278   3.355  0.1357  0.3810  0.6033
   53MOL   C42135885   2.899   6.367   3.307  0.1728  0.2492 -0.9296
   53MOL   C42235886   3.034   6.321   3.297  0.1397 -0.3572 -0.3687
   53MOL   O42335887   3.130   6.415   3.262  0.7175  0.2717  0.1075
   53MOL   C42435888   3.151   6.441   3.129  0.2869 -0.2077 -0.2504
   53MOL   C42535889   3.283   6.450   3.088  0.4505 -0.0210  0.3089
   53MOL   C42635890   3.310   6.488   2.959 -0.6454 -0.0017 -0.0376
   53MOL   C42735891   3.208   6.535   2.868 -0.2237  0.3579  0.2260
   53MOL   C42835892   3.073   6.536   2.922  0.0740  0.2803  0.2280
   53MOL   C42935893   3.044   6.478   3.049  0.9460 -0.2666  0.4904
   53MOL   C43035894   3.071   6.193   3.341 -0.1567  0.2003 -0.3289
   53MOL   C43135895   2.972   6.108   3.385  0.4407  1.2005  0.6807
   53MOL   H43235896   2.800   5.949   3.199  0.7335 -2.8559 -0.4642
   53MOL   H43335897   2.647   5.814   3.044  1.1047  0.6821  0.3813
   53MOL   H43435898   2.340   5.833   3.342  0.1603 -0.1914  2.3231
   53MOL   H43535899   2.476   5.972   3.478 -1.7866  0.2050 -0.7748
   53MOL   H43635900   2.699   6.313   3.371 -0.2791 -0.1325 -0.8546
   53MOL   H43735901   2.864   6.467   3.291 -0.9773 -0.3109 -1.9694
   53MOL   H43835902   3.360   6.409   3.152  0.7777 -0.9142 -0.6410
   53MOL   H43935903   3.411   6.498   2.922 -1.3166  1.0412 -1.6519
   53MOL   H44035904   2.993   6.569   2.858  0.4797  0.7948 -0.0088
   53MOL   H44135905   2.943   6.490   3.084  1.2242  1.6823  0.7017
   53MOL   H44235906   3.177   6.179   3.355 -0.8214 -3.1697  1.7677
   53MOL   H44335907   2.994   6.008   3.421 -1.0789  1.3906  2.1533
   53MOL   C44435908   3.051   6.884   2.662 -1.0160  0.0208  0.2884
   53MOL   C44535909   3.128   6.788   2.731  0.0901 -0.4527  0.1750
   53MOL   C44635910   3.155   6.667   2.675 -0.4739  0.6491  0.3216
   53MOL   O44735911   3.241   6.581   2.741 -0.2610 -0.3695  0.5228
   53MOL   C44835912   3.114   6.631   2.543 -0.1479  0.3668 -0.0235
   53MOL   C44935913   3.042   6.729   2.471 -0.1833 -0.2575 -0.2633
   53MOL   C45035914   3.006   6.852   2.531 -0.3798 -0.7386  0.1966
   53MOL   C45135915   2.951   6.960   2.447  0.3348  0.2720  0.1640
   53MOL   O45235916   2.830   6.984   2.450  0.3673  0.4899  0.5655
   53MOL   C45335917   3.040   7.049   2.374  0.2386 -0.0492 -0.1931
   53MOL   C45435918   2.986   7.172   2.321  0.0468 -0.3888  0.1023
   53MOL   C45535919   3.076   7.265   2.261 -0.3259 -0.4432  0.0905
   53MOL   C45635920   3.211   7.236   2.241  0.0887  0.1107 -0.6989
   53MOL   O45735921   3.286   7.321   2.172 -0.8742 -0.0739 -0.0616
   53MOL   C45835922   3.361   7.411   2.248  0.2847  0.4708 -0.0471
   53MOL   C45935923   3.303   7.531   2.300 -0.3914  0.0596  0.4594
   53MOL   C46035924   3.371   7.615   2.391  0.7807  0.4369 -0.6373
   53MOL   C46135925   3.501   7.576   2.429 -0.0480  0.2773 -0.0895
   53MOL   C46235926   3.561   7.467   2.371  0.5077  0.0003  0.2750
   53MOL   C46335927   3.494   7.383   2.280 -0.2225 -0.6078  0.2337
   53MOL   C46435928   3.262   7.118   2.291 -0.0209 -0.2485 -0.6591
   53MOL   C46535929   3.178   7.025   2.359 -0.7566 -0.2038 -0.5055
   53MOL   H46635930   3.031   6.975   2.717  2.4067  1.3326 -0.5224
   53MOL   H46735931   3.160   6.796   2.833 -0.4049  0.8177  0.2398
   53MOL   H46835932   3.139   6.538   2.493 -0.0712  0.6576 -0.5354
   53MOL   H46935933   3.020   6.708   2.367 -0.0882 -3.0781  0.2510
   53MOL   H47035934   2.883   7.203   2.319  0.2924  0.5300  1.0502
   53MOL   H47135935   3.032   7.351   2.213 -1.8702 -0.6106  1.1738
   53MOL   H47235936   3.209   7.575   2.270  1.0088  1.9940 -1.2955
   53MOL   H47335937   3.333   7.708   2.430  0.7162 -1.0336  2.9944
   53MOL   H47435938   3.668   7.462   2.385  0.4658 -0.1693  0.5295
   53MOL   H47535939   3.548   7.300   2.235  0.4016 -1.0830  1.8256
   53MOL   H47635940   3.365   7.093   2.273  0.0008  0.3190 -1.3917
   53MOL   H47735941   3.221   6.931   2.391 -0.4440 -0.2228 -0.9723
   53MOL   C47835942   3.549   7.828   2.838 -0.0050  0.2521  0.3216
   53MOL   C47935943   3.571   7.814   2.701  0.0828  0.8749  0.5000
   53MOL   C48035944   3.544   7.690   2.637  0.1736 -0.1069  0.0679
   53MOL   O48135945   3.573   7.668   2.503  0.1564  0.0718  0.3919
   53MOL   C48235946   3.492   7.581   2.721  0.0600  0.0061 -0.0056
   53MOL   C48335947   3.471   7.604   2.855 -0.1694  0.2894 -0.1942
   53MOL   C48435948   3.501   7.726   2.919 -0.1410  0.0891  0.0298
   53MOL   C48535949   3.488   7.751   3.065  0.5073 -0.2671 -0.1492
   53MOL   O48635950   3.566   7.814   3.138  0.2854  0.5496  0.4078
   53MOL   C48735951   3.361   7.699   3.129 -0.2644  0.0728 -0.0348
   53MOL   C48835952   3.373   7.602   3.230 -0.1652 -0.0237  0.1941
   53MOL   C48935953   3.257   7.562   3.306 -0.1728  0.2128  0.1178
   53MOL   C49035954   3.131   7.615   3.269  0.0240  0.2395  0.6335
   53MOL   O49135955   3.016   7.602   3.350  0.0881  0.0161  0.9543
   53MOL   C49235956   3.008   7.501   3.441  0.3843 -0.9851 -0.5216
   53MOL   C49335957   2.969   7.369   3.409  0.2918  0.0136  0.9064
   53MOL   C49435958   2.973   7.267   3.503  0.6776 -0.6173 -0.9194
   53MOL   C49535959   3.002   7.308   3.636  0.2091  0.0095 -0.1505
   53MOL   C49635960   3.043   7.446   3.667  0.6463 -0.0985 -0.3276
   53MOL   C49735961   3.052   7.543   3.566  0.4796  0.0188 -0.4662
   53MOL   C49835962   3.123   7.692   3.150  0.3102  0.2331 -0.0035
   53MOL   C49935963   3.236   7.739   3.082 -0.0561 -0.1334  0.8186
   53MOL   H50035964   3.580   7.925   2.873  0.3778  0.0168  0.6373
   53MOL   H50135965   3.623   7.897   2.657  0.5187  0.7016  0.6935
   53MOL   H50235966   3.464   7.484   2.683  1.0450 -0.8092  1.3500
   53MOL   H50335967   3.429   7.522   2.912  0.3610  0.3665  0.3163
   53MOL   H50435968   3.469   7.559   3.254  0.4158  0.0043 -1.9169
   53MOL   H50535969   3.267   7.489   3.385 -3.2874 -1.3586 -0.8176
   53MOL   H50635970   2.941   7.351   3.306 -1.6273  1.1653  1.1933
   53MOL   H50735971   2.936   7.167   3.489  2.6786 -1.5955  0.6537
   53MOL   H50835972   3.067   7.469   3.770  2.2612 -2.2585 -0.1750
   53MOL   H50935973   3.094   7.641   3.579  0.7114 -0.1579  0.1327
   53MOL   H51035974   3.024   7.721   3.119 -0.4517  0.2900  2.4007
   53MOL   H51135975   3.226   7.817   3.008  3.3146  1.7199  2.2012
   53MOL   C51235976   2.691   7.295   3.934  0.5018 -1.0128 -0.1416
   53MOL   C51335977   2.774   7.261   3.825 -0.0382 -0.3833 -0.3149
   53MOL   C51435978   2.914   7.251   3.846 -0.2936 -0.4340  0.3365
   53MOL   O51535979   2.994   7.213   3.739  0.4526  0.4191 -0.1670
   53MOL   C51635980   2.961   7.290   3.972 -0.5791 -0.0992  0.3544
   53MOL   C51735981   2.878   7.332   4.073  0.2235 -0.1980 -0.3825
   53MOL   C51835982   2.743   7.330   4.057 -0.9668  0.1192  0.3426
   53MOL   C51935983   2.645   7.365   4.167 -0.0196  0.5621 -0.0668
   53MOL   O52035984   2.571   7.465   4.150  0.0626  0.2689 -0.6382
   53MOL   C52135985   2.623   7.273   4.278 -0.2031 -0.2646 -0.5632
   53MOL   C52235986   2.537   7.324   4.381  0.1190  0.5661 -0.3969
   53MOL   C52335987   2.511   7.245   4.494 -0.3929  0.1827  0.2615
   53MOL   C52435988   2.579   7.131   4.518  0.5244  0.0179  0.0704
   53MOL   O52535989   2.538   7.063   4.629 -0.1748  0.3398 -0.0586
   53MOL   C52635990   2.437   6.968   4.597  0.9308 -0.3548  0.7843
   53MOL   C52735991   2.478   6.837   4.575 -0.6117  0.0205  0.4894
   53MOL   C52835992   2.385   6.733   4.541  0.0790 -0.3545 -0.3080
   53MOL   C52935993   2.251   6.763   4.510 -0.8061 -0.3924  0.1375
   53MOL   C53035994   2.202   6.892   4.539  0.4330 -0.0645  0.5103
   53MOL   C53135995   2.295   6.994   4.587  0.3301 -0.0317  0.3321
   53MOL   C53235996   2.674   7.087   4.425 -0.5653 -0.1034 -0.1970
   53MOL   C53335997   2.695   7.153   4.304 -0.4540  0.6554 -0.0695
   53MOL   H53435998   2.585   7.302   3.918  0.5414 -3.2090 -1.6675
   53MOL   H53535999   2.727   7.230   3.732 -2.2783 -1.1434  1.0209
   53MOL   H53636000   3.067   7.290   3.993 -0.5970 -2.1698  0.5130
   53MOL   H53736001   2.921   7.355   4.170 -0.1920 -1.7185  0.1722
   53MOL   H53836002   2.480   7.415   4.366 -0.0432  0.3913 -0.8270
   53MOL   H53936003   2.439   7.281   4.567 -0.4387 -1.2589  0.9325
   53MOL   H54036004   2.585   6.824   4.580 -0.3821  1.3413 -0.6239
   53MOL   H54136005   2.427   6.634   4.526  2.4109  0.5240  0.2870
   53MOL   H54236006   2.097   6.916   4.538  0.5343  0.5055  1.7574
   53MOL   H54336007   2.263   7.097   4.596 -2.4967 -0.7810 -0.6249
   53MOL   H54436008   2.725   6.992   4.429  0.3214  0.1728 -3.5257
   53MOL   H54536009   2.756   7.108   4.227  2.5751  1.8477  1.5756
   53MOL   C54636010   2.170   6.324   4.591  0.4883  0.3816  0.1762
   53MOL   C54736011   2.214   6.437   4.528  0.3702 -0.3384  0.3175
   53MOL   C54836012   2.135   6.554   4.516 -0.1614  0.5759  0.1337
   53MOL   O54936013   2.169   6.671   4.455  0.0697  0.2184  0.1616
   53MOL   C55036014   2.003   6.550   4.564  0.0854 -0.3122  0.3981
   53MOL   C55136015   1.956   6.434   4.627  0.0513  0.0192  0.3933
   53MOL   C55236016   2.036   6.317   4.639  0.0559 -0.0584 -0.7611
   53MOL   C55336017   1.972   6.199   4.698 -0.0852 -0.2189 -0.3199
   53MOL   O55436018   1.849   6.193   4.723  0.0898  0.2622 -0.6095
   53MOL   C55536019   2.060   6.091   4.738  0.3093  0.0961 -0.1899
   53MOL   C55636020   2.055   5.964   4.672  0.4423 -0.3644  0.1787
   53MOL   C55736021   2.143   5.863   4.693 -0.0361 -0.2487 -0.4925
   53MOL   C55836022   2.257   5.882   4.775  0.4674 -0.5756  0.5395
   53MOL   O55936023   2.348   5.784   4.780  0.2696 -0.5545  0.6898
   53MOL   C56036024   2.316   5.675   4.860 -0.5010  0.3875 -0.2132
   53MOL   C56136025   2.359   5.550   4.814  0.0986  0.4835  0.5648
   53MOL   C56236026   2.319   5.430   4.883 -0.3007  0.1396  0.2787
   53MOL   C56336027   2.249   5.433   5.001 -0.0349  0.3640 -0.5631
   53MOL   C56436028   2.213   5.558   5.053 -0.4654 -0.1088  0.1083
   53MOL   C56536029   2.247   5.678   4.987  0.0806 -0.3788 -0.6399
   53MOL   C56636030   2.266   6.004   4.845  0.7055  0.8104  0.4347
   53MOL   C56736031   2.164   6.102   4.834  0.0968  0.5156 -0.3805
   53MOL   H56836032   2.231   6.235   4.588  1.3588  0.9798 -0.2665
   53MOL   H56936033   2.317   6.443   4.494  0.2185 -0.1900 -0.1246
   53MOL   H57036034   1.924   6.622   4.558  1.6150  1.4671  1.1659
   53MOL   H57136035   1.857   6.433   4.670 -0.0020 -1.4237  0.2618
   53MOL   H57236036   1.986   5.950   4.590  1.1804 -0.6491 -0.4007
   53MOL   H57336037   2.133   5.768   4.643  0.9786 -1.2164  1.0894
   53MOL   H57436038   2.411   5.552   4.720 -1.7128 -0.2157 -0.4823
   53MOL   H57536039   2.352   5.332   4.852  0.0833 -0.3396  2.1520
   53MOL   H57636040   2.168   5.557   5.151 -1.3327  0.0223 -0.2840
   53MOL   H57736041   2.236   5.776   5.032 -1.4913 -1.0095  0.4050
   53MOL   H57836042   2.347   6.029   4.912  0.8153  0.0756  0.5850
   53MOL   H57936043   2.161   6.195   4.890  1.6153 -0.4364  1.3396
   53MOL   C58036044   1.973   5.070   5.158 -0.7387 -0.8928  0.3498
   53MOL   C58136045   2.090   5.146   5.159  0.1253  0.3202 -0.3241
   53MOL   C58236046   2.134   5.224   5.053 -0.0012  0.0278  0.3574
   53MOL   O58336047   2.239   5.317   5.074 -0.1360 -0.5582  0.1648
   53MOL   C58436048   2.063   5.213   4.937  0.1690 -0.4906  0.7959
   53MOL   C58536049   1.951   5.131   4.926 -0.3374  0.4806 -0.4315
   53MOL   C58636050   1.899   5.059   5.037 -0.2260 -0.3573  0.0799
   53MOL   C58736051   1.785   4.963   5.033  0.4098  0.0898  0.2131
   53MOL   O58836052   1.768   4.874   5.114  0.2494 -0.1974  1.0609
   53MOL   C58936053   1.681   4.993   4.921 -0.1305 -0.2007  0.2409
   53MOL   C59036054   1.607   5.113   4.944 -0.2202  0.3778  0.4906
   53MOL   C59136055   1.518   5.157   4.846  0.7959  0.6700  0.2341
   53MOL   C59236056   1.493   5.083   4.727 -0.5047  0.3349  0.4222
   53MOL   O59336057   1.404   5.113   4.626  0.5885  0.1492  0.0397
   53MOL   C59436058   1.302   5.199   4.663  0.3359  0.2342  0.3606
   53MOL   C59536059   1.325   5.337   4.648  0.2155 -0.3821  0.6903
   53MOL   C59636060   1.217   5.421   4.683 -0.6797  0.0927  0.0978
   53MOL   C59736061   1.098   5.372   4.747  0.6032 -0.7110  0.7777
   53MOL   C59836062   1.088   5.235   4.775  0.3898 -0.4085 -0.2399
   53MOL   C59936063   1.187   5.151   4.725 -0.0232  0.1906 -0.0827
   53MOL   C60036064   1.562   4.960   4.702 -0.0508  0.3075  0.3073
   53MOL   C60136065   1.655   4.916   4.800 -0.2305  0.3646 -0.2642
   53MOL   H60236066   1.940   5.034   5.255 -1.4192  0.5192  0.6578
   53MOL   H60336067   2.143   5.166   5.251  0.9580  0.0582 -0.7448
   53MOL   H60436068   2.096   5.273   4.854 -1.0019  1.6922  1.8815
   53MOL   H60536069   1.903   5.121   4.829 -0.9204  1.0548 -0.2045
   53MOL   H60636070   1.626   5.175   5.030 -1.8609  0.6026  0.7032
   53MOL   H60736071   1.476   5.255   4.865 -0.0431  0.4669 -0.5591
   53MOL   H60836072   1.413   5.379   4.602  0.9173 -1.2098  1.2535
   53MOL   H60936073   1.235   5.525   4.661 -0.7118 -0.5018 -2.8845
   53MOL   H61036074   0.996   5.199   4.820  0.7628 -0.1099  0.7628
   53MOL   H61136075   1.173   5.045   4.741 -1.0728  0.5360  1.3894
   53MOL   H61236076   1.543   4.915   4.605 -0.7862  0.5575  0.3315
   53MOL   H61336077   1.710   4.824   4.785 -0.0367  0.4834 -0.2816
   53MOL   C61436078   1.042   5.493   5.162 -0.5315 -0.5627 -0.0968
   53MOL   C61536079   1.068   5.513   5.023  0.1767  0.4451 -0.4413
   53MOL   C61636080   0.977   5.464   4.927  0.3642  0.3000  0.3551
   53MOL   O61736081   1.007   5.466   4.792  0.1296 -0.0128 -0.4772
   53MOL   C61836082   0.857   5.403   4.973  0.2632  0.7042  0.5298
   53MOL   C61936083   0.831   5.396   5.105  0.0705  0.4172  0.4726
   53MOL   C62036084   0.921   5.433   5.208  0.1940  0.3377  0.8929
   53MOL   C62136085   0.873   5.434   5.346  0.0797  0.2410  0.0526
   53MOL   O62236086   0.757   5.416   5.376  0.1983 -0.1857 -0.1582
   53MOL   C62336087   0.978   5.456   5.449 -0.1176  0.5531 -0.1659
   53MOL   C62436088   1.052   5.349   5.483 -0.6213  0.5690  0.6413
   53MOL   C62536089   1.161   5.363   5.573 -0.7807  0.1399  0.6905
   53MOL   C62636090   1.181   5.484   5.641  0.2994 -0.3445 -0.4146
   53MOL   O62736091   1.269   5.516   5.740 -0.3187 -0.3162  0.5120
   53MOL   C62836092   1.383   5.438   5.755  0.9854 -0.1331  0.0763
   53MOL   C62936093   1.382   5.333   5.852 -0.0267 -0.5850 -0.4421
   53MOL   C63036094   1.493   5.247   5.862 -0.0056 -0.5406 -0.5751
   53MOL   C63136095   1.609   5.272   5.785 -0.3249 -0.5565 -0.2777
   53MOL   C63236096   1.615   5.380   5.691  0.7763 -0.0202 -0.5021
   53MOL   C63336097   1.504   5.466   5.689 -0.1408 -0.8912  0.1720
   53MOL   C63436098   1.096   5.597   5.609  0.2022  1.0324 -0.4152
   53MOL   C63536099   0.995   5.585   5.515  0.7719  0.3833  0.2135
   53MOL   H63636100   1.104   5.552   5.228 -1.1313  1.7293 -1.5021
   53MOL   H63736101   1.160   5.559   4.990  1.3485 -2.0217 -0.7127
   53MOL   H63836102   0.785   5.360   4.905  0.8384  0.6778 -0.0704
   53MOL   H63936103   0.731   5.374   5.137  0.0103 -1.1933 -0.7802
   53MOL   H64036104   1.036   5.254   5.435 -2.4881  1.6675 -0.9819
   53MOL   H64136105   1.217   5.275   5.601  4.4942  3.2497  0.4628
   53MOL   H64236106   1.293   5.322   5.913  1.6038  1.0827  2.3811
   53MOL   H64336107   1.489   5.177   5.944  1.8691  1.1368  1.0022
   53MOL   H64436108   1.699   5.401   5.627  0.2224 -2.3625 -2.0861
   53MOL   H64536109   1.505   5.546   5.616  0.8504 -0.5176  0.5871
   53MOL   H64636110   1.109   5.691   5.661  0.7428  0.6335  0.1947
   53MOL   H64736111   0.926   5.666   5.495  2.0723  1.4643  0.0113
   53MOL   C64836112   1.881   5.375   6.107  0.2836  0.3183 -0.2117
   53MOL   C64936113   1.819   5.362   5.979  0.0246  0.4218 -0.3809
   53MOL   C65036114   1.809   5.234   5.919  0.2697  1.0182 -0.4833
   53MOL   O65136115   1.728   5.202   5.811  0.2527  0.8233 -0.0966
   53MOL   C65236116   1.868   5.128   5.983  0.2339  0.1247 -0.2409
   53MOL   C65336117   1.932   5.133   6.106 -0.0607  0.3824 -0.3399
   53MOL   C65436118   1.940   5.262   6.164  1.1233 -0.0744  0.1718
   53MOL   C65536119   2.019   5.275   6.291  0.1340 -0.4231 -0.1625
   53MOL   O65636120   2.016   5.180   6.373  0.2971  0.0889 -0.3924
   53MOL   C65736121   2.087   5.402   6.316 -0.2228 -0.4013 -0.3089
   53MOL   C65836122   2.164   5.463   6.221  0.4238 -0.0113 -0.1532
   53MOL   C65936123   2.233   5.586   6.240 -0.4176  0.2835  0.6521
   53MOL   C66036124   2.229   5.647   6.360 -0.2704  0.4127  0.0321
   53MOL   O66136125   2.285   5.774   6.368 -0.4135  0.2645  0.6027
   53MOL   C66236126   2.203   5.881   6.370 -0.2128 -0.0796 -0.6751
   53MOL   C66336127   2.203   5.982   6.469 -0.2725 -0.1046 -0.2682
   53MOL   C66436128   2.120   6.093   6.464  0.7867 -0.2422 -0.3207
   53MOL   C66536129   2.037   6.115   6.349  0.4393  0.7874 -0.2439
   53MOL   C66636130   2.040   6.014   6.248  0.3485  0.0005  0.3815
   53MOL   C66736131   2.118   5.896   6.258  0.2640 -0.8848 -1.0238
   53MOL   C66836132   2.158   5.584   6.465  0.4171 -0.7212  0.4145
   53MOL   C66936133   2.082   5.465   6.443 -0.4211 -0.6780  0.6434
   53MOL   H67036134   1.890   5.477   6.142 -1.5102  0.0788  1.0023
   53MOL   H67136135   1.776   5.451   5.935  0.8555  1.3601  0.6774
   53MOL   H67236136   1.861   5.028   5.944  1.4322 -0.4487  1.0006
   53MOL   H67336137   1.970   5.039   6.143 -0.9588 -0.2381 -0.9844
   53MOL   H67436138   2.176   5.410   6.128 -0.1591  0.3928 -0.4607
   53MOL   H67536139   2.300   5.603   6.157 -1.1699  0.4205  0.0595
   53MOL   H67636140   2.284   5.971   6.540 -0.5276 -0.2020  0.0055
   53MOL   H67736141   2.118   6.162   6.547 -1.4919  3.2625 -3.1034
   53MOL   H67836142   1.990   6.044   6.157  0.7508 -0.0626  0.1388
   53MOL   H67936143   2.119   5.822   6.180 -0.6674 -0.8757 -1.0564
   53MOL   H68036144   2.160   5.619   6.567  0.7859  1.8849 -0.4570
   53MOL   H68136145   2.025   5.436   6.530 -0.2243  2.0427  1.7498
   53MOL   H68236146   1.981   6.205   6.327 -2.0369 -0.2399  1.6241
   54MOL     C136147   0.988   3.371   6.638 -0.1744  0.6497 -0.3570
   54MOL     C236148   1.039   3.393   6.504  0.5493 -0.0282 -0.8029
   54MOL     C336149   1.178   3.396   6.488  0.0474 -0.3422  0.7667
   54MOL     O436150   1.226   3.430   6.369  0.4591  0.1973 -0.3673
   54MOL     C536151   1.269   3.367   6.598  0.4851 -0.6755 -0.0284
   54MOL     C636152   1.215   3.332   6.722 -0.1242 -0.6414 -0.0605
   54MOL     C736153   1.077   3.327   6.738  0.1906 -0.2908 -0.9310
   54MOL     C836154   1.030   3.284   6.879 -0.2717 -0.4461  0.2390
   54MOL     O936155   1.102   3.307   6.980 -0.1969  0.0011  0.4732
   54MOL    C1036156   0.900   3.219   6.887  0.2476 -0.0350 -0.1862
   54MOL    C1136157   0.810   3.250   6.987 -0.4687 -0.6281  0.1087
   54MOL    C1236158   0.687   3.182   7.010 -0.9752  0.0841 -0.0376
   54MOL    C1336159   0.658   3.079   6.923 -0.6776 -0.6913  0.5988
   54MOL    O1436160   0.537   3.021   6.926 -0.4052 -0.2320  0.5006
   54MOL    C1536161   0.438   3.075   6.856  0.3571  0.0659  0.5074
   54MOL    C1636162   0.457   3.157   6.741 -0.0568 -0.0420 -0.3009
   54MOL    C1736163   0.348   3.204   6.658  0.0244 -0.7372  0.3072
   54MOL    C1836164   0.221   3.164   6.689  0.2640  0.8590 -0.1248
   54MOL    C1936165   0.204   3.088   6.811  1.0134  0.2338 -0.5720
   54MOL    C2036166   0.306   3.042   6.895  0.3919  0.1316 -0.9228
   54MOL    C2136167   0.748   3.039   6.822 -0.8815  0.3562 -0.6505
   54MOL    C2236168   0.868   3.110   6.805  1.2730  0.0758  0.7215
   54MOL    H2336169   0.881   3.371   6.657 -0.3787 -2.4136 -1.1827
   54MOL    H2436170   0.971   3.411   6.422  2.0695  0.5331 -1.9485
   54MOL    H2536171   1.376   3.377   6.585  0.5931 -0.0794  1.1715
   54MOL    H2636172   1.281   3.320   6.806  1.4302  1.7115 -0.8888
   54MOL    H2736173   0.832   3.334   7.050  0.8237 -1.4510  0.7797
   54MOL    H2836174   0.614   3.218   7.081  0.6975 -0.7852  2.1929
   54MOL    H2936175   0.557   3.187   6.714  0.2272 -0.6214  0.1027
   54MOL    H3036176   0.359   3.283   6.586  0.2739  0.5965  1.7654
   54MOL    H3136177   0.108   3.046   6.838  0.6530 -0.7948 -3.3434
   54MOL    H3236178   0.291   2.988   6.987  2.9202 -0.8325 -1.0394
   54MOL    H3336179   0.733   2.959   6.752 -0.5920  2.4126 -3.1265
   54MOL    H3436180   0.944   3.087   6.732  0.2215 -0.5764 -0.1881
   54MOL    H3536181   1.161   3.415   6.301  1.8208  0.2731 -1.7280
   54MOL    C3636182   0.072   3.492   6.395  0.0896  0.2640 -0.1062
   54MOL    C3736183   0.091   3.414   6.511 -0.4540  0.5102  0.1370
   54MOL    C3836184   0.124   3.276   6.510 -0.9158 -0.7790  0.4970
   54MOL    O3936185   0.109   3.196   6.615 -0.3793  0.0370 -0.0381
   54MOL    C4036186   0.151   3.223   6.381 -0.0278 -0.9591 -0.0310
   54MOL    C4136187   0.133   3.304   6.264  0.0076  0.2045 -0.0398
   54MOL    C4236188   0.086   3.435   6.266 -0.3615  0.0027 -0.2661
   54MOL    C4336189   0.066   3.517   6.147  0.2244  0.0997 -1.3215
   54MOL    O4436190   0.086   3.640   6.153  0.3445  0.5973  0.1435
   54MOL    C4536191   0.024   3.441   6.027  0.2291  0.3046  0.2485
   54MOL    C4636192   0.079   3.488   5.907  0.0049 -0.4507  0.1798
   54MOL    C4736193   0.036   3.435   5.788  0.2937 -0.5053 -0.4087
   54MOL    C4836194   8.255   3.330   5.779 -0.2233  0.1053  0.6172
   54MOL    O4936195   8.228   3.276   5.655 -0.2138 -0.2396  0.2911
   54MOL    C5036196   8.157   3.361   5.580 -0.0830 -0.5862 -0.4929
   54MOL    C5136197   8.214   3.431   5.472 -0.2297 -0.3797  0.2784
   54MOL    C5236198   8.138   3.508   5.388  0.4206  0.1439 -0.0392
   54MOL    C5336199   7.998   3.511   5.403 -0.1158  0.2239 -0.0977
   54MOL    C5436200   7.931   3.441   5.510  0.4938 -0.1022  1.0750
   54MOL    C5536201   8.014   3.367   5.595 -0.9422  0.5582 -0.6108
   54MOL    C5636202   8.209   3.273   5.899 -0.1628 -0.2967  0.6490
   54MOL    C5736203   8.246   3.333   6.023  0.5233 -0.4262 -0.5976
   54MOL    H5836204   0.026   3.589   6.407 -1.9047 -0.6120 -0.5467
   54MOL    H5936205   0.069   3.454   6.609 -0.0763  1.1959 -0.0587
   54MOL    H6036206   0.183   3.120   6.372  1.0279 -0.7715  1.4576
   54MOL    H6136207   0.152   3.259   6.168  0.4933  1.3326 -0.4741
   54MOL    H6236208   0.159   3.560   5.913  1.8015 -2.5474  3.5633
   54MOL    H6336209   0.083   3.479   5.702 -0.2267  0.2410 -0.3104
   54MOL    H6436210   0.008   3.429   5.455  0.0485  0.7334  1.7539
   54MOL    H6536211   8.180   3.572   5.311  0.4523  0.1342 -0.0301
   54MOL    H6636212   7.826   3.459   5.525  0.8278  1.1645  1.9808
   54MOL    H6736213   7.975   3.305   5.674 -1.5316 -0.0487 -1.3714
   54MOL    H6836214   8.157   3.178   5.905 -0.4436 -0.2379 -0.7068
   54MOL    H6936215   8.210   3.297   6.118 -0.7192  0.5233 -0.7111
   54MOL    C7036216   7.582   3.586   5.169  0.5485 -0.2952  0.1137
   54MOL    C7136217   7.690   3.613   5.253 -0.0014  0.8658 -0.5830
   54MOL    C7236218   7.805   3.534   5.256 -0.3875 -0.2260  0.2877
   54MOL    O7336219   7.916   3.587   5.323 -0.0254 -0.3707 -0.2043
   54MOL    C7436220   7.813   3.422   5.169 -0.3791  0.6238 -0.2096
   54MOL    C7536221   7.703   3.394   5.087 -0.1916  0.3006 -0.2703
   54MOL    C7636222   7.586   3.463   5.087 -0.3520  0.4011  0.8120
   54MOL    C7736223   7.474   3.410   5.009 -0.0041  0.2240 -0.6501
   54MOL    O7836224   7.502   3.370   4.896 -0.1475  0.2412  0.2922
   54MOL    C7936225   7.340   3.418   5.074 -0.3332 -0.2324  0.4356
   54MOL    C8036226   7.230   3.421   4.987 -0.9255  0.3283  0.6956
   54MOL    C8136227   7.101   3.407   5.030 -0.2745  0.0671 -0.2238
   54MOL    C8236228   7.081   3.392   5.167 -0.4448 -0.6417  0.2548
   54MOL    O8336229   6.948   3.385   5.207  0.7743  0.3784  0.2127
   54MOL    C8436230   6.899   3.262   5.244 -0.0561  0.0598  0.4688
   54MOL    C8536231   6.855   3.167   5.145  0.0876 -0.4051  0.2977
   54MOL    C8636232   6.807   3.040   5.187 -0.2853 -0.6428  0.0355
   54MOL    C8736233   6.812   3.002   5.324  0.1828 -0.5836  0.2723
   54MOL    C8836234   6.848   3.099   5.419  0.2815  0.3280 -0.3712
   54MOL    C8936235   6.883   3.228   5.380 -0.0953  0.1873  0.0969
   54MOL    C9036236   7.191   3.393   5.262 -0.1007 -0.3143 -0.3282
   54MOL    C9136237   7.323   3.397   5.213 -0.2808 -0.2175 -0.3824
   54MOL    H9236238   7.492   3.644   5.155  0.1277 -0.7294  0.9585
   54MOL    H9336239   7.688   3.706   5.307  1.5061  1.5474 -1.6640
   54MOL    H9436240   7.901   3.360   5.161 -1.0253 -0.2195 -0.7836
   54MOL    H9536241   7.719   3.305   5.027 -0.2836 -0.0079  0.1585
   54MOL    H9636242   7.249   3.434   4.882 -0.2061 -3.4174  0.3190
   54MOL    H9736243   7.019   3.405   4.960  0.6122  3.6092 -1.4396
   54MOL    H9836244   6.857   3.186   5.039 -1.8179 -1.1962  0.1102
   54MOL    H9936245   6.787   2.974   5.105 -0.5057 -0.9656  0.3490
   54MOL   H10036246   6.845   3.071   5.524 -0.9758 -3.5716 -1.3377
   54MOL   H10136247   6.907   3.306   5.451 -0.1561 -1.2015  1.6891
   54MOL   H10236248   7.179   3.379   5.369 -0.4902 -1.2464 -0.4894
   54MOL   H10336249   7.410   3.411   5.276 -0.1856  2.2371 -1.0368
   54MOL   C10436250   6.446   2.752   5.329 -0.3450  0.2082 -0.1076
   54MOL   C10536251   6.557   2.825   5.379  0.2093 -0.0989  0.0038
   54MOL   C10636252   6.677   2.807   5.317 -0.2569  0.4920 -0.5013
   54MOL   O10736253   6.787   2.872   5.368 -0.5787 -0.0682 -0.2899
   54MOL   C10836254   6.696   2.716   5.210 -0.4455 -0.7205  0.5797
   54MOL   C10936255   6.590   2.640   5.163 -0.2401 -0.5104 -0.1780
   54MOL   C11036256   6.465   2.651   5.225 -0.2980 -0.7126  0.1591
   54MOL   C11136257   6.342   2.574   5.181  0.3544  0.3654  0.7203
   54MOL   O11236258   6.322   2.564   5.060  0.0006  0.2371  0.3550
   54MOL   C11336259   6.253   2.513   5.280 -0.3013  0.0634 -0.4126
   54MOL   C11436260   6.120   2.473   5.234 -0.3697  0.2325  0.6165
   54MOL   C11536261   6.026   2.408   5.323 -0.0713 -1.0926 -0.3872
   54MOL   C11636262   6.066   2.388   5.457 -0.5009  0.1327 -0.6742
   54MOL   O11736263   5.998   2.321   5.555  1.2600  0.5989 -0.0486
   54MOL   C11836264   5.903   2.399   5.607  0.0313 -0.4466  0.2666
   54MOL   C11936265   5.933   2.522   5.686  0.4445  0.3024 -0.5358
   54MOL   C12036266   5.829   2.595   5.745  0.4257  0.6213  0.2467
   54MOL   C12136267   5.701   2.545   5.738 -0.4004 -0.2373 -0.0693
   54MOL   C12236268   5.672   2.425   5.677 -0.2761  0.2341  0.1886
   54MOL   C12336269   5.766   2.357   5.613 -0.0072  0.2658  0.3906
   54MOL   C12436270   6.195   2.430   5.499  0.5380  0.3363 -0.2531
   54MOL   C12536271   6.281   2.498   5.418 -0.1497  0.1714 -0.1342
   54MOL   H12636272   6.347   2.763   5.371 -0.6471 -4.0864  0.5028
   54MOL   H12736273   6.549   2.897   5.459  2.2810 -0.8657  0.9373
   54MOL   H12836274   6.787   2.727   5.153 -1.3423  3.5422 -0.2041
   54MOL   H12936275   6.598   2.572   5.080 -0.4920 -1.0049  0.2025
   54MOL   H13036276   6.091   2.500   5.133  0.9579 -1.7889 -0.3311
   54MOL   H13136277   5.925   2.385   5.294 -0.7889  0.6517  0.6380
   54MOL   H13236278   6.034   2.556   5.698  0.4134 -0.6877  2.8618
   54MOL   H13336279   5.853   2.684   5.801 -1.8980  0.6174  1.2964
   54MOL   H13436280   5.571   2.386   5.686 -0.6557  0.5504 -2.3538
   54MOL   H13536281   5.748   2.255   5.583  0.9972  0.0339  0.5779
   54MOL   H13636282   6.224   2.411   5.601  4.6428 -0.7743 -1.5421
   54MOL   H13736283   6.375   2.539   5.452 -0.8250  0.6025  1.2817
   54MOL   C13836284   5.552   2.970   5.842  0.4635 -0.4165 -0.6480
   54MOL   C13936285   5.573   2.832   5.877  0.2729  0.0053 -0.3731
   54MOL   C14036286   5.572   2.735   5.772 -0.1216 -0.8552 -1.1720
   54MOL   O14136287   5.594   2.602   5.804 -0.2975  0.2950 -0.1449
   54MOL   C14236288   5.557   2.782   5.641 -0.2096 -0.5135  0.6999
   54MOL   C14336289   5.546   2.921   5.605  0.3364  0.7493 -0.1172
   54MOL   C14436290   5.544   3.016   5.708 -0.4580  0.7618 -0.5887
   54MOL   C14536291   5.523   3.149   5.659 -0.2354  0.2723  0.2124
   54MOL   O14636292   5.612   3.209   5.597 -0.2065  0.3059  0.5852
   54MOL   C14736293   5.397   3.218   5.694  0.2426  0.1244 -0.1961
   54MOL   C14836294   5.289   3.145   5.746  0.8881  0.4796 -0.1861
   54MOL   C14936295   5.160   3.204   5.755  0.7992  0.1010 -0.5238
   54MOL   C15036296   5.146   3.342   5.737 -0.3821  0.0787  0.1632
   54MOL   O15136297   5.029   3.405   5.762  0.6455 -0.1717 -0.0934
   54MOL   C15236298   4.963   3.376   5.877 -0.6576  0.7290  0.3475
   54MOL   C15336299   4.830   3.333   5.874 -0.1859  0.0093  0.7272
   54MOL   C15436300   4.763   3.310   5.996 -0.1838  0.3524  0.9510
   54MOL   C15536301   4.830   3.328   6.119  0.9990 -0.1905  0.5799
   54MOL   C15636302   4.965   3.376   6.123 -0.3869  0.6462  0.9408
   54MOL   C15736303   5.027   3.404   6.001  0.0420 -0.2914  1.2943
   54MOL   C15836304   5.257   3.421   5.703  0.0001  0.7551 -0.5330
   54MOL   C15936305   5.383   3.359   5.684 -0.1395 -0.1262  0.6508
   54MOL   H16036306   5.538   3.046   5.918 -2.8296  1.1641 -2.7176
   54MOL   H16136307   5.590   2.811   5.981  0.2309  2.4499  0.1624
   54MOL   H16236308   5.572   2.712   5.560  0.5584  1.5207 -0.9579
   54MOL   H16336309   5.550   2.954   5.503 -0.1227  2.3685  0.3822
   54MOL   H16436310   5.295   3.038   5.754  0.3522  0.4274 -0.4912
   54MOL   H16536311   5.075   3.151   5.793  1.8765  0.1233  1.9904
   54MOL   H16636312   4.776   3.322   5.781 -0.9821  2.1002  0.9136
   54MOL   H16736313   4.660   3.279   5.987 -0.0123 -0.8670  2.9654
   54MOL   H16836314   5.013   3.394   6.217 -1.5458 -0.2462  1.7271
   54MOL   H16936315   5.126   3.447   5.993  0.2615 -0.4808  2.8762
   54MOL   H17036316   5.238   3.524   5.679 -1.8750  0.4668 -0.4455
   54MOL   H17136317   5.463   3.423   5.649 -0.7646  1.2641  1.6949
   54MOL   C17236318   4.879   3.107   6.484 -0.2974 -0.7820  0.0771
   54MOL   C17336319   4.815   3.155   6.368 -0.6713  0.3431 -0.5266
   54MOL   C17436320   4.810   3.289   6.346  0.1367  0.0594  0.5333
   54MOL   O17536321   4.750   3.319   6.233 -0.7212 -0.2820  0.1314
   54MOL   C17636322   4.859   3.389   6.438 -0.3675 -0.1475 -0.1749
   54MOL   C17736323   4.911   3.345   6.561 -0.1112 -0.0773  0.6740
   54MOL   C17836324   4.923   3.202   6.581 -0.8871 -0.3003  1.5660
   54MOL   C17936325   4.977   3.154   6.708 -0.2553 -0.5402  0.7706
   54MOL   O18036326   4.910   3.080   6.779 -0.1682  0.5670 -0.1346
   54MOL   C18136327   5.120   3.198   6.735 -0.3863  0.0275  0.2553
   54MOL   C18236328   5.213   3.215   6.636 -0.2918 -0.5016  0.5087
   54MOL   C18336329   5.351   3.227   6.678  0.4885 -0.4833  0.0436
   54MOL   C18436330   5.389   3.247   6.810  0.0540 -0.0762  0.4719
   54MOL   O18536331   5.515   3.269   6.844  0.1146 -0.1464 -0.3793
   54MOL   C18636332   5.612   3.173   6.813 -0.0239 -0.3001  0.5316
   54MOL   C18736333   5.733   3.207   6.742  0.3456 -0.0283  0.1435
   54MOL   C18836334   5.831   3.113   6.716  0.4637 -0.9321 -0.3525
   54MOL   C18936335   5.817   2.985   6.770 -0.2316  0.0329  0.1516
   54MOL   C19036336   5.712   2.960   6.855  0.0334  0.2500  0.0242
   54MOL   C19136337   5.607   3.051   6.877  0.2836  0.4479 -0.0153
   54MOL   C19236338   5.284   3.252   6.905 -0.7418  0.3975 -1.0893
   54MOL   C19336339   5.152   3.216   6.873 -0.0008  0.6611  0.0516
   54MOL   H19436340   4.878   3.003   6.515 -1.3579 -0.4990  1.0405
   54MOL   H19536341   4.764   3.077   6.312  1.5128  0.0133 -2.1049
   54MOL   H19636342   4.850   3.494   6.413  0.9519  0.2412  0.8901
   54MOL   H19736343   4.951   3.415   6.632  1.7498  0.4824 -0.8975
   54MOL   H19836344   5.190   3.198   6.532  2.4431 -0.4338 -0.1421
   54MOL   H19936345   5.419   3.222   6.594  1.8772 -0.6518  1.1628
   54MOL   H20036346   5.747   3.308   6.705 -0.7394  0.3341  0.6948
   54MOL   H20136347   5.919   3.150   6.666  0.0345  0.9332  0.2202
   54MOL   H20236348   5.710   2.864   6.903 -1.1163  0.8814  1.2954
   54MOL   H20336349   5.524   3.025   6.941  0.4346  0.8284  0.3366
   54MOL   H20436350   5.307   3.257   7.010  0.6632 -1.2289 -1.2871
   54MOL   H20536351   5.073   3.211   6.947 -0.9795 -1.0258 -1.0565
   54MOL   C20636352   6.037   2.603   6.572 -0.0792  1.0776  0.4587
   54MOL   C20736353   6.027   2.709   6.663 -0.3937 -0.0404  0.9749
   54MOL   C20836354   5.924   2.800   6.666 -0.6615 -0.5300 -0.0836
   54MOL   O20936355   5.927   2.901   6.754  0.1801  0.1736 -0.4693
   54MOL   C21036356   5.825   2.780   6.567  0.7978  0.3319 -0.3701
   54MOL   C21136357   5.825   2.672   6.478 -0.6704 -0.0020  1.1600
   54MOL   C21236358   5.938   2.584   6.476 -0.5150 -0.1443 -0.1427
   54MOL   C21336359   5.949   2.465   6.384  0.0636  0.4221 -0.2834
   54MOL   O21436360   6.053   2.393   6.387 -0.3987 -0.1069  0.6289
   54MOL   C21536361   5.837   2.432   6.295  0.2289 -0.1203  0.0137
   54MOL   C21636362   5.789   2.509   6.186 -0.1110 -0.2112 -0.5179
   54MOL   C21736363   5.687   2.463   6.103  0.7483  0.0061 -0.0259
   54MOL   C21836364   5.628   2.340   6.121  0.1653  0.4164 -0.0350
   54MOL   O21936365   5.538   2.286   6.034  0.1172 -0.0496 -0.5338
   54MOL   C22036366   5.579   2.188   5.950 -0.3189  0.0273  0.5168
   54MOL   C22136367   5.493   2.148   5.845  0.1560 -0.2408 -0.0471
   54MOL   C22236368   5.535   2.064   5.743 -0.6460 -0.6761  0.0840
   54MOL   C22336369   5.654   1.990   5.752  0.1312  0.0940  0.1904
   54MOL   C22436370   5.749   2.033   5.848 -0.7959  0.4675 -0.1081
   54MOL   C22536371   5.715   2.137   5.943 -0.3978 -0.1529  0.3323
   54MOL   C22636372   5.667   2.263   6.236  0.4470 -0.3386 -0.5622
   54MOL   C22736373   5.770   2.309   6.323 -0.0797  0.8110 -0.1927
   54MOL   H22836374   6.126   2.542   6.567 -0.8680 -0.1116  0.9306
   54MOL   H22936375   6.110   2.713   6.733 -0.5265 -2.7683  1.3763
   54MOL   H23036376   5.737   2.841   6.553  1.6302  1.4396 -0.8786
   54MOL   H23136377   5.736   2.663   6.418 -2.1190  1.0920  3.0715
   54MOL   H23236378   5.834   2.607   6.177  0.6384 -0.6427 -1.4364
   54MOL   H23336379   5.636   2.521   6.028 -2.0739 -2.7055 -0.3166
   54MOL   H23436380   5.390   2.177   5.848 -0.1087 -1.1587  0.0491
   54MOL   H23536381   5.459   2.049   5.668 -0.0516 -0.1646 -0.6339
   54MOL   H23636382   5.847   1.987   5.845 -0.6060  0.8722 -0.0268
   54MOL   H23736383   5.791   2.164   6.014 -1.5977  1.1829  1.1373
   54MOL   H23836384   5.615   2.173   6.264 -2.1379  1.2323 -0.1560
   54MOL   H23936385   5.788   2.243   6.407  0.9257  1.5958  0.2281
   54MOL   C24036386   5.785   1.564   5.677  0.2969  0.2309 -0.1386
   54MOL   C24136387   5.787   1.695   5.690  0.1675  0.2191 -0.1271
   54MOL   C24236388   5.677   1.774   5.654  0.3160 -0.1915 -0.3272
   54MOL   O24336389   5.692   1.911   5.646 -0.4096 -0.3399 -0.0492
   54MOL   C24436390   5.558   1.712   5.605 -0.4377 -0.1520 -0.0464
   54MOL   C24536391   5.551   1.570   5.604  0.0917  0.0460 -0.0137
   54MOL   C24636392   5.672   1.492   5.626  1.3148  0.2395  1.1466
   54MOL   C24736393   5.678   1.343   5.617 -0.1982  0.0741 -0.9529
   54MOL   O24836394   5.583   1.275   5.645 -0.1748 -0.6441  0.3140
   54MOL   C24936395   5.803   1.284   5.563 -0.6634 -0.0720  0.6531
   54MOL   C25036396   5.893   1.350   5.468 -0.4817 -0.0756 -0.5238
   54MOL   C25136397   6.010   1.282   5.420 -0.1771 -0.4972 -0.1726
   54MOL   C25236398   6.049   1.160   5.478  0.3518 -0.0288 -0.7836
   54MOL   O25336399   6.171   1.108   5.442  0.4657  0.2210  0.4200
   54MOL   C25436400   6.190   1.072   5.313 -0.1460  0.0671  0.5856
   54MOL   C25536401   6.304   1.111   5.234 -0.5125 -0.0782  0.3073
   54MOL   C25636402   6.314   1.098   5.093 -0.2741 -0.5701 -0.6298
   54MOL   C25736403   6.215   1.023   5.030  0.2747  0.8941 -0.2111
   54MOL   C25836404   6.109   0.969   5.106 -0.4515  0.3086  0.0842
   54MOL   C25936405   6.096   0.997   5.242  0.0040 -0.1967 -0.0424
   54MOL   C26036406   5.962   1.101   5.565 -0.6690  0.1643  0.0499
   54MOL   C26136407   5.836   1.151   5.603 -0.1636  0.2856  0.5799
   54MOL   H26236408   5.866   1.496   5.700 -0.4793 -0.2792  1.1452
   54MOL   H26336409   5.875   1.747   5.724 -0.2185  0.0803  1.1139
   54MOL   H26436410   5.475   1.778   5.585  0.9195  1.9727  1.1040
   54MOL   H26536411   5.465   1.514   5.572  1.6674 -1.4908 -1.6430
   54MOL   H26636412   5.879   1.454   5.442 -0.8075 -0.4006 -1.6771
   54MOL   H26736413   6.062   1.319   5.333 -1.4327  0.6569 -0.4389
   54MOL   H26836414   6.390   1.158   5.280 -0.3786  1.0420 -1.0617
   54MOL   H26936415   6.392   1.145   5.034  0.7470 -1.6055 -0.1387
   54MOL   H27036416   6.036   0.908   5.055  0.4774 -0.4585 -0.3411
   54MOL   H27136417   6.009   0.960   5.293 -0.2319 -3.3401 -2.5406
   54MOL   H27236418   5.977   1.003   5.608  1.7554  0.4123 -0.1862
   54MOL   H27336419   5.771   1.103   5.675  0.4845 -0.9973  0.3164
   54MOL   C27436420   6.572   0.977   4.788 -0.3631 -0.0790 -1.3284
   54MOL   C27536421   6.455   0.934   4.857 -0.2221 -0.2786 -0.2097
   54MOL   C27636422   6.333   1.000   4.832  0.7451 -0.3173  0.0925
   54MOL   O27736423   6.218   0.975   4.904 -0.0447  0.4912  0.4994
   54MOL   C27836424   6.320   1.076   4.719 -0.2482 -0.7591  0.1569
   54MOL   C27936425   6.428   1.121   4.645 -0.4435 -0.0910 -0.2870
   54MOL   C28036426   6.555   1.071   4.684 -0.0809 -0.2761  0.2895
   54MOL   C28136427   6.669   1.102   4.594 -0.4743 -0.2000 -0.6350
   54MOL   O28236428   6.660   1.076   4.473 -0.3970 -0.2850 -0.4461
   54MOL   C28336429   6.787   1.164   4.664  0.8529 -0.4060 -0.2170
   54MOL   C28436430   6.907   1.180   4.596 -0.4733 -0.0787  0.3347
   54MOL   C28536431   7.015   1.256   4.652  0.6161 -0.1204 -0.2167
   54MOL   C28636432   7.013   1.302   4.782  0.4402  0.4953  0.8287
   54MOL   O28736433   7.122   1.375   4.820  0.2399 -0.1647 -0.5040
   54MOL   C28836434   7.107   1.463   4.926  0.2480  0.6124 -0.3512
   54MOL   C28936435   7.199   1.462   5.031 -0.5744  0.2813 -0.9472
   54MOL   C29036436   7.186   1.542   5.140 -0.1150 -0.0434  0.3249
   54MOL   C29136437   7.089   1.638   5.146 -0.3811  0.1280 -0.0813
   54MOL   C29236438   6.996   1.646   5.040 -0.4161 -0.5142 -0.7626
   54MOL   C29336439   7.005   1.561   4.929 -0.0135 -0.6721  0.3493
   54MOL   C29436440   6.894   1.288   4.852  0.0236  0.2705  0.5265
   54MOL   C29536441   6.780   1.223   4.798  0.3044 -0.8453  0.4280
   54MOL   H29636442   6.669   0.930   4.799 -0.5898  0.2242  2.5574
   54MOL   H29736443   6.458   0.849   4.924 -0.9022  0.7672  1.1630
   54MOL   H29836444   6.219   1.111   4.705 -1.2116 -3.2198  0.7744
   54MOL   H29936445   6.415   1.182   4.557  2.0399  1.4533  0.3718
   54MOL   H30036446   6.923   1.141   4.497  1.6816  0.6026  0.3795
   54MOL   H30136447   7.110   1.248   4.602 -0.2905 -2.7554 -1.6530
   54MOL   H30236448   7.283   1.394   5.023 -1.5916 -1.0081 -0.7605
   54MOL   H30336449   7.253   1.536   5.224  0.0268 -2.4058  0.0561
   54MOL   H30436450   6.915   1.715   5.055  0.0944  0.1102 -0.8881
   54MOL   H30536451   6.938   1.574   4.845 -0.7017  2.3669  1.2960
   54MOL   H30636452   6.900   1.320   4.955  0.2594 -0.4610  0.7438
   54MOL   H30736453   6.693   1.233   4.860  0.7751  0.7126  0.8637
   54MOL   C30836454   6.749   1.717   5.436  0.8116  0.0662  0.6929
   54MOL   C30936455   6.849   1.754   5.342 -0.1083 -0.2768  0.3047
   54MOL   C31036456   6.971   1.683   5.344 -0.2577  0.6764 -0.3105
   54MOL   O31136457   7.069   1.714   5.262 -0.1887 -0.0714  0.8736
   54MOL   C31236458   6.995   1.575   5.434  0.0203  0.4252  0.2993
   54MOL   C31336459   6.893   1.539   5.523 -0.1957  0.0955 -0.4616
   54MOL   C31436460   6.774   1.610   5.526 -0.2148  0.1061 -0.7157
   54MOL   C31536461   6.669   1.572   5.627  0.7854 -0.5687  0.1522
   54MOL   O31636462   6.600   1.655   5.687  0.0936  0.0789 -0.7789
   54MOL   C31736463   6.659   1.430   5.670 -0.6916 -0.0253  0.5022
   54MOL   C31836464   6.671   1.387   5.805 -0.2047 -0.2379 -0.4884
   54MOL   C31936465   6.682   1.250   5.842 -0.0100 -0.1796 -0.4704
   54MOL   C32036466   6.660   1.148   5.742 -0.0449  1.0672 -0.4512
   54MOL   O32136467   6.643   1.021   5.783 -0.0836  0.2476 -0.0812
   54MOL   C32236468   6.756   0.946   5.781 -0.1301  0.0081  0.2794
   54MOL   C32336469   6.740   0.808   5.786  0.4508 -0.1413  0.6615
   54MOL   C32436470   6.852   0.724   5.778  0.4469  0.5559  0.1069
   54MOL   C32536471   6.981   0.774   5.767 -0.0926 -0.6047  0.3097
   54MOL   C32636472   7.002   0.916   5.775  0.0023  0.4469 -0.1169
   54MOL   C32736473   6.890   0.996   5.784 -0.0469  0.4567 -0.5937
   54MOL   C32836474   6.644   1.188   5.610  0.1784 -0.0012  0.1378
   54MOL   C32936475   6.652   1.324   5.572  0.4163 -0.0883 -0.1429
   54MOL   H33036476   6.657   1.771   5.454  0.4955 -0.5412  0.9288
   54MOL   H33136477   6.836   1.845   5.285 -0.9940 -0.2462  0.5495
   54MOL   H33236478   7.088   1.520   5.429  0.5658  1.4338 -1.0857
   54MOL   H33336479   6.908   1.450   5.583 -1.0911 -1.7227 -2.8630
   54MOL   H33436480   6.683   1.461   5.882  1.2290 -0.2146 -0.7301
   54MOL   H33536481   6.683   1.217   5.945  0.3034  1.3662  0.0296
   54MOL   H33636482   6.645   0.758   5.800  0.3095 -0.1752 -0.3805
   54MOL   H33736483   6.841   0.616   5.777  1.5397  0.4075 -2.6098
   54MOL   H33836484   7.099   0.961   5.761 -0.1943  0.7236 -0.5807
   54MOL   H33936485   6.907   1.102   5.780  0.8917  0.4332  1.9056
   54MOL   H34036486   6.628   1.114   5.533 -1.9162 -0.1079  0.6462
   54MOL   H34136487   6.644   1.342   5.465 -0.3938 -1.3011 -0.2903
   54MOL   C34236488   7.134   0.383   5.939 -0.2686 -0.1794  0.1083
   54MOL   C34336489   7.081   0.471   5.846  0.3639  0.0423 -1.2545
   54MOL   C34436490   7.125   0.605   5.845  0.1619  0.4379 -0.5519
   54MOL   O34536491   7.087   0.689   5.743  0.4958 -0.4031  0.3285
   54MOL   C34636492   7.192   0.656   5.961  0.3471 -0.6809  0.3747
   54MOL   C34736493   7.213   0.573   6.072  0.1800 -0.1418  0.5907
   54MOL   C34836494   7.205   0.431   6.051  0.8567  0.4325  0.1676
   54MOL   C34936495   7.246   0.342   6.163 -0.2262 -0.7472 -0.3323
   54MOL   O35036496   7.223   0.379   6.279 -0.3157 -0.3573 -0.1995
   54MOL   C35136497   7.289   0.202   6.128  0.1393  0.4806 -0.4591
   54MOL   C35236498   7.274   0.097   6.221  0.4709  0.5989 -0.4346
   54MOL   C35336499   7.308   8.277   6.202 -0.3642  0.2504 -0.2306
   54MOL   C35436500   7.364   8.238   6.079  0.3569  0.3124 -0.9021
   54MOL   O35536501   7.408   8.109   6.068 -0.3395  0.0904 -0.4988
   54MOL   C35636502   7.312   8.013   6.056 -0.2629  0.0619 -0.3303
   54MOL   C35736503   7.281   7.930   6.166  0.4367 -0.5706 -0.9332
   54MOL   C35836504   7.206   7.809   6.155 -0.1456  0.5795  0.4440
   54MOL   C35936505   7.145   7.777   6.030  0.4165  0.6174  0.1569
   54MOL   C36036506   7.172   7.869   5.925 -0.0522  0.3242 -0.5203
   54MOL   C36136507   7.260   7.978   5.933  0.3465 -0.4291 -0.3834
   54MOL   C36236508   7.388   0.028   5.980  0.3090 -0.3564  0.0376
   54MOL   C36336509   7.346   0.162   6.007 -0.1456  0.2768  0.0636
   54MOL   H36436510   7.110   0.278   5.941  0.4722 -0.3770 -0.9894
   54MOL   H36536511   7.017   0.438   5.766  0.5376 -1.1095 -0.9284
   54MOL   H36636512   7.216   0.760   5.972  0.3070 -0.9135  2.8896
   54MOL   H36736513   7.259   0.604   6.165  1.1258 -0.2465  0.1585
   54MOL   H36836514   7.231   0.120   6.318  2.8886 -0.7652  1.0123
   54MOL   H36936515   7.296   8.210   6.286  1.2978 -0.7062 -0.7177
   54MOL   H37036516   7.316   7.970   6.260 -0.2152  0.5503 -1.1665
   54MOL   H37136517   7.196   7.752   6.246  2.3416  0.0842  0.4417
   54MOL   H37236518   7.118   7.860   5.832 -0.0702 -0.9766 -0.3946
   54MOL   H37336519   7.292   8.021   5.840  1.4969 -1.7139 -0.6151
   54MOL   H37436520   7.439   0.010   5.887  0.9305 -2.7884  0.8096
   54MOL   H37536521   7.385   0.241   5.944  0.5407 -0.3943 -0.3538
   54MOL   C37636522   6.710   7.586   5.949 -0.6400  0.3666 -1.1565
   54MOL   C37736523   6.853   7.576   5.968  0.3126 -0.1941 -0.3829
   54MOL   C37836524   6.929   7.690   5.996 -0.0617  0.3739 -0.7448
   54MOL   O37936525   7.062   7.667   6.020  0.0917 -0.1884  0.3633
   54MOL   C38036526   6.869   7.815   6.019  0.3264  0.0237 -0.1596
   54MOL   C38136527   6.728   7.825   6.009 -0.4595 -0.8607  0.5101
   54MOL   C38236528   6.643   7.710   5.973 -0.9622 -0.0365 -0.1191
   54MOL   C38336529   6.497   7.728   5.980  0.0817  0.4923 -0.3565
   54MOL   O38436530   6.445   7.841   5.986  0.4516 -0.2646  0.3579
   54MOL   C38536531   6.412   7.607   5.983 -0.3572 -0.2302 -0.6525
   54MOL   C38636532   6.430   7.503   6.077  0.0844  0.4687 -0.1334
   54MOL   C38736533   6.354   7.388   6.056  0.3236  0.1176 -0.0897
   54MOL   C38836534   6.244   7.382   5.967  0.4554  0.0439 -0.3715
   54MOL   O38936535   6.166   7.274   5.975  0.1869  0.1532 -0.6469
   54MOL   C39036536   6.200   7.169   5.897 -0.3474  0.6008 -0.1810
   54MOL   C39136537   6.264   7.177   5.770  0.4705  0.2283 -0.4237
   54MOL   C39236538   6.266   7.071   5.680 -0.2006 -0.4421  0.8097
   54MOL   C39336539   6.234   6.946   5.721  0.1750 -0.0185  0.5637
   54MOL   C39436540   6.175   6.928   5.847 -0.2654  0.2990 -0.2290
   54MOL   C39536541   6.160   7.040   5.935  0.6220  0.4387 -0.1546
   54MOL   C39636542   6.222   7.487   5.874 -0.6153  0.4689 -0.7760
   54MOL   C39736543   6.308   7.601   5.892 -0.3159 -0.5318 -0.0843
   54MOL   H39836544   6.653   7.495   5.933  0.3767 -0.9333  2.2424
   54MOL   H39936545   6.905   7.483   5.954  0.8361 -0.7463  4.2860
   54MOL   H40036546   6.927   7.906   6.030  0.2899  0.2378 -1.6530
   54MOL   H40136547   6.684   7.916   6.045 -0.1628 -0.5182  0.0158
   54MOL   H40236548   6.515   7.493   6.142 -1.0358 -0.9698  1.1416
   54MOL   H40336549   6.368   7.298   6.114 -1.0293 -2.8956 -4.2829
   54MOL   H40436550   6.306   7.274   5.747  1.3963 -0.0168  0.1905
   54MOL   H40536551   6.312   7.086   5.583 -1.4966  2.0497  0.5466
   54MOL   H40636552   6.132   6.835   5.881  1.0134 -0.4799 -0.6822
   54MOL   H40736553   6.109   7.026   6.029  1.0773 -0.6949 -0.0584
   54MOL   H40836554   6.144   7.486   5.800 -2.0801 -1.3694  0.7683
   54MOL   H40936555   6.279   7.694   5.843  2.0606  1.7339  2.6405
   54MOL   C41036556   6.560   6.646   5.637  0.1372 -0.4725 -0.0141
   54MOL   C41136557   6.475   6.743   5.601  0.0574 -0.0569 -0.1407
   54MOL   C41236558   6.363   6.755   5.680  0.9615 -0.4014 -1.0048
   54MOL   O41336559   6.270   6.848   5.638 -0.8546  0.0792 -0.5398
   54MOL   C41436560   6.342   6.666   5.791  0.1130  0.2329 -0.1327
   54MOL   C41536561   6.434   6.565   5.825 -0.1554 -0.2882 -0.2433
   54MOL   C41636562   6.546   6.559   5.746  0.1916  0.0660 -0.2199
   54MOL   C41736563   6.650   6.453   5.780  0.1453 -0.6131 -0.1272
   54MOL   O41836564   6.684   6.435   5.900  0.6230 -0.0824  0.3823
   54MOL   C41936565   6.715   6.382   5.669 -0.1192  0.2159  0.0821
   54MOL   C42036566   6.852   6.384   5.671 -0.5019  0.2339  0.0840
   54MOL   C42136567   6.929   6.350   5.554 -0.0258 -0.1382 -0.5336
   54MOL   C42236568   6.862   6.300   5.433  0.2784 -0.3604 -0.8773
   54MOL   O42336569   6.924   6.263   5.322 -0.2032  0.1844 -0.0938
   54MOL   C42436570   7.042   6.201   5.323 -0.3171  0.2221  0.4663
   54MOL   C42536571   7.044   6.058   5.309 -0.7879 -0.7452  0.1800
   54MOL   C42636572   7.163   5.987   5.314  0.5137  0.5111 -1.3190
   54MOL   C42736573   7.286   6.056   5.328  0.2226  0.2241 -0.5402
   54MOL   C42836574   7.288   6.199   5.335  0.5930  0.0435  0.1485
   54MOL   C42936575   7.166   6.271   5.344 -1.1912 -0.2271  0.1670
   54MOL   C43036576   6.718   6.298   5.443  0.6776 -0.0058 -0.4277
   54MOL   C43136577   6.650   6.328   5.559  0.0579 -0.1074  0.2702
   54MOL   H43236578   6.646   6.631   5.573 -0.2133  0.8929 -0.8154
   54MOL   H43336579   6.488   6.806   5.514  1.6935  0.5267  0.5086
   54MOL   H43436580   6.260   6.688   5.858 -2.3720 -0.2654 -2.9362
   54MOL   H43536581   6.409   6.503   5.910 -0.2134 -1.6992 -1.2726
   54MOL   H43636582   6.904   6.409   5.762  1.1727  0.3450 -0.8698
   54MOL   H43736583   7.037   6.354   5.554  0.1262 -1.7649  3.5627
   54MOL   H43836584   6.951   6.006   5.289 -0.9320  0.0694 -1.2857
   54MOL   H43936585   7.166   5.880   5.301  2.9380  0.5076 -0.9716
   54MOL   H44036586   7.384   6.248   5.339  1.0212 -0.8724  1.3347
   54MOL   H44136587   7.161   6.379   5.347  0.0019 -0.1316 -0.9131
   54MOL   H44236588   6.658   6.255   5.363 -2.1154  0.5008  1.3489
   54MOL   H44336589   6.544   6.347   5.559 -0.0045 -0.4415  0.2400
   54MOL   C44436590   7.739   6.122   5.375  0.3480  0.4106  0.3324
   54MOL   C44536591   7.606   6.089   5.406  0.5560  0.6494 -0.3094
   54MOL   C44636592   7.521   6.033   5.304  0.2194 -1.1234 -0.8727
   54MOL   O44736593   7.397   5.985   5.344 -0.3929  0.1492 -0.1885
   54MOL   C44836594   7.566   6.019   5.174 -0.0081  0.0048  0.2150
   54MOL   C44936595   7.696   6.057   5.140 -0.2137  0.0995 -0.2895
   54MOL   C45036596   7.784   6.101   5.245  0.1866  0.1440 -0.1238
   54MOL   C45136597   7.917   6.147   5.210  0.6371  0.1571  0.1752
   54MOL   O45236598   8.003   6.063   5.182  0.0455  0.1478  0.1725
   54MOL   C45336599   7.933   6.296   5.204 -0.1171  0.3039 -0.3186
   54MOL   C45436600   8.062   6.345   5.204  0.0822 -0.4305  0.4217
   54MOL   C45536601   8.086   6.484   5.211 -1.0512  0.1795  0.7720
   54MOL   C45636602   7.980   6.573   5.224  0.2272  0.0155 -0.4371
   54MOL   O45736603   8.001   6.704   5.248 -0.2552  0.6021 -0.4040
   54MOL   C45836604   7.948   6.761   5.360  0.8466  0.4951  0.5617
   54MOL   C45936605   7.951   6.707   5.489  0.0151 -0.5371 -0.2969
   54MOL   C46036606   7.899   6.780   5.605  0.1107  0.5066  0.1583
   54MOL   C46136607   7.831   6.900   5.588 -0.3736 -0.1858 -0.0593
   54MOL   C46236608   7.816   6.948   5.454 -0.2552  0.8754  0.6205
   54MOL   C46336609   7.882   6.887   5.343  0.1618 -0.2485  0.4983
   54MOL   C46436610   7.847   6.525   5.218  0.0642 -0.9920 -0.0510
   54MOL   C46536611   7.828   6.386   5.202 -0.2089 -0.4504  0.6361
   54MOL   H46636612   7.813   6.159   5.445  1.4113  3.5774 -2.3012
   54MOL   H46736613   7.572   6.091   5.509 -0.4270 -2.9427 -0.4796
   54MOL   H46836614   7.492   5.976   5.107 -0.9761  0.5233  0.9268
   54MOL   H46936615   7.721   6.049   5.035 -0.5191 -0.4961 -0.3167
   54MOL   H47036616   8.150   6.283   5.208 -0.4669 -1.1151  2.4235
   54MOL   H47136617   8.187   6.521   5.213 -0.2464 -1.7642 -1.6329
   54MOL   H47236618   7.998   6.611   5.505  0.5507 -0.4718 -1.4323
   54MOL   H47336619   7.897   6.735   5.703 -3.0971  0.1029 -0.0354
   54MOL   H47436620   7.770   7.043   5.432 -0.0294  0.2862 -2.6587
   54MOL   H47536621   7.883   6.930   5.243 -0.2052  0.2242  0.6943
   54MOL   H47636622   7.767   6.596   5.233  1.3186  0.9868 -2.3498
   54MOL   H47736623   7.727   6.351   5.200 -0.3248 -0.0733 -1.1266
   54MOL   C47836624   7.456   6.780   5.771  0.0718 -0.3313 -0.6620
   54MOL   C47936625   7.578   6.816   5.702  0.5166  0.0414  0.0468
   54MOL   C48036626   7.655   6.928   5.748  0.5772 -0.4660 -0.5689
   54MOL   O48136627   7.782   6.966   5.695  0.1160 -0.5239  0.0215
   54MOL   C48236628   7.604   7.014   5.853  0.0092 -0.3705  0.4149
   54MOL   C48336629   7.486   6.974   5.920 -0.1324  0.1615  0.3363
   54MOL   C48436630   7.413   6.862   5.877  0.3642 -0.1667  0.0054
   54MOL   C48536631   7.285   6.829   5.947 -0.2667  0.3794  1.4296
   54MOL   O48636632   7.276   6.808   6.068 -0.1471 -0.3460 -0.2844
   54MOL   C48736633   7.158   6.814   5.858  0.2249  0.6277 -0.0749
   54MOL   C48836634   7.060   6.710   5.874  0.2946 -0.2553  0.3173
   54MOL   C48936635   6.958   6.704   5.783  0.6044 -0.4065  0.2214
   54MOL   C49036636   6.945   6.803   5.680  0.7385  0.2809  0.1998
   54MOL   O49136637   6.851   6.788   5.586 -0.1180  0.6731  0.4719
   54MOL   C49236638   6.878   6.806   5.454 -0.3337 -0.4673  0.2747
   54MOL   C49336639   6.815   6.908   5.380  0.1050  0.1463 -0.1928
   54MOL   C49436640   6.855   6.945   5.256 -0.3126  0.1026 -0.3011
   54MOL   C49536641   6.962   6.872   5.194  0.3402 -0.0724  0.8488
   54MOL   C49636642   7.021   6.757   5.254  0.2971 -0.8846  0.2575
   54MOL   C49736643   6.976   6.732   5.383  0.0500  0.4769 -0.9778
   54MOL   C49836644   7.037   6.909   5.670 -0.7758  0.2404 -0.6734
   54MOL   C49936645   7.145   6.915   5.760 -0.3785 -0.5355 -0.7034
   54MOL   H50036646   7.398   6.699   5.729 -1.5516  0.3777  0.1908
   54MOL   H50136647   7.620   6.751   5.626  0.1886  1.6207 -1.5097
   54MOL   H50236648   7.658   7.103   5.881  0.7678 -0.6187 -0.2459
   54MOL   H50336649   7.461   7.031   6.007  0.0395  0.4125  0.2195
   54MOL   H50436650   7.064   6.629   5.945 -2.5372 -0.2793  0.5097
   54MOL   H50536651   6.887   6.623   5.783  0.2938 -0.1550  1.6377
   54MOL   H50636652   6.730   6.960   5.420 -0.0042 -0.7853  0.8169
   54MOL   H50736653   6.803   7.023   5.202 -0.8926  1.1690  1.7229
   54MOL   H50836654   7.100   6.695   5.213  0.8791 -0.8598  1.3139
   54MOL   H50936655   7.023   6.650   5.436  0.2295  1.0122 -0.3029
   54MOL   H51036656   7.026   6.984   5.593 -0.1750 -0.0459 -1.0347
   54MOL   H51136657   7.220   6.993   5.759  2.5051 -3.1933 -0.2429
   54MOL   C51236658   7.112   7.253   5.001 -0.0997 -0.0193  0.6137
   54MOL   C51336659   7.033   7.137   5.008 -0.2486 -0.1594  0.1460
   54MOL   C51436660   7.082   7.012   5.050 -0.3651  0.0532 -0.4383
   54MOL   O51536661   6.993   6.908   5.060  0.2669  0.0207  0.4436
   54MOL   C51636662   7.221   7.002   5.084  0.5427  0.0489  0.1444
   54MOL   C51736663   7.305   7.119   5.072 -1.1634 -0.4552 -0.2669
   54MOL   C51836664   7.248   7.247   5.033  0.4651  0.1003 -0.1179
   54MOL   C51936665   7.333   7.371   5.034 -0.2284 -0.4235 -0.0675
   54MOL   O52036666   7.315   7.452   5.128 -0.0456 -0.2997  0.1705
   54MOL   C52136667   7.426   7.398   4.927 -0.8277  0.0800 -0.3098
   54MOL   C52236668   7.514   7.510   4.924 -0.9030  0.2863  0.2059
   54MOL   C52336669   7.611   7.530   4.823 -0.8024  0.8977  0.4494
   54MOL   C52436670   7.620   7.439   4.713  0.4398 -0.0874  0.1193
   54MOL   O52536671   7.731   7.457   4.621  0.0503  0.7565  0.0949
   54MOL   C52636672   7.748   7.562   4.538  0.2766 -0.5276 -0.3522
   54MOL   C52736673   7.873   7.574   4.471  0.2805 -0.2607  0.0451
   54MOL   C52836674   7.900   7.686   4.388  0.0445  0.1924  0.0205
   54MOL   C52936675   7.805   7.788   4.372  0.1959  0.7453  0.4640
   54MOL   C53036676   7.678   7.775   4.440 -0.4352 -0.3572  0.0324
   54MOL   C53136677   7.649   7.666   4.515  0.0260  0.3811  0.4184
   54MOL   C53236678   7.530   7.331   4.706  0.1645  0.2383  0.3423
   54MOL   C53336679   7.440   7.311   4.815  0.0494 -0.2562  0.4224
   54MOL   H53436680   7.069   7.344   4.961  1.7371 -0.4145 -2.4899
   54MOL   H53536681   6.928   7.137   4.985 -0.2859 -1.0226  0.3345
   54MOL   H53636682   7.269   6.913   5.121  0.5915  0.0752  0.1445
   54MOL   H53736683   7.410   7.111   5.096 -1.0549  1.5394  0.0680
   54MOL   H53836684   7.489   7.583   5.000  0.3973  0.6878  0.2618
   54MOL   H53936685   7.688   7.605   4.832  0.5139 -0.7160  3.1011
   54MOL   H54036686   7.940   7.491   4.482 -0.8766 -1.1887  0.1515
   54MOL   H54136687   7.996   7.692   4.339  1.4473 -1.0942  2.4995
   54MOL   H54236688   7.606   7.853   4.418  0.0227 -0.3348 -1.4152
   54MOL   H54336689   7.548   7.666   4.553 -0.9233  1.9178 -1.9479
   54MOL   H54436690   7.521   7.252   4.633  0.0101  0.6610 -0.1020
   54MOL   H54536691   7.386   7.218   4.806 -1.4718  0.5661  0.9655
   54MOL   C54636692   7.946   7.836   3.961 -0.5493 -0.4900 -0.3416
   54MOL   C54736693   7.947   7.839   4.102 -0.1839 -0.3923 -0.8630
   54MOL   C54836694   7.838   7.898   4.169 -0.2867 -0.7522  0.2980
   54MOL   O54936695   7.829   7.903   4.308 -0.6262  0.1669  0.2432
   54MOL   C55036696   7.728   7.945   4.091 -0.0840 -0.4296  0.6799
   54MOL   C55136697   7.731   7.940   3.949  0.3799  0.3984 -0.2868
   54MOL   C55236698   7.841   7.887   3.883 -0.3561  1.1845  0.4320
   54MOL   C55336699   7.843   7.872   3.735  0.3473 -0.8402  1.0996
   54MOL   O55436700   7.778   7.951   3.659 -0.7224  0.3964  0.2020
   54MOL   C55536701   7.921   7.765   3.671  0.0985 -0.3039 -0.2185
   54MOL   C55636702   7.936   7.636   3.719 -0.0103 -0.9179 -0.5477
   54MOL   C55736703   8.000   7.531   3.641 -0.9426 -0.3708  0.0362
   54MOL   C55836704   8.063   7.565   3.523 -0.1228 -0.0360  0.0721
   54MOL   O55936705   8.121   7.466   3.449 -0.0119 -0.5061 -0.4721
   54MOL   C56036706   8.052   7.427   3.339 -0.0662  0.6938 -0.3943
   54MOL   C56136707   8.073   7.476   3.208 -0.7051 -0.2459  0.3123
   54MOL   C56236708   7.996   7.431   3.099 -0.2837 -0.5475 -0.0990
   54MOL   C56336709   7.898   7.334   3.121 -0.6476 -0.3414  0.1174
   54MOL   C56436710   7.872   7.281   3.249  0.5229  0.4188  0.2022
   54MOL   C56536711   7.945   7.331   3.357  0.7169 -0.0090 -0.0694
   54MOL   C56636712   8.059   7.697   3.474 -0.5768 -0.6947  0.1454
   54MOL   C56736713   7.998   7.790   3.556 -0.1679  0.2564 -0.5165
   54MOL   H56836714   8.026   7.792   3.903 -0.0361 -1.4385  1.0484
   54MOL   H56936715   8.027   7.812   4.170 -1.6273  0.6142  1.2631
   54MOL   H57036716   7.646   7.991   4.144  0.4105 -0.5019  1.5184
   54MOL   H57136717   7.642   7.981   3.904 -1.4402 -3.2331 -0.1566
   54MOL   H57236718   7.881   7.609   3.808  0.6426 -1.4427 -0.2939
   54MOL   H57336719   8.004   7.425   3.662 -0.9337 -0.0375  1.7508
   54MOL   H57436720   8.160   7.539   3.192 -2.1667  1.2834 -1.7875
   54MOL   H57536721   8.027   7.455   2.998 -1.4582 -2.8430 -1.0321
   54MOL   H57636722   7.800   7.204   3.275  0.1965  1.1947  1.6845
   54MOL   H57736723   7.918   7.285   3.451 -1.9896  0.5404 -0.5518
   54MOL   H57836724   8.116   7.721   3.386  0.2713  4.7454  1.9872
   54MOL   H57936725   7.996   7.893   3.524  2.0897  0.2559 -0.7252
   54MOL   C58036726   7.518   7.103   3.029  0.9529 -0.1343  0.2910
   54MOL   C58136727   7.609   7.215   3.031 -0.2978  0.1239 -0.4304
   54MOL   C58236728   7.748   7.192   3.002  0.7369 -0.1563 -0.4135
   54MOL   O58336729   7.833   7.298   3.004 -0.3873  0.5023 -0.4903
   54MOL   C58436730   7.794   7.070   2.962  0.0252  0.4849  0.3798
   54MOL   C58536731   7.703   6.962   2.958 -0.4506 -0.7997 -0.1651
   54MOL   C58636732   7.567   6.977   2.992 -1.0333 -0.8401  0.0657
   54MOL   C58736733   7.485   6.858   2.994  0.0210  0.2434 -0.1075
   54MOL   O58836734   7.421   6.829   2.894 -0.3447 -0.4073 -0.1187
   54MOL   C58936735   7.484   6.780   3.123 -0.4382 -0.7567  0.0261
   54MOL   C59036736   7.379   6.698   3.157  0.3943 -0.2812 -0.3649
   54MOL   C59136737   7.380   6.615   3.276  0.8012 -0.1821  0.6137
   54MOL   C59236738   7.493   6.629   3.363  0.1531  0.2868 -0.2341
   54MOL   O59336739   7.499   6.561   3.482  0.9351 -0.3870  0.4898
   54MOL   C59436740   7.445   6.630   3.589 -0.4340  0.3037  0.3904
   54MOL   C59536741   7.499   6.756   3.623  0.3262  0.1512 -0.1263
   54MOL   C59636742   7.435   6.827   3.721  0.1228  0.5044  0.1139
   54MOL   C59736743   7.330   6.770   3.796 -0.5183 -0.2449 -0.4170
   54MOL   C59836744   7.284   6.640   3.762 -0.2257 -0.6889  0.3353
   54MOL   C59936745   7.333   6.570   3.654 -1.0038  0.5612 -0.7520
   54MOL   C60036746   7.607   6.707   3.326  0.2137 -0.0650 -0.6270
   54MOL   C60136747   7.596   6.779   3.204  0.2673 -0.4374 -0.2704
   54MOL   H60236748   7.418   7.117   3.068  0.6070  1.7085 -1.2234
   54MOL   H60336749   7.587   7.313   3.068 -2.0319 -0.2253 -0.5209
   54MOL   H60436750   7.896   7.054   2.931 -0.1786 -0.3797  0.1398
   54MOL   H60536751   7.736   6.862   2.934  1.3454 -0.0461 -0.9559
   54MOL   H60636752   7.285   6.699   3.103  0.2007 -0.3825 -0.0274
   54MOL   H60736753   7.290   6.557   3.291  1.7681 -2.2063 -1.0170
   54MOL   H60836754   7.572   6.807   3.561 -0.0955  2.2500  1.0461
   54MOL   H60936755   7.478   6.924   3.741  0.7300  0.5248 -1.2539
   54MOL   H61036756   7.211   6.594   3.828 -0.0286 -2.4793 -0.6494
   54MOL   H61136757   7.282   6.483   3.615 -0.5931  0.0621 -0.1828
   54MOL   H61236758   7.702   6.713   3.376  0.4604  1.4599 -1.2692
   54MOL   H61336759   7.682   6.839   3.179  1.1954 -1.0648  1.3986
   54MOL   C61436760   7.517   6.716   4.175  0.6219  0.2083  0.4258
   54MOL   C61536761   7.464   6.792   4.066  0.9492 -0.4305  0.4566
   54MOL   C61636762   7.327   6.775   4.024 -0.3277  0.0116  0.5535
   54MOL   O61736763   7.288   6.835   3.908  0.6081  0.2882  0.1453
   54MOL   C61836764   7.243   6.689   4.087 -0.0489 -0.0729  0.1975
   54MOL   C61936765   7.299   6.627   4.203 -0.5273  0.5398 -0.5086
   54MOL   C62036766   7.432   6.621   4.238 -0.0874  0.5035 -0.6986
   54MOL   C62136767   7.477   6.543   4.359  0.1164  0.0332 -0.1156
   54MOL   O62236768   7.399   6.527   4.451 -0.3456 -0.2887 -0.0034
   54MOL   C62336769   7.615   6.486   4.353 -0.4504 -0.4666  0.5379
   54MOL   C62436770   7.700   6.507   4.468  0.4376 -0.3939  0.3921
   54MOL   C62536771   7.823   6.446   4.472 -0.3485 -0.9422 -0.3251
   54MOL   C62636772   7.876   6.381   4.359 -0.6305  0.5273 -0.3417
   54MOL   O62736773   8.007   6.344   4.359 -0.1029  0.7062 -0.2089
   54MOL   C62836774   8.021   6.204   4.358 -0.4848  0.7436  0.5807
   54MOL   C62936775   8.022   6.142   4.484 -0.6917  0.7835  0.1422
   54MOL   C63036776   8.051   6.003   4.496 -0.0121  0.1586  0.7795
   54MOL   C63136777   8.100   5.930   4.380  0.2101  0.3908  0.0722
   54MOL   C63236778   8.119   6.006   4.256 -0.2682 -0.0370  0.1869
   54MOL   C63336779   8.076   6.135   4.245 -0.6201 -0.1536  0.3998
   54MOL   C63436780   7.795   6.366   4.241  0.3293  0.1336  0.7433
   54MOL   C63536781   7.663   6.409   4.244  0.3328 -0.0387  0.0604
   54MOL   H63636782   7.621   6.736   4.198  1.1621  0.9741 -2.5441
   54MOL   H63736783   7.527   6.859   4.011  1.8583 -0.6867  1.1702
   54MOL   H63836784   7.144   6.676   4.045  0.7737 -1.8655 -1.2544
   54MOL   H63936785   7.233   6.567   4.264  0.0786 -1.4391 -1.7616
   54MOL   H64036786   7.665   6.562   4.555  0.6794  0.2744  0.0649
   54MOL   H64136787   7.881   6.448   4.563 -0.3975 -0.9429 -0.2947
   54MOL   H64236788   8.010   6.201   4.574  0.2715 -0.8325  1.3567
   54MOL   H64336789   8.047   5.953   4.591  1.7469  0.2630  0.9252
   54MOL   H64436790   8.157   5.955   4.169 -0.6690 -0.9413  0.5416
   54MOL   H64536791   8.099   6.188   4.153 -1.9164  0.7206  0.5697
   54MOL   H64636792   7.834   6.317   4.153  0.8113  1.3674  0.2688
   54MOL   H64736793   7.606   6.399   4.153  0.5619 -0.9185  0.0115
   54MOL   C64836794   7.805   5.622   4.444 -0.1557 -0.2139 -0.3864
   54MOL   C64936795   7.915   5.700   4.475 -0.1672  0.2400 -0.2192
   54MOL   C65036796   8.022   5.709   4.381  0.0718 -0.6554  0.2501
   54MOL   O65136797   8.122   5.795   4.396 -0.5179 -0.2806  0.1740
   54MOL   C65236798   8.022   5.626   4.267 -0.2806  0.3320 -0.6270
   54MOL   C65336799   7.922   5.531   4.258  0.0090  0.0345  0.9282
   54MOL   C65436800   7.810   5.526   4.345  0.2313 -0.5407  0.0110
   54MOL   C65536801   7.702   5.427   4.334  0.1302 -0.1484  0.8929
   54MOL   O65636802   7.717   5.310   4.322 -0.1909 -0.3709 -0.4291
   54MOL   C65736803   7.558   5.481   4.342  0.6004  0.3716 -0.1534
   54MOL   C65836804   7.529   5.594   4.265 -0.0242  0.2462  0.5551
   54MOL   C65936805   7.402   5.650   4.275 -0.6563  0.4639 -0.1748
   54MOL   C66036806   7.301   5.600   4.365  0.1376 -0.0952  0.9508
   54MOL   O66136807   7.183   5.665   4.392  0.1835 -0.7731 -0.3056
   54MOL   C66236808   7.089   5.658   4.294 -0.0531 -0.3963 -0.7526
   54MOL   C66336809   7.001   5.549   4.286  0.0909 -0.8594  0.3112
   54MOL   C66436810   6.906   5.546   4.184  0.4508 -0.5918  0.8057
   54MOL   C66536811   6.885   5.660   4.098  0.1589 -0.8512  0.3200
   54MOL   C66636812   6.964   5.775   4.115 -0.3792  0.2252 -0.6687
   54MOL   C66736813   7.070   5.769   4.213  0.4417  0.9424 -0.0043
   54MOL   C66836814   7.333   5.482   4.438 -0.0862 -0.3639  0.3745
   54MOL   C66936815   7.460   5.419   4.421 -0.4435  0.3511  0.5578
   54MOL   H67036816   7.729   5.606   4.519 -0.7174 -1.2876 -1.1720
   54MOL   H67136817   7.930   5.762   4.563 -0.1320 -2.7044  1.9022
   54MOL   H67236818   8.106   5.633   4.200 -0.5190 -1.5855 -1.1480
   54MOL   H67336819   7.922   5.462   4.175 -0.0966  1.7923 -0.5725
   54MOL   H67436820   7.606   5.648   4.213  1.7991 -2.2616  0.5771
   54MOL   H67536821   7.377   5.736   4.215 -0.8265  0.3992 -0.1991
   54MOL   H67636822   7.007   5.471   4.361  0.1455  0.5428  1.8024
   54MOL   H67736823   6.845   5.459   4.166  0.4755 -0.0069 -2.4134
   54MOL   H67836824   6.935   5.859   4.054  0.0889  0.1266 -1.0307
   54MOL   H67936825   7.138   5.852   4.223  0.4133  0.9671 -0.0210
   54MOL   H68036826   7.261   5.446   4.510  0.3385 -1.2728  0.3464
   54MOL   H68136827   7.486   5.334   4.481  1.5033 -0.9449 -2.0463
   54MOL   H68236828   6.807   5.649   4.023 -1.9014  2.9019  1.7684
   55MOL     C136829   7.116   3.555   5.827  0.6404 -0.2197  0.0803
   55MOL     C236830   7.034   3.472   5.752 -0.7944  0.5907  0.4672
   55MOL     C336831   6.986   3.353   5.807 -0.3363  0.0608  0.5246
   55MOL     O436832   6.912   3.269   5.724  0.3466 -0.1946  0.0229
   55MOL     C536833   7.032   3.309   5.932  1.1101 -0.7928 -0.0591
   55MOL     C636834   7.110   3.392   6.014  0.3925 -0.4821 -0.3965
   55MOL     C736835   7.147   3.520   5.960  0.0652 -0.1298 -0.1234
   55MOL     C836836   7.224   3.609   6.057 -0.7594  1.1145  0.5134
   55MOL     O936837   7.303   3.561   6.139  0.1881  0.5430 -0.1479
   55MOL    C1036838   7.203   3.758   6.049 -0.4189  0.0066  0.3300
   55MOL    C1136839   7.076   3.804   6.023  0.0340 -0.6036  0.4428
   55MOL    C1236840   7.044   3.942   6.028  0.4693  0.2572 -0.3489
   55MOL    C1336841   7.145   4.033   6.069  0.0137  0.0411 -0.3581
   55MOL    O1436842   7.125   4.161   6.074  0.3103 -0.7698 -1.1147
   55MOL    C1536843   7.106   4.221   6.195  0.2370 -0.2044  0.2394
   55MOL    C1636844   7.044   4.148   6.297 -0.5089  0.5431 -0.4276
   55MOL    C1736845   7.034   4.209   6.428  0.3847  0.4299  0.2202
   55MOL    C1836846   7.092   4.330   6.454  0.0597  0.0485 -0.2842
   55MOL    C1936847   7.160   4.397   6.350 -0.9325 -0.5239  0.0864
   55MOL    C2036848   7.160   4.348   6.221  0.2742  0.2464  1.1158
   55MOL    C2136849   7.272   3.991   6.096  0.0040 -0.2182  0.4809
   55MOL    C2236850   7.302   3.855   6.091 -0.4733  0.2472 -0.0134
   55MOL    H2336851   7.155   3.649   5.790  0.5364 -0.9247 -1.8154
   55MOL    H2436852   7.018   3.498   5.648  0.2151  3.8308  1.0652
   55MOL    H2536853   7.007   3.210   5.967 -0.2061  0.1954  1.8580
   55MOL    H2636854   7.132   3.356   6.113 -2.1886  1.0085  0.7591
   55MOL    H2736855   6.997   3.737   5.992  0.1020 -0.7454  0.5793
   55MOL    H2836856   6.946   3.968   5.992  0.1899 -0.2096  0.0632
   55MOL    H2936857   6.997   4.053   6.277 -0.9937  0.5960  0.4206
   55MOL    H3036858   6.994   4.148   6.508 -2.2305  0.1714 -1.2390
   55MOL    H3136859   7.214   4.489   6.369 -0.2243 -0.2559 -3.0290
   55MOL    H3236860   7.225   4.387   6.144 -1.3625  2.1497  0.6594
   55MOL    H3336861   7.344   4.066   6.125 -0.1545  0.5023 -0.9167
   55MOL    H3436862   7.394   3.806   6.122  0.4091  2.3079  0.6947
   55MOL    H3536863   6.876   3.197   5.773 -0.3620  0.2566  0.1729
   55MOL    C3636864   7.390   4.512   6.750  0.3005  0.6609 -0.3357
   55MOL    C3736865   7.289   4.426   6.697  0.2794  0.4564  0.6369
   55MOL    C3836866   7.176   4.479   6.631  0.3444  0.6830 -0.1184
   55MOL    O3936867   7.079   4.394   6.581 -0.1870  0.4678  0.2073
   55MOL    C4036868   7.159   4.616   6.635 -0.6339 -0.1013 -0.5425
   55MOL    C4136869   7.256   4.701   6.697 -0.3631  0.1084 -0.0148
   55MOL    C4236870   7.377   4.649   6.747 -0.0351 -0.0462  0.4236
   55MOL    C4336871   7.479   4.740   6.809 -0.0133  0.7806 -0.3828
   55MOL    O4436872   7.451   4.849   6.859 -0.3425 -0.3087 -0.0493
   55MOL    C4536873   7.621   4.697   6.802  0.4284 -0.4455 -0.1344
   55MOL    C4636874   7.709   4.723   6.909 -0.3026  0.2248  0.1879
   55MOL    C4736875   7.846   4.695   6.898 -0.7059  0.3078  0.0220
   55MOL    C4836876   7.900   4.625   6.783 -0.1342 -0.3506 -0.1974
   55MOL    O4936877   8.032   4.607   6.772  0.1129  0.3638  0.1227
   55MOL    C5036878   8.090   4.490   6.811  0.1615  0.2397  0.5488
   55MOL    C5136879   8.034   4.369   6.800 -0.4441  0.0709  0.3742
   55MOL    C5236880   8.110   4.257   6.831 -0.1721 -0.6849 -0.0893
   55MOL    C5336881   8.233   4.267   6.896 -0.2548  0.6321 -0.6821
   55MOL    C5436882   8.286   4.392   6.923 -0.0348 -0.0075  0.1314
   55MOL    C5536883   8.216   4.508   6.879  0.5221  0.6651 -0.5340
   55MOL    C5636884   7.807   4.588   6.688  0.2569 -0.1246  0.3943
   55MOL    C5736885   7.671   4.623   6.691 -0.7138  0.2588  0.4130
   55MOL    H5836886   7.474   4.463   6.797 -0.2876  0.3063  0.3571
   55MOL    H5936887   7.311   4.320   6.697  2.2392  0.8356  0.0801
   55MOL    H6036888   7.073   4.658   6.585  0.4374  1.4220 -1.1581
   55MOL    H6136889   7.223   4.804   6.706 -1.1482 -0.2074  0.9032
   55MOL    H6236890   7.667   4.762   7.001  0.1840  0.3770  0.3455
   55MOL    H6336891   7.918   4.716   6.975 -0.6725 -1.4446  0.4897
   55MOL    H6436892   7.931   4.352   6.773 -1.2371  1.4600  2.3338
   55MOL    H6536893   8.061   4.160   6.828 -0.3234 -0.6096 -0.0491
   55MOL    H6636894   0.065   4.412   6.974  0.4138  1.2049 -1.1094
   55MOL    H6736895   8.251   4.610   6.886  1.3804  0.3351  0.0631
   55MOL    H6836896   7.844   4.523   6.610 -0.7944 -0.7062  0.3585
   55MOL    H6936897   7.621   4.593   6.600 -1.3137  0.1882  0.7647
   55MOL    C7036898   8.180   3.963   7.229  0.0046 -0.5107  0.2187
   55MOL    C7136899   8.197   4.003   7.095 -0.7725  0.4535  0.0696
   55MOL    C7236900   8.283   4.113   7.068 -0.2153  0.4352  0.0537
   55MOL    O7336901   8.298   4.154   6.935  0.3355  0.7134 -0.3999
   55MOL    C7436902   0.035   4.182   7.175 -0.5834  0.0687  0.3999
   55MOL    C7536903   0.013   4.141   7.308 -0.0243 -0.2151 -0.0502
   55MOL    C7636904   8.247   4.030   7.333  0.5121  0.6259  0.0532
   55MOL    C7736905   8.227   3.988   7.477 -0.8281 -0.5363  0.7830
   55MOL    O7836906   8.121   3.946   7.522  0.0441 -0.1991  0.0872
   55MOL    C7936907   0.026   3.997   7.569 -0.3244  0.1165 -0.0404
   55MOL    C8036908   0.159   3.973   7.525  0.0317 -0.3836 -0.2052
   55MOL    C8136909   0.272   3.985   7.614 -0.2193 -0.0505 -0.2652
   55MOL    C8236910   0.245   4.037   7.745 -0.0793  0.4718 -0.0654
   55MOL    O8336911   0.356   4.060   7.827  0.2281 -0.2531  0.2533
   55MOL    C8436912   0.360   3.981   7.939 -0.7967  0.2760  0.7037
   55MOL    C8536913   0.373   3.841   7.924 -0.5721 -0.1075  0.9513
   55MOL    C8636914   0.350   3.758   8.034 -0.0462 -0.0040 -0.1547
   55MOL    C8736915   0.316   3.808   8.155 -0.1594 -0.2778  0.0045
   55MOL    C8836916   0.314   3.951   8.176 -0.1536  0.4801  0.2590
   55MOL    C8936917   0.337   4.035   8.063  0.3095  0.0409 -0.3105
   55MOL    C9036918   0.113   4.056   7.788  0.1050  0.1323 -0.3435
   55MOL    C9136919   0.010   4.040   7.699 -0.2433 -0.6772 -0.1826
   55MOL    H9236920   8.112   3.883   7.253 -0.1292 -1.2177 -2.3721
   55MOL    H9336921   8.147   3.946   7.018 -0.8436  0.1493  0.3367
   55MOL    H9436922   0.114   4.253   7.152 -1.1861  0.1729 -1.4089
   55MOL    H9536923   0.059   4.197   7.388 -0.3029  1.3318 -0.9455
   55MOL    H9636924   0.177   3.933   7.426  1.3128 -0.8578  0.2140
   55MOL    H9736925   0.371   3.973   7.573 -0.3560  1.3878 -1.0398
   55MOL    H9836926   0.387   3.799   7.825 -1.2429 -0.1854  0.8846
   55MOL    H9936927   0.342   3.653   8.010  0.1689 -0.2902  0.9989
   55MOL   H10036928   0.290   3.989   8.274 -2.4345  0.4950 -0.2874
   55MOL   H10136929   0.325   4.142   8.062 -0.1926 -0.0031  1.0078
   55MOL   H10236930   0.090   4.086   7.889  0.5587  1.0712 -0.5154
   55MOL   H10336931   8.222   4.059   7.733  0.2351  0.8453  0.4145
   55MOL   C10436932   0.626   3.720   0.127  0.0042  0.2261 -0.1312
   55MOL   C10536933   0.532   3.729   0.015 -0.2298  0.1551 -0.5724
   55MOL   C10636934   0.393   3.703   0.037 -0.0201  0.2805  0.0906
   55MOL   O10736935   0.293   3.721   8.258  0.4134  0.0448  0.4647
   55MOL   C10836936   0.357   3.652   0.164  0.1581  0.3127 -1.2179
   55MOL   C10936937   0.446   3.629   0.270 -0.0267  0.2201  0.8466
   55MOL   C11036938   0.583   3.670   0.251 -0.7669 -1.0493  0.4998
   55MOL   C11136939   0.670   3.651   0.371 -0.4288  0.1983 -0.1256
   55MOL   O11236940   0.651   3.559   0.449 -0.1427  0.0924 -0.3997
   55MOL   C11336941   0.783   3.737   0.381  0.5442 -0.2260 -0.1032
   55MOL   C11436942   0.909   3.692   0.330  0.6013 -0.0681  0.4781
   55MOL   C11536943   1.030   3.763   0.355 -0.9340 -0.3255  0.3471
   55MOL   C11636944   1.024   3.874   0.435 -0.1346 -0.2914  0.2784
   55MOL   O11736945   1.145   3.926   0.475 -0.1455  0.0462  0.8107
   55MOL   C11836946   1.186   4.045   0.414  0.0789  0.0817  0.2308
   55MOL   C11936947   1.255   4.132   0.501  0.0345 -0.1303  0.1866
   55MOL   C12036948   1.302   4.255   0.451 -0.4745 -0.3074 -0.3514
   55MOL   C12136949   1.281   4.289   0.318  0.1513 -0.8960  1.2464
   55MOL   C12236950   1.217   4.202   0.236 -0.1030 -0.3418  0.9052
   55MOL   C12336951   1.169   4.077   0.277  0.1616  0.0766 -0.5018
   55MOL   C12436952   0.901   3.920   0.483 -0.2621  1.0208  0.1525
   55MOL   C12536953   0.782   3.852   0.458  0.8579 -0.2811  0.0101
   55MOL   H12636954   0.727   3.751   0.108  0.2393  0.0864  0.9050
   55MOL   H12736955   0.566   3.767   8.232  2.8706  1.4332  0.9451
   55MOL   H12836956   0.253   3.625   0.182  0.9450 -0.5315  2.5754
   55MOL   H12936957   0.410   3.596   0.366 -0.3980 -2.0881 -0.0512
   55MOL   H13036958   0.916   3.602   0.271  0.8116 -0.2029  0.7101
   55MOL   H13136959   1.127   3.740   0.312 -1.4271  0.9129 -1.4867
   55MOL   H13236960   1.280   4.104   0.603  1.3241 -0.0864 -0.1053
   55MOL   H13336961   1.369   4.315   0.512 -0.2814 -2.7986  1.9994
   55MOL   H13436962   1.209   4.238   0.134  1.4688 -0.0960  0.8611
   55MOL   H13536963   1.113   4.024   0.201 -0.5975  1.1023 -0.6736
   55MOL   H13636964   0.903   4.009   0.545  1.2923  2.7438 -2.2566
   55MOL   H13736965   0.685   3.893   0.482  1.5150  0.9373  0.6554
   55MOL   C13836966   1.248   4.765   0.277  0.0770  0.6657  0.6562
   55MOL   C13936967   1.315   4.638   0.277  0.4221  0.0095 -0.0968
   55MOL   C14036968   1.250   4.511   0.257  0.0738 -0.1260 -0.4103
   55MOL   O14136969   1.329   4.400   0.266 -0.2726  0.0989 -0.2347
   55MOL   C14236970   1.107   4.517   0.239  0.2423  0.0591 -0.0885
   55MOL   C14336971   1.038   4.639   0.243  0.1929 -0.5226 -0.3338
   55MOL   C14436972   1.106   4.759   0.268 -0.8106 -0.1794  0.4151
   55MOL   C14536973   1.043   4.896   0.262 -0.0156  0.4804 -0.3560
   55MOL   O14636974   1.078   4.979   0.349  0.6810  0.4441  0.1323
   55MOL   C14736975   0.953   4.917   0.147 -0.1026 -0.3718 -0.3654
   55MOL   C14836976   0.852   5.014   0.178  0.7860  0.8010  0.2145
   55MOL   C14936977   0.758   5.040   0.074 -0.2963 -0.6331 -0.0369
   55MOL   C15036978   0.760   4.962   8.265  0.0988 -0.0639  0.0542
   55MOL   O15136979   0.662   4.971   8.169  0.4261  0.9566 -0.4996
   55MOL   C15236980   0.609   4.857   8.125 -0.4310 -0.3661  0.2217
   55MOL   C15336981   0.616   4.822   7.990 -0.0521  0.2066  0.5703
   55MOL   C15436982   0.569   4.697   7.943 -0.2756 -0.0018 -0.3249
   55MOL   C15536983   0.516   4.605   8.028 -0.0710  0.9327  0.2040
   55MOL   C15636984   0.509   4.634   8.166 -0.4450 -0.0115  0.5870
   55MOL   C15736985   0.558   4.758   8.219  0.1982 -0.3765 -0.0606
   55MOL   C15836986   0.873   4.876   8.236 -0.2963  0.5671 -0.0832
   55MOL   C15936987   0.961   4.845   0.031  0.1476 -0.3916  0.0270
   55MOL   H16036988   1.304   4.855   0.297 -0.6025  1.3030 -0.2808
   55MOL   H16136989   1.419   4.641   0.303  0.1067  1.2931  1.0596
   55MOL   H16236990   1.046   4.430   0.221  4.3533 -2.7291 -1.3484
   55MOL   H16336991   0.932   4.636   0.222 -0.4610  0.4969  2.4908
   55MOL   H16436992   0.850   5.065   0.273 -1.5984  0.0429  0.6069
   55MOL   H16536993   0.682   5.115   0.090  0.9651  0.4838  0.7540
   55MOL   H16636994   0.650   4.894   7.917  3.8924 -0.2659  1.8123
   55MOL   H16736995   0.577   4.681   7.837  0.9886  2.2464 -0.5994
   55MOL   H16836996   0.474   4.560   8.236  0.3517 -2.7788 -1.8331
   55MOL   H16936997   0.551   4.777   0.012 -0.1269 -0.6208 -0.0374
   55MOL   H17036998   0.880   4.830   8.139  0.2080 -1.3979  0.8624
   55MOL   H17136999   1.029   4.764   0.009  0.2613 -0.1212 -0.6429
   55MOL   C17237000   0.114   4.445   8.016 -0.0895  0.2400 -0.4415
   55MOL   C17337001   0.248   4.465   8.053  0.1605 -0.7160 -0.0452
   55MOL   C17437002   0.336   4.478   7.948  0.1164 -0.6880  0.3616
   55MOL   O17537003   0.465   4.484   7.979 -0.1228 -0.6895  0.1329
   55MOL   C17637004   0.293   4.479   7.813 -0.0840 -0.4740 -0.1958
   55MOL   C17737005   0.153   4.460   7.782 -0.9508 -0.1406 -0.2650
   55MOL   C17837006   0.066   4.433   7.884  0.1279  0.5604  0.4280
   55MOL   C17937007   8.238   4.388   7.850  0.1249 -0.3938 -0.0540
   55MOL   O18037008   8.201   4.285   7.902 -0.0036  0.0981  0.5763
   55MOL   C18137009   8.147   4.475   7.774 -0.5293  0.3423  0.1920
   55MOL   C18237010   8.035   4.415   7.716  0.5080 -0.6284  0.0746
   55MOL   C18337011   7.937   4.490   7.649 -0.5945  0.4917 -0.1875
   55MOL   C18437012   7.953   4.630   7.650  0.2902  0.0956 -0.6189
   55MOL   O18537013   7.851   4.713   7.603 -0.0313 -0.1886 -0.3953
   55MOL   C18637014   7.776   4.787   7.696  0.1734  0.4279  0.0634
   55MOL   C18737015   7.756   4.926   7.692 -0.4504  0.3086 -0.2244
   55MOL   C18837016   7.696   4.993   7.802  0.2016 -0.6394 -0.1066
   55MOL   C18937017   7.643   4.920   7.912 -0.0887 -0.8173 -0.2357
   55MOL   C19037018   7.670   4.782   7.912 -0.1535 -0.7216 -0.1218
   55MOL   C19137019   7.732   4.720   7.805  0.7108  0.1247 -0.0839
   55MOL   C19237020   8.071   4.683   7.713  0.1945  0.6790  0.0761
   55MOL   C19337021   8.174   4.612   7.764 -0.3642  0.2809 -0.4102
   55MOL   H19437022   0.056   4.425   8.105  0.9793 -1.9481 -0.1957
   55MOL   H19537023   0.289   4.470   8.152 -1.7565  0.7043  0.7140
   55MOL   H19637024   0.356   4.508   7.730 -1.3251  1.4176 -0.5110
   55MOL   H19737025   0.133   4.446   7.677  1.7203 -2.1656 -0.5679
   55MOL   H19837026   8.007   4.311   7.726 -1.5246 -0.0312  0.7915
   55MOL   H19937027   7.846   4.445   7.612 -0.0117 -1.1113  0.3092
   55MOL   H20037028   7.802   4.991   7.618 -0.0809  1.2417  0.8078
   55MOL   H20137029   7.669   5.097   7.791  0.2363 -0.7420 -1.1691
   55MOL   H20237030   7.635   4.722   7.994  0.4323  0.4230  0.9812
   55MOL   H20337031   7.729   4.613   7.793 -0.1089  0.1009  0.3182
   55MOL   H20437032   8.080   4.789   7.730  0.1880  0.9507 -1.5282
   55MOL   H20537033   8.254   4.662   7.817  1.4471  0.3003 -3.0778
   55MOL   C20637034   7.777   5.008   0.002 -0.6489 -0.0787  0.3451
   55MOL   C20737035   7.739   5.021   8.176 -1.1696 -0.0750 -0.5241
   55MOL   C20837036   7.614   4.956   8.143  0.1932  0.1070  0.9185
   55MOL   O20937037   7.578   4.983   8.014 -0.2974  1.2260  0.0450
   55MOL   C21037038   7.539   4.883   8.234 -0.2560 -0.6149  0.0021
   55MOL   C21137039   7.581   4.875   0.056 -0.1316  0.2987 -0.2054
   55MOL   C21237040   7.702   4.933   0.098 -0.1714  0.2602 -0.5752
   55MOL   C21337041   7.757   4.901   0.230 -0.1466  0.5358  0.4202
   55MOL   O21437042   7.701   4.829   0.310  0.0909  0.0536  0.4204
   55MOL   C21537043   7.894   4.949   0.258  0.9290  0.1459  0.1110
   55MOL   C21637044   7.913   5.083   0.299 -0.0124 -0.3334 -0.5784
   55MOL   C21737045   8.046   5.135   0.311 -0.3030  0.5705 -0.2697
   55MOL   C21837046   8.160   5.061   0.272 -0.4421  0.2774 -0.2183
   55MOL   O21937047   8.290   5.110   0.267 -0.1964  0.0106 -0.5949
   55MOL   C22037048   8.312   5.193   0.163 -0.7111 -0.0186  0.5171
   55MOL   C22137049   8.299   5.152   0.029 -0.5451 -0.0958  0.4189
   55MOL   C22237050   8.293   5.242   8.235 -0.7160  0.2143 -0.6309
   55MOL   C22337051   8.305   5.380   8.261 -0.4141  0.2436 -0.4291
   55MOL   C22437052   0.000   5.425   0.081  0.1991  0.4192  0.0449
   55MOL   C22537053   0.011   5.332   0.189  0.0963 -0.0777 -0.0759
   55MOL   C22637054   8.138   4.921   0.249 -0.5207  0.1645  0.0462
   55MOL   C22737055   8.006   4.871   0.237  0.7646 -0.2868 -0.6552
   55MOL   H22837056   7.868   5.059   0.033 -0.2147 -0.6418  0.0143
   55MOL   H22937057   7.794   5.087   8.111  0.5398  0.3146  1.2377
   55MOL   H23037058   7.443   4.844   8.205 -0.8074  2.1831 -2.1335
   55MOL   H23137059   7.514   4.820   0.120 -0.4849 -0.0518 -0.8664
   55MOL   H23237060   7.829   5.150   0.313 -0.0603 -0.1102 -1.8237
   55MOL   H23337061   8.066   5.233   0.354  0.2321 -0.2777  1.4582
   55MOL   H23437062   8.275   5.050   0.004  2.1081 -0.6488 -0.0056
   55MOL   H23537063   8.282   5.204   8.135  1.8692  1.3747 -1.3934
   55MOL   H23637064   0.016   5.532   0.091 -0.6011  0.4762  0.7552
   55MOL   H23737065   0.013   5.366   0.292  1.1195  1.2677 -0.5314
   55MOL   H23837066   8.229   4.865   0.232 -1.6237 -1.4448 -0.6148
   55MOL   H23937067   7.998   4.765   0.216 -2.8113  0.3511 -2.7369
   55MOL   C24037068   7.971   5.605   8.154 -0.0623  0.2230 -0.4356
   55MOL   C24137069   8.080   5.512   8.152 -0.0799 -0.4341 -0.3362
   55MOL   C24237070   8.211   5.558   8.159 -0.4321 -0.5061 -0.3463
   55MOL   O24337071   0.004   5.474   8.162 -0.7957  0.1043  0.1310
   55MOL   C24437072   8.232   5.698   8.148  0.9008  0.3771  0.1242
   55MOL   C24537073   8.127   5.788   8.141  0.6885 -0.0838  0.0438
   55MOL   C24637074   7.995   5.744   8.143 -0.2550  0.4860  0.4057
   55MOL   C24737075   7.878   5.834   8.145 -0.5389 -0.0339  0.6258
   55MOL   O24837076   7.879   5.945   8.195  0.6124 -0.1334  0.1521
   55MOL   C24937077   7.756   5.788   8.073 -0.0825 -0.0184  0.5960
   55MOL   C25037078   7.756   5.721   7.944 -0.1308 -0.6494 -0.2395
   55MOL   C25137079   7.635   5.679   7.882  0.1815  0.1834 -0.1524
   55MOL   C25237080   7.510   5.701   7.945 -0.0504 -0.0715  0.3904
   55MOL   O25337081   7.394   5.649   7.889 -0.5900  0.2672  0.4806
   55MOL   C25437082   7.320   5.730   7.802  0.0335 -0.0677 -0.5161
   55MOL   C25537083   7.292   5.683   7.673  0.2101  0.1667 -0.2571
   55MOL   C25637084   7.230   5.774   7.578  0.1309 -0.4114  0.3382
   55MOL   C25737085   7.192   5.905   7.619  0.1125  0.9448  0.1375
   55MOL   C25837086   7.223   5.946   7.746  0.0604 -0.0424 -0.7318
   55MOL   C25937087   7.281   5.858   7.837  0.4669 -0.3316 -0.5162
   55MOL   C26037088   7.513   5.758   8.076 -0.5703  0.1065 -0.7696
   55MOL   C26137089   7.632   5.811   8.136  0.0879  0.2906 -0.0635
   55MOL   H26237090   7.868   5.572   8.158 -0.4691  1.6255  1.1309
   55MOL   H26337091   8.059   5.406   8.155  1.0896 -0.6305  2.7229
   55MOL   H26437092   0.022   5.732   8.141  0.1273  2.9978  0.8536
   55MOL   H26537093   8.147   5.893   8.126 -1.6816  0.5239  0.8849
   55MOL   H26637094   7.848   5.697   7.893  0.1192  0.1562 -0.1751
   55MOL   H26737095   7.636   5.642   7.781 -0.6125  0.3772 -0.2345
   55MOL   H26837096   7.327   5.583   7.652  0.0666  0.2982 -1.1220
   55MOL   H26937097   7.204   5.731   7.482 -1.8215 -1.6961  1.4129
   55MOL   H27037098   7.199   6.049   7.769  0.2358  0.0719 -1.0483
   55MOL   H27137099   7.295   5.895   7.938 -1.0311 -0.1880 -0.3419
   55MOL   H27237100   7.423   5.770   8.134 -0.5408  1.4748 -0.9674
   55MOL   H27337101   7.629   5.856   8.235 -1.2179  0.8689 -0.3596
   55MOL   C27437102   7.367   6.188   7.342  0.2405 -0.4208 -0.6897
   55MOL   C27537103   7.315   6.086   7.426 -0.0130  0.2495  0.2468
   55MOL   C27637104   7.179   6.080   7.458  0.0409  0.7653  0.0137
   55MOL   O27737105   7.120   5.981   7.531  0.6297 -0.8429  0.2890
   55MOL   C27837106   7.091   6.179   7.404  0.1695  0.0209  0.0924
   55MOL   C27937107   7.141   6.284   7.331  0.4885  0.0236 -0.3059
   55MOL   C28037108   7.278   6.290   7.298  0.1643 -0.2336  0.1424
   55MOL   C28137109   7.325   6.403   7.213 -0.0096  0.4979  0.3379
   55MOL   O28237110   7.267   6.510   7.231  0.2528  0.4924  0.3961
   55MOL   C28337111   7.419   6.368   7.102 -0.8976  0.8536 -0.5241
   55MOL   C28437112   7.526   6.459   7.079 -0.0410  0.2182 -0.2260
   55MOL   C28537113   7.611   6.431   6.968 -0.0989 -0.1647 -0.3154
   55MOL   C28637114   7.598   6.306   6.899 -0.6143 -0.1689 -0.3311
   55MOL   O28737115   7.687   6.270   6.802  0.2157 -0.0514 -0.2602
   55MOL   C28837116   7.640   6.250   6.671 -0.6684  0.4013 -0.0364
   55MOL   C28937117   7.651   6.124   6.617  0.2859 -0.6624  0.7315
   55MOL   C29037118   7.592   6.100   6.492  0.0929  0.1275  0.2067
   55MOL   C29137119   7.521   6.203   6.427  0.5130 -0.2906 -0.1843
   55MOL   C29237120   7.512   6.333   6.480  0.0456  0.6315 -0.7581
   55MOL   C29337121   7.573   6.348   6.606  0.6664 -0.5464 -0.3254
   55MOL   C29437122   7.505   6.212   6.943  0.0108 -0.2650  0.1243
   55MOL   C29537123   7.415   6.244   7.037  0.4424  0.3064 -0.1965
   55MOL   H29637124   7.471   6.186   7.314  0.3885 -0.2114 -0.1625
   55MOL   H29737125   7.375   6.009   7.472  1.2801  1.6774  1.0316
   55MOL   H29837126   6.984   6.167   7.411  0.3171 -0.5453  1.7567
   55MOL   H29937127   7.076   6.361   7.293 -1.6458 -0.9319  1.3056
   55MOL   H30037128   7.526   6.550   7.137 -0.5336 -1.4258  2.4502
   55MOL   H30137129   7.679   6.506   6.929 -0.7578  0.4895 -0.2023
   55MOL   H30237130   7.712   6.045   6.658  1.7409  0.7272  1.2886
   55MOL   H30337131   7.616   6.009   6.438  2.6807  2.5611 -2.9427
   55MOL   H30437132   7.452   6.414   6.440  0.4951  2.0177  1.2961
   55MOL   H30537133   7.581   6.442   6.658 -1.8196 -0.3816 -0.1866
   55MOL   H30637134   7.513   6.113   6.901  0.5935 -0.2524  0.1979
   55MOL   H30737135   7.350   6.163   7.069  0.0351  0.5494 -0.4098
   55MOL   C30837136   7.564   6.337   6.012 -1.0336  0.0891  0.0185
   55MOL   C30937137   7.504   6.315   6.136  0.6734 -0.1103  0.4690
   55MOL   C31037138   7.503   6.188   6.197 -0.2157  0.1242  0.0783
   55MOL   O31137139   7.443   6.168   6.317 -0.0093 -0.3087 -0.5210
   55MOL   C31237140   7.560   6.085   6.121 -0.4408  0.4786  0.0618
   55MOL   C31337141   7.613   6.105   5.986  0.1658  0.4810  0.1770
   55MOL   C31437142   7.619   6.234   5.936 -0.3906  0.1586  0.1993
   55MOL   C31537143   7.680   6.262   5.801  0.0138 -0.4497  0.0971
   55MOL   O31637144   7.785   6.212   5.767  0.4727  0.3723 -0.2873
   55MOL   C31737145   7.603   6.352   5.702 -0.4453 -1.1099  0.2114
   55MOL   C31837146   7.463   6.353   5.703  0.6262  0.2347 -0.4355
   55MOL   C31937147   7.395   6.426   5.604  0.5941 -0.2806  0.6438
   55MOL   C32037148   7.459   6.503   5.505  0.8320 -0.3009 -0.4888
   55MOL   O32137149   7.386   6.571   5.407  0.2598  0.0054 -0.3463
   55MOL   C32237150   7.394   6.706   5.403 -0.4586 -0.6329 -0.1369
   55MOL   C32337151   7.303   6.786   5.464  0.6624  0.4374  0.4997
   55MOL   C32437152   7.309   6.927   5.459 -0.2973 -0.6806  0.3674
   55MOL   C32537153   7.418   6.986   5.393  0.0586  0.4658 -0.8299
   55MOL   C32637154   7.508   6.907   5.321  0.4672 -0.1657  1.2876
   55MOL   C32737155   7.502   6.764   5.334  0.2984  0.8668  0.1654
   55MOL   C32837156   7.600   6.488   5.504 -0.3755 -0.5598  0.2296
   55MOL   C32937157   7.671   6.411   5.595 -0.3817 -0.7231 -0.1757
   55MOL   H33037158   7.561   6.435   5.969  1.1781 -0.3366 -1.2142
   55MOL   H33137159   7.469   6.405   6.183  0.1432  0.2137 -0.5579
   55MOL   H33237160   7.561   5.988   6.169 -1.8377 -0.1941 -1.2539
   55MOL   H33337161   7.623   6.019   5.922 -1.8408 -0.3664  0.9607
   55MOL   H33437162   7.415   6.294   5.780 -0.5519 -0.9436 -2.0393
   55MOL   H33537163   7.288   6.432   5.590  0.4226 -3.2116  0.4387
   55MOL   H33637164   7.211   6.746   5.506  0.9668  0.7130  1.4429
   55MOL   H33737165   7.227   6.989   5.491 -0.9261 -0.7389 -1.0650
   55MOL   H33837166   7.573   6.960   5.252 -1.7660  2.5477  1.1701
   55MOL   H33937167   7.564   6.697   5.276 -0.9390  0.7098 -0.9903
   55MOL   H34037168   7.649   6.525   5.415 -0.9445 -4.1120 -1.6654
   55MOL   H34137169   7.779   6.412   5.590 -0.2861 -2.0850  1.0179
   55MOL   C34237170   7.367   7.329   5.675 -0.1395 -0.3659 -0.6559
   55MOL   C34337171   7.423   7.226   5.591 -0.2262 -0.1555 -0.4925
   55MOL   C34437172   7.366   7.198   5.468  0.0520 -0.4065  0.3425
   55MOL   O34537173   7.424   7.120   5.377 -0.2589  0.1799 -0.0215
   55MOL   C34637174   7.260   7.280   5.427 -0.3307 -0.1647  0.2354
   55MOL   C34737175   7.202   7.376   5.509 -0.6025 -0.0232 -0.7366
   55MOL   C34837176   7.263   7.409   5.634 -0.4945  0.2959 -0.4227
   55MOL   C34937177   7.202   7.516   5.714 -0.0787 -0.2777 -0.5111
   55MOL   O35037178   7.192   7.510   5.835  0.3793  0.0401  0.1175
   55MOL   C35137179   7.146   7.632   5.632 -0.1330 -0.1114 -0.2002
   55MOL   C35237180   7.008   7.661   5.645  0.2746 -0.2647 -0.0657
   55MOL   C35337181   6.948   7.750   5.555 -0.6113  0.3181  0.0169
   55MOL   C35437182   7.032   7.818   5.458  0.2993 -0.2797 -0.1921
   55MOL   O35537183   6.967   7.911   5.385 -0.6441  0.0502  0.4140
   55MOL   C35637184   6.933   8.037   5.435  0.4979 -0.0148  0.5765
   55MOL   C35737185   6.799   8.075   5.423  0.4579 -0.5353 -0.1311
   55MOL   C35837186   6.757   8.200   5.457 -0.0592  0.6632  0.0071
   55MOL   C35937187   6.853   8.286   5.514  0.2193  0.0319 -0.7851
   55MOL   C36037188   6.991   8.246   5.538  1.3004 -0.3934  0.5959
   55MOL   C36137189   7.029   8.126   5.485 -0.5041 -0.0952  0.3987
   55MOL   C36237190   7.170   7.795   5.455  0.3045 -0.6052 -0.6670
   55MOL   C36337191   7.224   7.697   5.538  0.3233  0.6854 -0.0930
   55MOL   H36437192   7.409   7.342   5.774 -0.7632  0.0647 -0.4418
   55MOL   H36537193   7.511   7.168   5.614 -1.3922 -2.5753 -1.9510
   55MOL   H36637194   7.220   7.278   5.326  0.7369 -0.6670 -0.1876
   55MOL   H36737195   7.114   7.434   5.484 -2.4834 -1.6471  1.8840
   55MOL   H36837196   6.937   7.610   5.708 -2.1625  1.1874 -1.5776
   55MOL   H36937197   6.843   7.774   5.551 -0.3661  1.0686 -2.8795
   55MOL   H37037198   6.728   8.001   5.388  0.1052 -0.5020  0.5072
   55MOL   H37137199   6.656   8.235   5.438 -0.9861 -0.3044  2.9000
   55MOL   H37237200   7.065   0.003   5.574  2.3352 -0.4282 -1.4023
   55MOL   H37337201   7.134   8.101   5.489 -0.5265 -0.0674  1.3396
   55MOL   H37437202   7.228   7.846   5.380  1.6322 -1.6252 -0.3573
   55MOL   H37537203   7.328   7.672   5.523  0.2481 -0.3730  1.0492
   55MOL   C37637204   6.995   0.411   5.419 -0.5324 -0.1563 -0.2172
   55MOL   C37737205   6.936   0.314   5.501 -0.5357 -0.5498 -0.3500
   55MOL   C37837206   6.880   0.195   5.448  0.4271  0.2527 -0.7181
   55MOL   O37937207   6.819   0.108   5.536  0.3359 -0.1191 -0.3474
   55MOL   C38037208   6.884   0.169   5.308  0.1824  0.2672  0.3167
   55MOL   C38137209   6.949   0.265   5.229  0.4527  0.0112 -0.8125
   55MOL   C38237210   7.001   0.385   5.280  0.1326 -0.3476  0.5903
   55MOL   C38337211   7.061   0.478   5.176  0.2485  0.5101  0.1752
   55MOL   O38437212   7.005   0.580   5.157 -0.6719 -0.0987  0.0556
   55MOL   C38537213   7.187   0.438   5.103 -0.1747  0.0805  0.1067
   55MOL   C38637214   7.228   0.511   4.983  0.9257  0.6300 -0.1570
   55MOL   C38737215   7.344   0.472   4.919 -0.2670 -0.0333 -0.1447
   55MOL   C38837216   7.415   0.355   4.964  0.2730 -0.3094  0.5379
   55MOL   O38937217   7.525   0.319   4.898 -0.0517 -0.1549  0.1505
   55MOL   C39037218   7.545   0.184   4.874  0.8804  0.1037  0.2540
   55MOL   C39137219   7.436   0.090   4.843  0.4532  0.3276  0.0738
   55MOL   C39237220   7.465   8.270   4.814  0.1287  0.2234 -0.8996
   55MOL   C39337221   7.598   8.223   4.827  0.5708  0.6091  0.0407
   55MOL   C39437222   7.699   8.307   4.870  0.1551 -0.3919  0.2457
   55MOL   C39537223   7.672   0.130   4.889 -0.3330  1.1600 -0.0015
   55MOL   C39637224   7.366   0.273   5.074 -0.2910 -0.6644  0.1650
   55MOL   C39737225   7.258   0.324   5.151 -0.9214 -0.7439  0.1686
   55MOL   H39837226   7.036   0.509   5.438  0.4654 -0.7779  0.9230
   55MOL   H39937227   6.927   0.335   5.606  4.4948  1.4830 -0.1804
   55MOL   H40037228   6.829   0.088   5.262  0.6452  0.6060 -0.8498
   55MOL   H40137229   6.956   0.251   5.122 -1.2874 -0.1038 -0.9277
   55MOL   H40237230   7.185   0.602   4.945  3.2272  1.6609 -0.3863
   55MOL   H40337231   7.374   0.522   4.828 -0.7437 -0.0252 -0.3000
   55MOL   H40437232   7.335   0.127   4.832  0.8333  0.9532 -1.5033
   55MOL   H40537233   7.389   8.199   4.785  0.1174 -0.5736  1.0124
   55MOL   H40637234   7.802   8.274   4.879  0.0022 -1.5429 -1.7964
   55MOL   H40737235   7.748   0.195   4.931 -0.2644 -0.9858  3.4004
   55MOL   H40837236   7.423   0.199   5.127  0.9837  1.5885  2.0306
   55MOL   H40937237   7.222   0.272   5.238 -2.6235  2.3197  1.3894
   55MOL   C41037238   7.857   7.913   4.990 -0.5919  0.5371  0.4113
   55MOL   C41137239   7.765   8.015   4.960 -0.1564 -0.3128 -0.3564
   55MOL   C41237240   7.720   8.020   4.827  0.5392 -0.0845  0.2478
   55MOL   O41337241   7.622   8.097   4.776 -0.0101  0.2365  0.1373
   55MOL   C41437242   7.779   7.943   4.729 -0.6341  0.9652  0.4687
   55MOL   C41537243   7.873   7.843   4.760  0.1568  0.4951  0.2407
   55MOL   C41637244   7.907   7.822   4.895  0.2226  0.3581  0.4297
   55MOL   C41737245   7.997   7.712   4.942  0.0015  0.7277  0.2577
   55MOL   O41837246   8.021   7.692   5.059  0.4447 -0.3747  0.0293
   55MOL   C41937247   8.046   7.611   4.839  0.5953 -0.4302  0.5109
   55MOL   C42037248   8.002   7.477   4.844 -0.5499 -0.2007  0.5745
   55MOL   C42137249   8.043   7.385   4.748  0.0489  0.3034  0.4375
   55MOL   C42237250   8.136   7.420   4.647 -0.2851  0.5843  0.3769
   55MOL   O42337251   8.191   7.333   4.556  0.6580  0.5065  0.9055
   55MOL   C42437252   8.228   7.210   4.597  0.5267  0.0516  0.0862
   55MOL   C42537253   8.172   7.097   4.534  0.7237 -0.0182  0.0035
   55MOL   C42637254   8.214   6.971   4.577 -0.0824  0.4350  0.2077
   55MOL   C42737255   8.304   6.950   4.687  0.1496 -0.6548  0.1621
   55MOL   C42837256   0.051   7.066   4.742 -0.0661 -0.6372  0.5433
   55MOL   C42937257   0.008   7.193   4.706  0.3128  0.1158 -0.0692
   55MOL   C43037258   8.179   7.552   4.648 -0.1869  0.1005  0.1368
   55MOL   C43137259   8.133   7.647   4.742  0.6672  0.4477 -0.6429
   55MOL   H43237260   7.877   7.903   5.096 -0.6920  2.5159  0.6264
   55MOL   H43337261   7.740   8.087   5.036  4.5555  1.8590 -0.6560
   55MOL   H43437262   7.754   7.946   4.624  1.0031  0.7082  0.0685
   55MOL   H43537263   7.920   7.779   4.687 -2.5402  0.8844 -1.8955
   55MOL   H43637264   7.931   7.447   4.920 -0.8447 -1.9267 -0.3537
   55MOL   H43737265   8.007   7.283   4.755 -1.9743  0.8753 -1.3550
   55MOL   H43837266   8.114   7.108   4.444  1.9656 -3.7552 -1.3018
   55MOL   H43937267   8.180   6.886   4.520  0.6842  0.2159  0.0720
   55MOL   H44037268   0.126   7.052   4.818  0.6819  0.9822  0.1170
   55MOL   H44137269   0.038   7.287   4.750  1.5997  0.1233 -0.9133
   55MOL   H44237270   8.248   7.580   4.570 -0.8677 -0.2284 -0.5829
   55MOL   H44337271   8.166   7.750   4.750  2.8869 -0.4394  2.6473
   55MOL   C44437272   8.101   6.549   4.716 -0.4603 -0.2228 -0.3566
   55MOL   C44537273   8.206   6.631   4.678  0.6861  0.6396  0.4787
   55MOL   C44637274   8.234   6.739   4.762  0.9414 -0.5138 -0.5106
   55MOL   O44737275   0.025   6.822   4.732 -0.2824  0.0127 -0.6724
   55MOL   C44837276   8.162   6.768   4.877  0.4990  0.1513  0.1489
   55MOL   C44937277   8.047   6.694   4.908 -0.4603 -0.3755 -0.1543
   55MOL   C45037278   8.015   6.586   4.821 -0.3971  0.1419  0.1472
   55MOL   C45137279   7.894   6.499   4.857  0.7529 -0.5928  0.0810
   55MOL   O45237280   7.791   6.559   4.879 -0.5832 -0.1298 -0.4705
   55MOL   C45337281   7.900   6.346   4.851  0.3313 -0.6093  0.0413
   55MOL   C45437282   8.019   6.273   4.870  0.6632 -0.5040 -0.2256
   55MOL   C45537283   8.021   6.131   4.861 -0.2153  0.0472 -0.3074
   55MOL   C45637284   7.902   6.065   4.824  0.4106 -0.4558 -0.4303
   55MOL   O45737285   7.905   5.927   4.817  0.2952  0.2805  0.4330
   55MOL   C45837286   7.792   5.855   4.832 -0.0580 -0.2352  0.4624
   55MOL   C45937287   7.705   5.828   4.727  0.0302 -0.5078  0.1673
   55MOL   C46037288   7.590   5.756   4.755 -0.0365  0.1246 -0.0348
   55MOL   C46137289   7.558   5.704   4.882  0.2040 -0.0345  1.0132
   55MOL   C46237290   7.648   5.732   4.986 -0.2168 -0.1816  0.7808
   55MOL   C46337291   7.766   5.807   4.964  0.3890  0.2312 -0.4098
   55MOL   C46437292   7.786   6.138   4.804  0.2629 -0.2568  0.1045
   55MOL   C46537293   7.778   6.272   4.825 -0.0515 -0.3260  0.0434
   55MOL   H46637294   8.082   6.460   4.658  0.1220 -0.5824  0.0042
   55MOL   H46737295   8.272   6.598   4.600  0.0574  0.7062 -0.0817
   55MOL   H46837296   8.192   6.846   4.946  1.9105  1.1439 -1.5541
   55MOL   H46937297   7.995   6.721   4.999 -1.6868  0.0311 -0.9613
   55MOL   H47037298   8.109   6.324   4.900 -0.7093  1.7596  0.1493
   55MOL   H47137299   8.111   6.079   4.889  0.6664  2.3631  1.2825
   55MOL   H47237300   7.722   5.877   4.633 -0.0510  1.0823  0.9605
   55MOL   H47337301   7.522   5.738   4.673 -0.6802  2.1457  0.0244
   55MOL   H47437302   7.617   5.693   5.082 -2.3959 -1.4997 -0.4050
   55MOL   H47537303   7.831   5.836   5.045  1.4816 -0.7171 -0.9335
   55MOL   H47637304   7.697   6.084   4.774 -0.1501  0.4444  0.0555
   55MOL   H47737305   7.689   6.331   4.809 -0.3859 -0.9701 -0.4475
   55MOL   C47837306   7.316   5.293   4.808  0.5349  0.0357  0.4186
   55MOL   C47937307   7.325   5.425   4.854 -0.4654  0.7662 -0.3748
   55MOL   C48037308   7.449   5.490   4.859 -0.1168 -0.4642  0.1846
   55MOL   O48137309   7.447   5.624   4.895 -0.0913 -0.4140  0.3818
   55MOL   C48237310   7.566   5.417   4.827  0.6564 -0.5367 -0.3606
   55MOL   C48337311   7.557   5.280   4.795 -0.1746  0.2454 -0.5094
   55MOL   C48437312   7.430   5.220   4.779 -0.0154  0.8812  0.1328
   55MOL   C48537313   7.421   5.081   4.726 -0.2196  0.9930 -0.4490
   55MOL   O48637314   7.318   5.016   4.709  0.1591  0.4412 -0.3107
   55MOL   C48737315   7.544   5.007   4.686 -0.1840  0.4566 -0.0158
   55MOL   C48837316   7.585   4.885   4.743  0.4116  0.4382 -0.1385
   55MOL   C48937317   7.701   4.817   4.694  0.4301  0.4737  0.0344
   55MOL   C49037318   7.777   4.875   4.587 -0.0942  0.4132  0.6316
   55MOL   O49137319   7.887   4.815   4.537  0.1489  0.4536  0.0464
   55MOL   C49237320   7.883   4.678   4.508 -0.3866  0.5144  0.1231
   55MOL   C49337321   7.802   4.628   4.397 -0.8113 -0.1939  0.1466
   55MOL   C49437322   7.793   4.492   4.371  0.0115  0.1197 -0.0576
   55MOL   C49537323   7.853   4.403   4.459 -0.1004 -0.4893 -0.3526
   55MOL   C49637324   7.925   4.444   4.567  0.6839 -0.4270 -0.0374
   55MOL   C49737325   7.951   4.584   4.584 -0.3530 -0.4662  0.1274
   55MOL   C49837326   7.736   4.997   4.527  0.0709  0.3477  0.4183
   55MOL   C49937327   7.617   5.056   4.573  1.0670  0.5028 -0.0416
   55MOL   H50037328   7.225   5.236   4.799 -0.7569  1.8230  1.8301
   55MOL   H50137329   7.241   5.482   4.889  1.1282  2.6686  0.4380
   55MOL   H50237330   7.664   5.462   4.833 -0.0491  1.0298 -0.4861
   55MOL   H50337331   7.648   5.224   4.781  0.6320  1.0953  1.1368
   55MOL   H50437332   7.528   4.841   4.823  1.4680  2.3142  1.7031
   55MOL   H50537333   7.737   4.726   4.740 -1.3196  1.3301  3.2386
   55MOL   H50637334   7.735   4.693   4.344 -1.9081 -1.5465 -0.1523
   55MOL   H50737335   7.741   4.453   4.285 -1.4421 -0.7626  1.1873
   55MOL   H50837336   7.948   4.367   4.639  0.1482  2.4219  3.3084
   55MOL   H50937337   8.006   4.615   4.671 -0.2449  1.9203 -0.7515
   55MOL   H51037338   7.796   5.033   4.445  2.8672 -0.4360  2.0589
   55MOL   H51137339   7.589   5.151   4.531  1.7191  0.9297  0.4697
   55MOL   C51237340   7.598   4.063   4.618 -0.5213  0.2149 -0.1714
   55MOL   C51337341   7.716   4.122   4.577 -0.2245 -0.3739  0.1004
   55MOL   C51437342   7.721   4.208   4.465  0.2824  1.1485  0.4445
   55MOL   O51537343   7.840   4.269   4.434 -0.2725  0.0728  0.2970
   55MOL   C51637344   7.606   4.212   4.382 -0.0386  0.3358  0.3919
   55MOL   C51737345   7.491   4.137   4.415  0.0095  0.4087  0.8980
   55MOL   C51837346   7.483   4.066   4.535 -0.4053 -0.5678  0.2098
   55MOL   C51937347   7.351   4.010   4.578  0.1181 -0.1145  1.1888
   55MOL   O52037348   7.267   3.986   4.490  0.1217 -0.1483 -0.6686
   55MOL   C52137349   7.327   3.980   4.723  0.5997  0.2540  0.5955
   55MOL   C52237350   7.269   3.863   4.765  0.1772  0.3623 -0.1596
   55MOL   C52337351   7.252   3.825   4.905 -0.0177  0.4017 -0.1083
   55MOL   C52437352   7.294   3.915   5.004 -0.0781  0.2164 -0.1043
   55MOL   O52537353   7.298   3.873   5.132  0.2209 -0.3072  0.7212
   55MOL   C52637354   7.177   3.864   5.198  0.1973 -0.8143  0.1229
   55MOL   C52737355   7.118   3.737   5.224  0.3656 -0.0847 -0.0651
   55MOL   C52837356   7.003   3.719   5.306  0.0256 -0.0447 -0.1913
   55MOL   C52937357   6.944   3.837   5.357 -0.0874  1.0550  0.4832
   55MOL   C53037358   7.003   3.962   5.342 -0.0949 -0.0607 -0.0997
   55MOL   C53137359   7.111   3.977   5.251  0.1457 -0.3762  0.0906
   55MOL   C53237360   7.352   4.038   4.963 -0.0171  0.3450  0.0105
   55MOL   C53337361   7.368   4.067   4.827  0.2319 -0.5276  0.1146
   55MOL   H53437362   7.608   4.017   4.715 -1.1784  1.9960  0.7802
   55MOL   H53537363   7.805   4.100   4.634  2.0741 -1.1989 -3.6560
   55MOL   H53637364   7.603   4.266   4.288  1.0429  0.4155  0.3975
   55MOL   H53737365   7.406   4.150   4.350  1.7643  0.2009 -1.5236
   55MOL   H53837366   7.226   3.793   4.694 -2.9881  1.9583  0.0793
   55MOL   H53937367   7.214   3.731   4.942 -0.8826  0.5008 -0.7465
   55MOL   H54037368   7.158   3.656   5.165  0.3978 -0.2661  0.2038
   55MOL   H54137369   6.961   3.620   5.312 -0.1070 -0.0296 -0.8563
   55MOL   H54237370   6.965   4.045   5.399  0.8066 -1.1174  2.1107
   55MOL   H54337371   7.154   4.071   5.219 -2.9318  1.1148  0.2159
   55MOL   H54437372   7.375   4.112   5.039 -0.7533  0.3637  0.2191
   55MOL   H54537373   7.404   4.163   4.792 -0.5261  0.0799  0.9826
   55MOL   C54637374   6.489   3.777   5.289 -0.0800 -0.4217 -0.1583
   55MOL   C54737375   6.618   3.835   5.309 -0.0770 -0.7477  0.1751
   55MOL   C54837376   6.712   3.765   5.390 -0.3488 -0.1739 -0.3828
   55MOL   O54937377   6.827   3.829   5.428  0.1302  0.6074  0.5032
   55MOL   C55037378   6.678   3.640   5.444  0.4472  0.3820  0.2361
   55MOL   C55137379   6.551   3.585   5.420 -0.1874 -0.3075  0.1081
   55MOL   C55237380   6.460   3.652   5.337  0.4551 -0.3016 -0.0249
   55MOL   C55337381   6.324   3.590   5.314  0.2469  0.3579 -0.6644
   55MOL   O55437382   6.248   3.562   5.403 -0.0268 -0.6258  0.1956
   55MOL   C55537383   6.277   3.568   5.173 -0.5767 -0.1913 -0.0005
   55MOL   C55637384   6.148   3.517   5.143 -0.1602 -0.3433 -1.0812
   55MOL   C55737385   6.112   3.487   5.007 -0.9860  0.4659  0.0205
   55MOL   C55837386   6.211   3.504   4.907 -0.3143  0.1405 -0.2737
   55MOL   O55937387   6.181   3.460   4.783  0.6086  0.0503  0.5742
   55MOL   C56037388   6.157   3.559   4.688 -0.2668 -0.0341  0.3517
   55MOL   C56137389   6.254   3.589   4.587 -0.2255 -0.2368  0.2861
   55MOL   C56237390   6.233   3.700   4.504  0.0109  0.6289 -0.1737
   55MOL   C56337391   6.120   3.777   4.518 -0.3984 -0.7158 -0.0489
   55MOL   C56437392   6.021   3.744   4.620  0.5150 -0.2716 -0.5102
   55MOL   C56537393   6.038   3.631   4.702  0.7286 -0.0032 -0.9805
   55MOL   C56637394   6.331   3.568   4.934  0.0539  0.0601 -0.2611
   55MOL   C56737395   6.359   3.604   5.066  0.0980  0.1912 -0.2789
   55MOL   H56837396   6.416   3.829   5.228 -0.2406  0.5712  0.8698
   55MOL   H56937397   6.652   3.922   5.255  1.3435 -2.5396 -1.9258
   55MOL   H57037398   6.747   3.584   5.506  1.3744  0.1332 -0.9913
   55MOL   H57137399   6.522   3.491   5.464 -1.9493  0.4045  0.5240
   55MOL   H57237400   6.082   3.498   5.226  0.2365  4.0819  0.3562
   55MOL   H57337401   6.025   3.430   4.976  0.1905 -0.8895 -0.8671
   55MOL   H57437402   6.348   3.539   4.568  0.6103  1.0793  0.8628
   55MOL   H57537403   6.313   3.718   4.434 -0.2930 -1.2793 -1.0401
   55MOL   H57637404   5.931   3.802   4.625  1.3241  0.9766 -0.0449
   55MOL   H57737405   5.966   3.592   4.773  2.6271 -3.7465 -0.9651
   55MOL   H57837406   6.406   3.584   4.858  0.4863 -2.4930 -0.4295
   55MOL   H57937407   6.460   3.639   5.081  0.1101 -0.3977  1.0869
   55MOL   C58037408   6.298   4.209   4.427  0.5189  0.4238  0.2782
   55MOL   C58137409   6.253   4.077   4.404 -0.6660 -0.1500  0.1311
   55MOL   C58237410   6.163   4.017   4.492 -0.2943  0.1540 -0.2454
   55MOL   O58337411   6.103   3.896   4.444  0.4877  0.0657 -0.1764
   55MOL   C58437412   6.129   4.083   4.610  0.0803 -0.6826 -0.8288
   55MOL   C58537413   6.174   4.218   4.635 -0.2425  0.2252 -0.0125
   55MOL   C58637414   6.254   4.283   4.542 -0.9418  0.2775 -0.3043
   55MOL   C58737415   6.290   4.429   4.558 -0.1098  0.2882 -0.8592
   55MOL   O58837416   6.407   4.465   4.555 -0.0250 -0.3473 -0.2471
   55MOL   C58937417   6.173   4.517   4.581 -0.5025 -0.5761 -0.6633
   55MOL   C59037418   6.186   4.624   4.667 -0.0975  0.0985 -0.4166
   55MOL   C59137419   6.083   4.717   4.679 -0.3768  0.2266 -0.7031
   55MOL   C59237420   5.962   4.697   4.604  0.0468  0.2849 -0.1036
   55MOL   O59337421   5.855   4.787   4.608  0.8325  0.8813 -0.1318
   55MOL   C59437422   5.784   4.786   4.730  0.6904  0.5093  0.2988
   55MOL   C59537423   5.811   4.877   4.838  0.1430  0.4917 -0.1765
   55MOL   C59637424   5.729   4.879   4.951  0.4824  0.0465  0.0056
   55MOL   C59737425   5.631   4.780   4.965 -0.6835  0.5968 -0.2087
   55MOL   C59837426   5.609   4.681   4.865  0.2383  0.1291 -0.0574
   55MOL   C59937427   5.681   4.692   4.745  0.7895  0.1228  0.2525
   55MOL   C60037428   5.946   4.580   4.526 -0.4248  0.2135 -0.3462
   55MOL   C60137429   6.051   4.489   4.513  0.4334  0.1343 -0.9431
   55MOL   H60237430   6.365   4.247   4.352 -0.3357 -1.6344 -1.5892
   55MOL   H60337431   6.288   4.019   4.320 -0.3749 -0.0137  0.1576
   55MOL   H60437432   6.051   4.047   4.676 -0.5340  0.6125 -0.8320
   55MOL   H60537433   6.148   4.265   4.728 -0.0101 -1.3674  0.8696
   55MOL   H60637434   6.282   4.651   4.710 -0.0136  1.4484 -1.4366
   55MOL   H60737435   6.091   4.801   4.746 -0.6612 -0.1457 -0.1978
   55MOL   H60837436   5.894   4.945   4.826  0.1263  0.1955 -2.1077
   55MOL   H60937437   5.734   4.949   5.033  0.8005  0.5594 -0.4482
   55MOL   H61037438   5.534   4.604   4.879 -1.4884  2.1031  1.8675
   55MOL   H61137439   5.671   4.616   4.669 -1.0225  1.0326 -0.4540
   55MOL   H61237440   5.848   4.561   4.487 -0.4486 -0.0607 -0.1551
   55MOL   H61337441   6.034   4.402   4.451  0.8113 -0.8343  0.3001
   55MOL   C61437442   5.774   4.589   5.330 -0.3611  0.4951 -0.5690
   55MOL   C61537443   5.731   4.671   5.224 -0.3034  0.2278  0.2766
   55MOL   C61637444   5.598   4.671   5.172 -0.0238  0.7435 -0.1173
   55MOL   O61737445   5.556   4.765   5.077 -0.2931  0.2023 -0.2804
   55MOL   C61837446   5.510   4.573   5.227  1.3156  0.9380 -0.0287
   55MOL   C61937447   5.548   4.478   5.321  0.5208 -0.6098 -0.0137
   55MOL   C62037448   5.680   4.491   5.375  0.4333  0.3278 -0.4405
   55MOL   C62137449   5.731   4.386   5.473 -0.0537 -0.8282  0.1971
   55MOL   O62237450   5.839   4.333   5.448  0.0299 -0.0997 -0.1437
   55MOL   C62337451   5.656   4.359   5.604  0.3165 -0.1825  0.3144
   55MOL   C62437452   5.551   4.444   5.644 -0.4029 -0.7354  0.1493
   55MOL   C62537453   5.489   4.429   5.770 -0.4367 -0.6530  0.5061
   55MOL   C62637454   5.542   4.330   5.862  0.3245  0.1893 -0.5070
   55MOL   O62737455   5.472   4.318   5.979 -0.6853 -0.3628 -0.1068
   55MOL   C62837456   5.503   4.401   6.082  0.2510 -0.3170 -0.0230
   55MOL   C62937457   5.429   4.517   6.107  0.3015 -0.6371  0.4855
   55MOL   C63037458   5.463   4.611   6.206  0.1886 -1.1613  1.0081
   55MOL   C63137459   5.581   4.581   6.281 -0.2366 -0.0932  0.3396
   55MOL   C63237460   5.650   4.462   6.260  0.0796 -0.4016 -0.1369
   55MOL   C63337461   5.611   4.371   6.163 -0.1717 -0.2629 -0.1243
   55MOL   C63437462   5.645   4.247   5.819 -0.2241  0.0779 -0.8231
   55MOL   C63537463   5.703   4.263   5.693 -0.3769 -0.0112 -0.6470
   55MOL   H63637464   5.872   4.599   5.374 -0.2095 -0.8674 -0.5710
   55MOL   H63737465   5.800   4.745   5.185  0.6595  0.5570  2.5035
   55MOL   H63837466   5.412   4.561   5.182  1.7963  1.8982 -1.3805
   55MOL   H63937467   5.489   4.396   5.357  0.7342 -0.3324  0.9917
   55MOL   H64037468   5.509   4.517   5.576 -2.1057 -0.6791  1.2320
   55MOL   H64137469   5.403   4.486   5.802 -0.3325 -1.0980  1.5772
   55MOL   H64237470   5.363   4.558   6.032  1.3079 -0.9436 -0.5878
   55MOL   H64337471   5.414   4.707   6.220 -0.2737 -1.3251  0.5559
   55MOL   H64437472   5.742   4.447   6.315  0.6666  0.2334 -0.9183
   55MOL   H64537473   5.668   4.279   6.148  1.4811  0.7059  0.0694
   55MOL   H64637474   5.670   4.165   5.885  1.7091  1.1488 -0.1775
   55MOL   H64737475   5.784   4.196   5.671 -1.9401 -1.9486 -0.5958
   55MOL   C64837476   5.941   4.844   6.209 -0.7363 -0.3994  0.1635
   55MOL   C64937477   5.808   4.795   6.221  0.0424 -0.3513 -0.1323
   55MOL   C65037478   5.765   4.725   6.337  0.4230 -0.0205 -1.1105
   55MOL   O65137479   5.634   4.683   6.363 -0.1445 -0.4986 -0.1737
   55MOL   C65237480   5.862   4.693   6.436 -0.2142  0.1525 -0.0314
   55MOL   C65337481   5.997   4.743   6.423  0.2877 -0.1783  0.1304
   55MOL   C65437482   6.038   4.818   6.307 -0.4630  0.8123 -0.1979
   55MOL   C65537483   6.177   4.865   6.288  0.0678 -0.3468  0.5117
   55MOL   O65637484   6.229   4.920   6.382 -0.2908 -0.1513 -0.2346
   55MOL   C65737485   6.242   4.853   6.159  0.6567  0.3524 -0.2096
   55MOL   C65837486   6.184   4.774   6.052  0.0528 -0.3394  0.1181
   55MOL   C65937487   6.247   4.757   5.928  0.5265  0.5075 -0.8609
   55MOL   C66037488   6.370   4.815   5.907 -1.2847  0.5043 -0.2796
   55MOL   O66137489   6.437   4.807   5.786  0.1913  0.6932  0.1988
   55MOL   C66237490   6.427   4.692   5.709 -0.8193 -0.4353 -0.4276
   55MOL   C66337491   6.435   4.561   5.760  0.3733 -0.0552  0.4119
   55MOL   C66437492   6.412   4.448   5.678  0.5762  0.0478 -0.3221
   55MOL   C66537493   6.405   4.470   5.538 -0.0739  0.2614 -1.2635
   55MOL   C66637494   6.419   4.600   5.487 -0.1843 -0.4402 -0.3758
   55MOL   C66737495   6.423   4.711   5.571 -0.2244  0.7602  0.4429
   55MOL   C66837496   6.434   4.894   6.008 -0.0708 -0.1311  0.2930
   55MOL   C66937497   6.375   4.901   6.137 -0.0503  0.4192 -0.5302
   55MOL   H67037498   5.970   4.897   6.120  0.1087 -1.5596 -0.2614
   55MOL   H67137499   5.736   4.825   6.146  0.5834  1.3875  0.0291
   55MOL   H67237500   5.832   4.632   6.520 -0.3843 -0.3266 -0.4386
   55MOL   H67337501   6.071   4.718   6.497  1.1398  1.4771 -0.1545
   55MOL   H67437502   6.083   4.736   6.053  0.1581 -0.6114  1.4144
   55MOL   H67537503   6.203   4.694   5.853 -1.5133  0.9389 -0.0734
   55MOL   H67637504   6.444   4.546   5.866  2.6616  1.8514  0.5238
   55MOL   H67737505   6.412   4.352   5.728  0.0543 -0.2599 -0.9029
   55MOL   H67837506   6.417   4.629   5.383 -0.3631  0.0659 -0.2312
   55MOL   H67937507   6.418   4.810   5.527 -0.3887  0.3837 -0.4019
   55MOL   H68037508   6.530   4.936   5.986  0.7843 -1.4333  1.4553
   55MOL   H68137509   6.427   4.949   6.218  1.1764 -3.8295  1.3403
   55MOL   H68237510   6.408   4.385   5.471  0.4891  0.7669 -1.8850
   56MOL     C137511   6.331   5.871   2.929  0.4315 -0.4241 -1.0652
   56MOL     C237512   6.376   5.927   3.047  0.2928 -0.1613 -0.3084
   56MOL     C337513   6.301   5.908   3.165  0.3757  0.3323 -0.0350
   56MOL     O437514   6.349   5.959   3.284  0.1435 -0.1355  0.5382
   56MOL     C537515   6.175   5.854   3.161  0.4686 -0.3620  0.7556
   56MOL     C637516   6.124   5.808   3.035 -0.6322  0.1587 -0.0274
   56MOL     C737517   6.209   5.806   2.923 -0.5280  0.1081  0.0591
   56MOL     C837518   6.172   5.756   2.788  0.4059 -0.3759  0.4843
   56MOL     O937519   6.206   5.817   2.689  0.1069  0.3213  0.1631
   56MOL    C1037520   6.101   5.634   2.787 -0.7480  0.3951 -0.4409
   56MOL    C1137521   5.997   5.605   2.699  0.1067  0.3556 -0.4692
   56MOL    C1237522   5.927   5.480   2.697 -1.1368  0.2372  0.3463
   56MOL    C1337523   5.969   5.384   2.792 -0.7040 -0.6098 -0.1873
   56MOL    O1437524   5.909   5.259   2.802 -0.1151 -0.2309  0.2499
   56MOL    C1537525   5.865   5.223   2.934  0.4267 -0.5817  0.2748
   56MOL    C1637526   5.741   5.269   2.980  0.2417 -0.2151  0.2242
   56MOL    C1737527   5.692   5.233   3.109 -0.1880 -0.7448 -0.1153
   56MOL    C1837528   5.764   5.149   3.192 -0.4523  0.5785 -0.3714
   56MOL    C1937529   5.883   5.094   3.142 -0.6306  0.1570  0.0627
   56MOL    C2037530   5.934   5.131   3.013  0.7501  0.0387  0.3072
   56MOL    C2137531   6.077   5.413   2.883 -0.3401  0.1605 -0.8585
   56MOL    C2237532   6.136   5.533   2.884  0.3512  0.0029 -0.5939
   56MOL    H2337533   6.388   5.870   2.837  1.5027 -1.1047 -0.4074
   56MOL    H2437534   6.475   5.969   3.044 -0.6846  2.2362 -0.1213
   56MOL    H2537535   6.111   5.857   3.248  2.8795  1.3530  2.5521
   56MOL    H2637536   6.023   5.768   3.031 -0.7591  0.5114 -0.4083
   56MOL    H2737537   5.973   5.680   2.625 -0.0726  1.2546  0.4867
   56MOL    H2837538   5.844   5.454   2.634 -0.6328  0.3425 -0.3726
   56MOL    H2937539   5.694   5.326   2.902  0.9688  1.4618  0.9959
   56MOL    H3037540   5.599   5.275   3.143  0.6826 -0.1096  1.5069
   56MOL    H3137541   5.939   5.025   3.204 -1.4532 -1.7064 -1.2135
   56MOL    H3237542   6.022   5.077   2.981  0.2522 -0.1971 -0.6888
   56MOL    H3337543   6.108   5.347   2.962 -1.7982  2.0078  1.3398
   56MOL    H3437544   6.213   5.549   2.958 -1.2263 -0.0535  1.0890
   56MOL    H3537545   6.435   5.990   3.259 -0.0041 -0.3659 -0.2625
   56MOL    C3637546   5.838   5.356   3.574 -0.6667  0.2181  0.3819
   56MOL    C3737547   5.843   5.251   3.480 -0.6523  0.6084 -0.7531
   56MOL    C3837548   5.721   5.212   3.411  0.4989  0.2186  0.4120
   56MOL    O3937549   5.722   5.113   3.319 -0.0478  0.5748  0.3249
   56MOL    C4037550   5.600   5.269   3.453  0.5464  0.2134 -0.8004
   56MOL    C4137551   5.594   5.363   3.554 -0.0097 -0.0779  0.4143
   56MOL    C4237552   5.710   5.413   3.607  0.2494  0.2723  0.4401
   56MOL    C4337553   5.710   5.529   3.696  0.3616 -0.0612  0.2601
   56MOL    O4437554   5.813   5.578   3.732 -0.4504 -0.3020 -0.4095
   56MOL    C4537555   5.576   5.595   3.723  0.0406 -0.0955  0.0782
   56MOL    C4637556   5.569   5.731   3.700  0.7037 -0.4073  0.1266
   56MOL    C4737557   5.447   5.802   3.734 -0.7926 -0.5158  0.4175
   56MOL    C4837558   5.344   5.744   3.799 -0.1186 -0.0237 -0.1589
   56MOL    O4937559   5.238   5.828   3.826  0.6338  0.1331 -0.1129
   56MOL    C5037560   5.136   5.776   3.905  0.5105  0.1412 -0.0959
   56MOL    C5137561   5.140   5.809   4.045  0.4139  0.6862  0.9994
   56MOL    C5237562   5.044   5.759   4.132  0.1913 -0.1402  0.2695
   56MOL    C5337563   4.935   5.680   4.080 -0.3789  0.1307 -0.2409
   56MOL    C5437564   4.938   5.652   3.937 -0.4901 -0.1741  0.4879
   56MOL    C5537565   5.037   5.701   3.852  0.9966  0.5101 -1.1704
   56MOL    C5637566   5.359   5.608   3.840 -0.5886  0.6271  0.0960
   56MOL    C5737567   5.474   5.531   3.804 -0.3186 -0.1938  0.1143
   56MOL    H5837568   5.919   5.399   3.630  0.0683  0.7292 -1.0400
   56MOL    H5937569   5.936   5.197   3.472  1.2019  3.5942  0.0758
   56MOL    H6037570   5.508   5.233   3.408  0.1772  1.3124 -0.9397
   56MOL    H6137571   5.497   5.405   3.571 -1.1968 -2.4816 -0.2160
   56MOL    H6237572   5.647   5.783   3.647  1.2975 -1.3657  0.0612
   56MOL    H6337573   5.449   5.905   3.702  1.5488 -0.9238 -0.8510
   56MOL    H6437574   5.215   5.873   4.089 -0.8929  2.0938  1.2288
   56MOL    H6537575   5.053   5.782   4.237  1.3380  1.1930 -0.1045
   56MOL    H6637576   4.872   5.583   3.886  1.9642 -1.2596 -1.2880
   56MOL    H6737577   5.026   5.688   3.746  2.1913  0.9353 -1.3507
   56MOL    H6837578   5.273   5.566   3.889 -2.1264  2.2858 -1.1048
   56MOL    H6937579   5.488   5.430   3.840  1.5262 -0.2517 -0.6725
   56MOL    C7037580   4.838   5.431   4.489 -0.3854  0.4715 -0.6964
   56MOL    C7137581   4.793   5.505   4.375 -1.3045 -0.3911 -0.3945
   56MOL    C7237582   4.887   5.545   4.274 -0.3238  0.6877 -0.1133
   56MOL    O7337583   4.844   5.617   4.165  0.1549 -0.1737  0.4145
   56MOL    C7437584   5.024   5.510   4.298  0.5013  0.2549 -0.3519
   56MOL    C7537585   5.061   5.436   4.412  0.9397  0.2085 -0.0643
   56MOL    C7637586   4.972   5.394   4.505 -0.5833 -0.5053  0.1826
   56MOL    C7737587   5.034   5.310   4.616  0.1274  0.4513  0.3221
   56MOL    O7837588   5.158   5.307   4.634  0.0433 -0.3033  0.3923
   56MOL    C7937589   4.947   5.237   4.716  0.0808  0.4252 -0.5708
   56MOL    C8037590   4.992   5.222   4.845 -0.2133 -0.2374  0.3202
   56MOL    C8137591   4.911   5.161   4.941  0.0195 -0.2739  0.1332
   56MOL    C8237592   4.779   5.109   4.911 -0.8931 -0.1859  0.1114
   56MOL    O8337593   4.705   5.056   5.011  0.0975 -0.1420  0.2935
   56MOL    C8437594   4.620   4.951   4.991  0.0671  0.3864 -0.1264
   56MOL    C8537595   4.504   4.963   5.075  0.0759  0.0947  0.1994
   56MOL    C8637596   4.398   4.865   5.058 -0.7312 -0.0711 -0.1465
   56MOL    C8737597   4.409   4.760   4.961  0.3620 -0.0935 -0.0754
   56MOL    C8837598   4.529   4.745   4.890  0.7401  0.1816 -0.7498
   56MOL    C8937599   4.635   4.846   4.898  0.2303 -0.3259  0.2254
   56MOL    C9037600   4.741   5.113   4.771 -0.3746 -0.1775  0.2016
   56MOL    C9137601   4.826   5.176   4.682  0.4640 -0.3348  0.7847
   56MOL    H9237602   4.777   5.417   4.577  0.8451 -0.9404 -0.0409
   56MOL    H9337603   4.690   5.536   4.373 -1.8172 -2.0131  0.0653
   56MOL    H9437604   5.099   5.529   4.222  1.1309 -3.2682 -0.6954
   56MOL    H9537605   5.166   5.416   4.428  0.8835  0.3866  0.5415
   56MOL    H9637606   5.077   5.278   4.883 -0.0677 -0.0488 -0.2822
   56MOL    H9737607   4.938   5.172   5.045  0.0077 -0.3871  0.1478
   56MOL    H9837608   4.488   5.047   5.141  1.3248 -1.1339  2.1070
   56MOL    H9937609   4.301   4.885   5.103 -0.5066 -1.0231  0.7708
   56MOL   H10037610   4.537   4.655   4.832  0.3912 -1.6211  1.9225
   56MOL   H10137611   4.727   4.833   4.843  0.9408 -0.6361  1.4909
   56MOL   H10237612   4.641   5.088   4.740 -0.8272  1.0390  0.6216
   56MOL   H10337613   4.797   5.190   4.579  2.0851  1.9827  0.5921
   56MOL   C10437614   4.374   4.312   5.017  0.8096 -0.2521 -0.7917
   56MOL   C10537615   4.365   4.438   4.955 -0.0678 -1.1174  0.8023
   56MOL   C10637616   4.312   4.551   5.020 -1.4677  0.2630 -0.1092
   56MOL   O10737617   4.305   4.669   4.951  0.3477 -0.1055 -0.2808
   56MOL   C10837618   4.269   4.541   5.152  0.3344 -0.4850 -0.2741
   56MOL   C10937619   4.277   4.417   5.214  0.0711  0.0352  0.1232
   56MOL   C11037620   4.319   4.299   5.150 -0.5441 -0.3544 -0.7480
   56MOL   C11137621   4.308   4.162   5.217  0.5107  0.4962 -0.5296
   56MOL   O11237622   4.282   4.159   5.335  0.5367 -0.0476  0.6816
   56MOL   C11337623   4.336   4.033   5.150 -0.0153 -1.1026 -0.3231
   56MOL   C11437624   4.408   3.927   5.217  0.3865 -0.2378 -0.0455
   56MOL   C11537625   4.431   3.811   5.145  0.1824  0.2749  0.0966
   56MOL   C11637626   4.395   3.794   5.011  0.1633 -0.2297  0.7468
   56MOL   O11737627   4.430   3.682   4.937 -0.3371  0.1456 -0.6295
   56MOL   C11837628   4.328   3.620   4.876  0.2302 -0.1267 -0.5943
   56MOL   C11937629   4.316   3.639   4.738  0.3720  0.0826 -0.4846
   56MOL   C12037630   4.206   3.572   4.670 -0.4813 -0.2598 -0.4236
   56MOL   C12137631   4.100   3.512   4.738  0.6017 -0.3886  0.3318
   56MOL   C12237632   4.117   3.491   4.874 -0.7561 -0.0710  0.3803
   56MOL   C12337633   4.231   3.540   4.946  0.7814  0.1977 -0.6539
   56MOL   C12437634   4.322   3.893   4.946  0.5477 -0.1676  0.5666
   56MOL   C12537635   4.290   4.008   5.017 -0.0368  0.1802 -0.0406
   56MOL   H12637636   4.408   4.231   4.955  0.8079 -1.1348  0.3364
   56MOL   H12737637   4.409   4.447   4.857 -0.2259 -1.1068  0.7331
   56MOL   H12837638   4.230   4.629   5.200 -1.2289 -1.1748 -0.2735
   56MOL   H12937639   4.245   4.421   5.317 -1.9075  0.4793 -0.5013
   56MOL   H13037640   4.429   3.935   5.323  0.5536 -1.0415 -0.0158
   56MOL   H13137641   4.481   3.734   5.202 -0.1597  0.3342  0.4757
   56MOL   H13237642   4.395   3.694   4.689 -1.9760  2.0430 -2.1822
   56MOL   H13337643   4.205   3.585   4.563  0.0946 -1.3294 -0.5728
   56MOL   H13437644   4.047   3.427   4.926  0.4300 -1.7981 -0.1054
   56MOL   H13537645   4.244   3.511   5.049 -2.8948 -0.6918 -0.3749
   56MOL   H13637646   4.297   3.891   4.841 -1.4569 -0.7429  1.0182
   56MOL   H13737647   4.240   4.085   4.959  0.1994 -1.5271 -2.5973
   56MOL   C13837648   3.885   3.657   4.377 -0.0135 -0.2817 -0.5319
   56MOL   C13937649   3.899   3.627   4.512  0.3930 -0.7121  0.3231
   56MOL   C14037650   3.961   3.501   4.547  0.4483 -0.7313 -0.1748
   56MOL   O14137651   3.988   3.463   4.677 -0.2660  0.1043  0.0432
   56MOL   C14237652   4.010   3.416   4.445 -0.0685 -0.0233 -0.1101
   56MOL   C14337653   3.992   3.450   4.315  0.5580 -0.5163  0.2374
   56MOL   C14437654   3.935   3.572   4.275  0.2800 -0.0345  0.2323
   56MOL   C14537655   3.925   3.602   4.125 -0.2662  0.1665  0.3197
   56MOL   O14637656   4.009   3.566   4.041 -0.4414  0.3654 -0.3532
   56MOL   C14737657   3.817   3.698   4.094  0.6195  0.0093 -0.2374
   56MOL   C14837658   3.848   3.817   4.026 -0.5393 -0.5632 -0.4526
   56MOL   C14937659   3.750   3.909   3.991 -0.7018  0.3115  0.1978
   56MOL   C15037660   3.615   3.881   4.029 -0.3492 -1.0169  0.0637
   56MOL   O15137661   3.510   3.964   3.991  0.2170 -0.6040  0.6795
   56MOL   C15237662   3.502   4.090   4.047  0.0856  0.3731  0.2985
   56MOL   C15337663   3.458   4.103   4.184  0.0179 -0.2738  0.3367
   56MOL   C15437664   3.466   4.225   4.255 -0.1173 -0.2977  0.0638
   56MOL   C15537665   3.531   4.338   4.188  0.7995 -0.1345 -0.1508
   56MOL   C15637666   3.562   4.321   4.051 -0.1935 -0.1936  0.2943
   56MOL   C15737667   3.536   4.203   3.976  0.7925 -0.2922 -0.1596
   56MOL   C15837668   3.582   3.755   4.088 -0.6297 -0.0808 -0.5652
   56MOL   C15937669   3.686   3.663   4.122 -0.8304  0.8982  0.0476
   56MOL   H16037670   3.853   3.754   4.342 -0.4932 -0.2119  0.0994
   56MOL   H16137671   3.876   3.691   4.595  3.9273  0.2143  0.7054
   56MOL   H16237672   4.051   3.319   4.471 -1.8164 -0.3047  1.7997
   56MOL   H16337673   4.038   3.386   4.241 -2.6779 -1.3341 -1.1285
   56MOL   H16437674   3.947   3.856   4.007 -0.2342 -2.1108 -2.1174
   56MOL   H16537675   3.769   3.991   3.923 -1.1989  0.1651 -0.1257
   56MOL   H16637676   3.425   4.018   4.241 -2.7215  1.2173  1.0780
   56MOL   H16737677   3.426   4.241   4.354 -0.2225 -1.4662  0.2123
   56MOL   H16837678   3.602   4.412   4.008 -1.8815  0.0115 -0.8863
   56MOL   H16937679   3.577   4.200   3.876  2.1031  0.4940  0.3345
   56MOL   H17037680   3.484   3.743   4.132 -1.0456  1.6006 -0.9899
   56MOL   H17137681   3.650   3.576   4.175 -0.8992 -0.7777 -2.6560
   56MOL   C17237682   3.826   4.610   4.412  0.2917 -0.0991  0.3122
   56MOL   C17337683   3.725   4.584   4.320 -0.5722 -0.7002 -0.0116
   56MOL   C17437684   3.636   4.483   4.348 -0.3060 -0.0189 -0.1815
   56MOL   O17537685   3.538   4.455   4.255 -0.1870  0.1214 -0.0373
   56MOL   C17637686   3.636   4.427   4.477 -0.4220  0.4209 -0.6491
   56MOL   C17737687   3.735   4.452   4.570 -0.5553 -0.5371 -0.0907
   56MOL   C17837688   3.836   4.541   4.536  0.2148 -0.5223 -0.1088
   56MOL   C17937689   3.943   4.563   4.639  0.1959  0.7426 -0.5712
   56MOL   O18037690   4.058   4.539   4.610 -0.4011 -0.2300 -0.0892
   56MOL   C18137691   3.909   4.611   4.774 -0.2911 -0.3533 -0.6080
   56MOL   C18237692   4.004   4.594   4.877  0.6540 -0.2513  0.1509
   56MOL   C18337693   3.975   4.636   5.013  0.3758 -0.2389  0.4226
   56MOL   C18437694   3.854   4.697   5.038  0.1339  0.5034 -0.1740
   56MOL   O18537695   3.820   4.724   5.177  0.0535  0.0452  0.8194
   56MOL   C18637696   3.701   4.795   5.207 -0.1129 -0.5291  0.1609
   56MOL   C18737697   3.594   4.751   5.273 -0.4247  0.5786  0.1940
   56MOL   C18837698   3.480   4.828   5.298 -0.2127 -0.2362  0.4159
   56MOL   C18937699   3.473   4.961   5.242 -0.4828  0.5195 -0.1231
   56MOL   C19037700   3.591   5.018   5.185  0.2059  0.4361 -0.0272
   56MOL   C19137701   3.706   4.936   5.168  0.0494  0.2229  0.3804
   56MOL   C19237702   3.756   4.714   4.935 -0.5709  0.0919  0.6514
   56MOL   C19337703   3.783   4.679   4.800 -0.0346  0.1971 -1.2150
   56MOL   H19437704   3.900   4.686   4.391 -0.9568  0.6008 -1.7730
   56MOL   H19537705   3.719   4.639   4.228 -1.7502 -0.5483  0.1494
   56MOL   H19637706   3.570   4.346   4.506  0.9982 -0.9524 -1.1775
   56MOL   H19737707   3.736   4.397   4.663 -2.4627  0.5472  0.5972
   56MOL   H19837708   4.096   4.541   4.858  0.5484 -0.2257 -0.4421
   56MOL   H19937709   4.049   4.618   5.090 -0.1062 -1.5751  0.5763
   56MOL   H20037710   3.619   4.654   5.314 -1.2192  0.5823  0.6932
   56MOL   H20137711   3.396   4.792   5.355 -0.4279 -0.3721  0.0194
   56MOL   H20237712   3.590   5.123   5.158 -0.7425  0.6691  0.9021
   56MOL   H20337713   3.801   4.970   5.129 -0.8274  0.7303 -1.3295
   56MOL   H20437714   3.657   4.743   4.966 -1.2349  0.3537 -1.6672
   56MOL   H20537715   3.707   4.694   4.725  1.2846 -0.6317 -2.7522
   56MOL   C20637716   3.357   5.325   5.484 -0.2017  0.2676 -0.1844
   56MOL   C20737717   3.379   5.249   5.364  0.5794 -0.2677  0.2205
   56MOL   C20837718   3.353   5.111   5.364  0.7765 -0.8616  0.0729
   56MOL   O20937719   3.365   5.045   5.246  0.5275  0.4064 -0.5037
   56MOL   C21037720   3.299   5.047   5.480  0.4102  0.5050 -0.3640
   56MOL   C21137721   3.274   5.124   5.596 -0.1476 -0.0272  0.0879
   56MOL   C21237722   3.311   5.259   5.601  0.6117 -0.1282 -0.6987
   56MOL   C21337723   3.299   5.332   5.725 -0.1928  0.2114  0.9101
   56MOL   O21437724   3.399   5.382   5.780  0.2790 -0.0999  0.0671
   56MOL   C21537725   3.167   5.334   5.793 -0.1825 -0.5713 -0.5448
   56MOL   C21637726   3.161   5.376   5.928 -0.2392  0.1874  0.4536
   56MOL   C21737727   3.039   5.394   5.996  0.3564  0.1478 -0.3805
   56MOL   C21837728   2.923   5.370   5.923  0.1478  0.6282 -0.1967
   56MOL   O21937729   2.798   5.394   5.981  0.0832  0.4775  0.1980
   56MOL   C22037730   2.743   5.292   6.055  0.2271 -0.4522 -0.5688
   56MOL   C22137731   2.732   5.313   6.193 -0.2979  0.3216 -0.7491
   56MOL   C22237732   2.678   5.219   6.277 -0.2666 -0.0427 -0.2046
   56MOL   C22337733   2.627   5.100   6.226  0.3661  0.0722 -0.6090
   56MOL   C22437734   2.614   5.081   6.087 -0.0948 -1.2198  0.0526
   56MOL   C22537735   2.670   5.178   6.000 -0.1050 -0.8457 -0.3473
   56MOL   C22637736   2.929   5.325   5.788 -0.7769  0.8927 -0.0931
   56MOL   C22737737   3.048   5.312   5.719 -0.3139 -0.1029 -0.4438
   56MOL   H22837738   3.370   5.433   5.482  0.1562  0.2758  1.5320
   56MOL   H22937739   3.399   5.299   5.270 -0.5709  1.9703  1.1270
   56MOL   H23037740   3.277   4.941   5.481 -1.3283  0.8521 -0.9839
   56MOL   H23137741   3.247   5.072   5.687 -0.4428  0.7732  0.4581
   56MOL   H23237742   3.259   5.400   5.968  2.2264 -0.9769 -4.4421
   56MOL   H23337743   3.028   5.419   6.100  2.0756  0.5358 -0.2863
   56MOL   H23437744   2.764   5.401   6.246 -2.4950  2.0149 -2.1204
   56MOL   H23537745   2.685   5.226   6.385 -0.3644 -1.8303 -0.0648
   56MOL   H23637746   2.563   4.994   6.048  0.5139 -1.6537  0.2125
   56MOL   H23737747   2.668   5.164   5.892  0.0763 -1.5427 -0.2623
   56MOL   H23837748   2.833   5.314   5.740 -0.8895  1.2008  0.0591
   56MOL   H23937749   3.046   5.290   5.613 -1.8821  0.4104 -0.5344
   56MOL   C24037750   2.324   5.153   6.513 -0.4639  0.6257  0.8670
   56MOL   C24137751   2.389   5.115   6.395 -0.5810 -0.1663 -0.1561
   56MOL   C24237752   2.500   5.026   6.399 -0.7135  0.3529  0.0942
   56MOL   O24337753   2.575   4.992   6.298 -0.0640 -0.2783 -0.2955
   56MOL   C24437754   2.523   4.957   6.517 -0.1152 -1.1287  0.2938
   56MOL   C24537755   2.451   4.991   6.638 -0.2784 -0.8228 -0.0041
   56MOL   C24637756   2.351   5.088   6.635 -0.0575 -0.2316 -0.7675
   56MOL   C24737757   2.263   5.123   6.756 -0.8610 -0.2864  0.3798
   56MOL   O24837758   2.312   5.164   6.863  0.2623  0.0936  0.3012
   56MOL   C24937759   2.115   5.125   6.738 -0.2754  0.4629  1.0329
   56MOL   C25037760   2.034   5.202   6.825 -0.0232  0.2044 -0.3250
   56MOL   C25137761   1.894   5.191   6.812 -0.1325  0.6375  0.4424
   56MOL   C25237762   1.824   5.119   6.714  0.1828 -0.2540  0.7981
   56MOL   O25337763   1.689   5.122   6.702  0.8449  0.7707  0.4731
   56MOL   C25437764   1.634   5.161   6.579 -0.0429 -0.1187 -0.0507
   56MOL   C25537765   1.687   5.270   6.498 -0.1017 -0.5759  0.2093
   56MOL   C25637766   1.613   5.316   6.387 -0.3655  0.1853  0.0246
   56MOL   C25737767   1.492   5.257   6.356  0.4778 -0.3292  0.2871
   56MOL   C25837768   1.439   5.149   6.432 -0.7108 -0.4899 -0.5055
   56MOL   C25937769   1.516   5.098   6.539 -0.0162  0.4844 -0.5554
   56MOL   C26037770   1.910   5.042   6.630 -0.2358 -0.1968 -1.1246
   56MOL   C26137771   2.052   5.043   6.641 -0.2938  0.2784  0.1146
   56MOL   H26237772   2.252   5.234   6.514 -3.0521 -1.5718 -0.9634
   56MOL   H26337773   2.357   5.163   6.304 -0.6820 -0.7667 -0.4333
   56MOL   H26437774   2.586   4.869   6.517  0.4749 -0.7256 -1.1221
   56MOL   H26537775   2.476   4.932   6.724  3.5402  1.5924  0.6511
   56MOL   H26637776   2.073   5.273   6.896  0.7926  0.7329 -1.2951
   56MOL   H26737777   1.833   5.257   6.872  0.3020  1.6623 -0.2498
   56MOL   H26837778   1.774   5.323   6.532 -0.3244 -0.9773  1.4624
   56MOL   H26937779   1.646   5.408   6.341 -0.3930  0.0796 -0.2053
   56MOL   H27037780   1.353   5.089   6.406  0.1002 -1.0850 -1.8653
   56MOL   H27137781   1.485   5.008   6.590 -0.0171  0.5633 -0.4171
   56MOL   H27237782   1.876   4.972   6.555 -1.1349  1.5087 -2.3488
   56MOL   H27337783   2.105   4.983   6.569 -0.7347 -2.0084  1.6383
   56MOL   C27437784   1.146   5.547   6.302  0.2951  0.3945 -0.1927
   56MOL   C27537785   1.274   5.490   6.287  0.3869 -0.2960 -0.2774
   56MOL   C27637786   1.290   5.350   6.271  0.1647 -0.6762  0.1710
   56MOL   O27737787   1.423   5.304   6.246 -0.3155  0.8269 -0.2833
   56MOL   C27837788   1.180   5.260   6.281 -0.9773  0.6856  0.4816
   56MOL   C27937789   1.051   5.319   6.293  0.0122 -0.5845  0.0448
   56MOL   C28037790   1.038   5.454   6.306  0.0821 -0.5722  0.6836
   56MOL   C28137791   0.899   5.509   6.323  0.5908 -0.0459  0.1389
   56MOL   O28237792   0.881   5.630   6.343  0.3766  0.7837  0.3050
   56MOL   C28337793   0.781   5.421   6.299 -0.2908 -0.5664 -0.3051
   56MOL   C28437794   0.731   5.395   6.172 -0.4747 -0.2663  0.3022
   56MOL   C28537795   0.620   5.312   6.166 -0.6012  0.4516  0.4076
   56MOL   C28637796   0.581   5.234   6.275 -0.2790 -0.6484  0.3211
   56MOL   O28737797   0.496   5.126   6.262  0.5173  0.5359 -0.3701
   56MOL   C28837798   0.518   5.031   6.160 -0.2683  0.0436  0.2745
   56MOL   C28937799   0.410   4.951   6.126 -0.2429  0.1788 -0.6352
   56MOL   C29037800   0.426   4.845   6.035  0.4694 -0.1136  0.2080
   56MOL   C29137801   0.549   4.819   5.968  0.0349 -0.5983 -0.0177
   56MOL   C29237802   0.663   4.898   6.004 -0.3166 -0.4100  0.1904
   56MOL   C29337803   0.647   4.996   6.103  0.4963 -0.1110  0.3640
   56MOL   C29437804   0.634   5.261   6.401  0.2387 -0.5244 -0.5907
   56MOL   C29537805   0.730   5.357   6.415 -0.3106  0.5071  0.3344
   56MOL   H29637806   1.138   5.654   6.318 -2.2669  0.1879  0.1109
   56MOL   H29737807   1.366   5.547   6.283  0.0762  0.2154 -0.1398
   56MOL   H29837808   1.193   5.153   6.270  2.2528  0.7240  3.3291
   56MOL   H29937809   0.964   5.256   6.307 -0.1453 -1.5398 -4.4292
   56MOL   H30037810   0.767   5.441   6.081  0.8471 -0.6534  0.6085
   56MOL   H30137811   0.575   5.283   6.072  2.1558 -0.4191 -0.7286
   56MOL   H30237812   0.313   4.971   6.170  0.0357 -0.7232  0.4089
   56MOL   H30337813   0.341   4.786   6.003 -0.6591  1.5040  0.1220
   56MOL   H30437814   0.757   4.865   5.963 -0.7338 -1.0264 -0.2925
   56MOL   H30537815   0.734   5.049   6.138 -0.1338  1.0467  0.2245
   56MOL   H30637816   0.595   5.205   6.484 -1.9367 -0.6968 -1.6933
   56MOL   H30737817   0.763   5.379   6.515 -0.7253  1.0625  0.3484
   56MOL   C30837818   0.333   4.812   5.589  0.1786  0.6537 -0.1091
   56MOL   C30937819   0.382   4.793   5.715  0.0073 -0.9871 -0.1391
   56MOL   C31037820   0.524   4.766   5.736 -0.4057  0.0213 -0.2271
   56MOL   O31137821   0.565   4.730   5.865  0.1804  0.3416  0.2419
   56MOL   C31237822   0.617   4.781   5.633  0.0427 -1.2894  0.1807
   56MOL   C31337823   0.566   4.808   5.507  0.2387  0.2146 -0.0034
   56MOL   C31437824   0.426   4.822   5.481  0.6026 -0.6613  0.4932
   56MOL   C31537825   0.372   4.839   5.339  0.2941 -0.3860 -0.4447
   56MOL   O31637826   0.306   4.750   5.289  0.0212 -0.2180 -0.3629
   56MOL   C31737827   0.398   4.974   5.283  0.0512  0.3711 -0.0888
   56MOL   C31837828   0.350   5.000   5.152  0.0994 -0.3962  0.3274
   56MOL   C31937829   0.364   5.119   5.086 -0.0050 -0.6545 -0.2337
   56MOL   C32037830   0.431   5.222   5.154  0.3667  0.6746  0.0173
   56MOL   O32137831   0.453   5.344   5.099  0.3898  0.0389 -0.0917
   56MOL   C32237832   0.405   5.384   4.976 -0.3440  0.0111  0.0337
   56MOL   C32337833   0.273   5.370   4.931  0.4563  0.5371  0.0826
   56MOL   C32437834   0.245   5.406   4.797  0.1572 -0.1099 -1.0485
   56MOL   C32537835   0.343   5.452   4.711 -0.5259  0.3174  0.0794
   56MOL   C32637836   0.473   5.470   4.752  0.0653  0.6368  0.0356
   56MOL   C32737837   0.499   5.443   4.886  0.1831  0.1987 -0.5517
   56MOL   C32837838   0.492   5.201   5.276 -0.1714 -0.8063  0.4403
   56MOL   C32937839   0.478   5.075   5.337  0.3278  0.5350  0.1670
   56MOL   H33037840   0.228   4.830   5.577  0.4859  2.5298 -0.2131
   56MOL   H33137841   0.304   4.791   5.790  0.2756 -1.3178  0.1347
   56MOL   H33237842   0.724   4.780   5.645  0.1482 -0.3712 -0.6236
   56MOL   H33337843   0.629   4.813   5.420  1.1577  0.2317  0.6437
   56MOL   H33437844   0.290   4.925   5.103  0.7997 -0.1561 -0.9039
   56MOL   H33537845   0.331   5.127   4.984 -0.5133  2.1059  0.0900
   56MOL   H33637846   0.197   5.333   4.998  1.5476  0.5503  1.3431
   56MOL   H33737847   0.146   5.393   4.756 -0.6706  0.1116  0.8189
   56MOL   H33837848   0.546   5.493   4.676  1.5647 -3.4450  0.0994
   56MOL   H33937849   0.599   5.468   4.918 -0.4075  0.4941  1.1535
   56MOL   H34037850   0.553   5.272   5.330 -0.3723 -1.5995  1.7204
   56MOL   H34137851   0.522   5.060   5.435 -1.0432  0.9651  0.8615
   56MOL   C34237852   0.261   5.863   4.597 -0.2782  0.1797  0.1735
   56MOL   C34337853   0.328   5.739   4.595  0.3139  0.0677  0.7303
   56MOL   C34437854   0.253   5.614   4.587 -0.3072  0.2576  0.3688
   56MOL   O34537855   0.311   5.493   4.588 -0.3128  0.5914  0.1606
   56MOL   C34637856   0.113   5.619   4.587 -0.0243  0.3260  0.3083
   56MOL   C34737857   0.051   5.744   4.605  0.1737 -0.6918 -0.5534
   56MOL   C34837858   0.121   5.868   4.606  0.0058 -0.6154  0.1491
   56MOL   C34937859   0.058   6.001   4.639  0.3844  0.2814 -0.0760
   56MOL   O35037860   8.282   6.012   4.721  0.3015 -0.6757 -0.1899
   56MOL   C35137861   0.103   6.120   4.564  1.0585 -0.8545  0.2333
   56MOL   C35237862   0.094   6.117   4.425  0.4868 -0.8739 -0.1094
   56MOL   C35337863   0.132   6.225   4.349 -0.0398  0.2591  0.0497
   56MOL   C35437864   0.164   6.351   4.413 -1.0077  0.9261  0.3819
   56MOL   O35537865   0.190   6.460   4.337 -0.7367  0.3286  0.2639
   56MOL   C35637866   0.091   6.558   4.323  0.1775 -0.7627  0.2277
   56MOL   C35737867   8.271   6.520   4.289 -0.1046  0.2896 -0.6311
   56MOL   C35837868   8.168   6.620   4.282  0.5241  0.6297  0.2977
   56MOL   C35937869   8.203   6.751   4.306  0.7971  0.1734 -0.1115
   56MOL   C36037870   0.019   6.787   4.346  0.2440  0.5545 -0.1984
   56MOL   C36137871   0.121   6.694   4.351 -0.1232  0.3152 -0.9917
   56MOL   C36237872   0.144   6.365   4.553 -0.1741 -0.0164  0.3254
   56MOL   C36337873   0.124   6.246   4.622 -0.6964  0.1833 -0.1729
   56MOL   H36437874   0.323   5.951   4.603  1.3230 -1.1175  3.6993
   56MOL   H36537875   0.435   5.736   4.609  0.6659  1.3829 -1.3389
   56MOL   H36637876   0.053   5.530   4.594 -0.9255  0.9083  0.0463
   56MOL   H36737877   8.258   5.751   4.629  0.3911  1.8120 -0.2451
   56MOL   H36837878   0.061   6.026   4.376  0.9251 -0.9224 -0.3119
   56MOL   H36937879   0.127   6.219   4.242 -1.1000  0.2570  0.0903
   56MOL   H37037880   8.242   6.420   4.257  0.3626 -0.0100 -0.1291
   56MOL   H37137881   8.069   6.587   4.253  1.1691 -1.5527  0.4613
   56MOL   H37237882   0.037   6.893   4.361 -1.6561  1.3996 -3.3508
   56MOL   H37337883   0.221   6.728   4.373 -0.8241  1.9083 -0.1916
   56MOL   H37437884   0.161   6.461   4.598 -1.6246 -0.5982  2.1784
   56MOL   H37537885   0.112   6.253   4.729 -0.9525  0.3408 -0.2140
   56MOL   C37637886   8.157   7.080   4.017  0.4168  0.6595  0.0762
   56MOL   C37737887   8.158   7.020   4.143  0.3101 -0.3303 -0.2340
   56MOL   C37837888   8.096   6.903   4.172  0.0153 -0.0849 -0.5584
   56MOL   O37937889   8.106   6.848   4.296 -0.0796  0.4483 -0.3738
   56MOL   C38037890   8.017   6.851   4.070  0.4277 -0.0976 -0.5866
   56MOL   C38137891   7.996   6.918   3.951  0.1883  0.3265  0.3043
   56MOL   C38237892   8.074   7.029   3.913 -0.5929  0.8322 -0.5895
   56MOL   C38337893   8.066   7.089   3.777  0.2213 -0.5156 -0.6539
   56MOL   O38437894   8.157   7.160   3.740  0.3824 -0.0431 -0.3150
   56MOL   C38537895   7.947   7.064   3.687  0.3083 -0.6060 -0.3933
   56MOL   C38637896   7.808   7.071   3.733 -0.4054 -0.3344  0.3865
   56MOL   C38737897   7.704   7.042   3.640  0.0188  0.4024 -0.0868
   56MOL   C38837898   7.731   7.013   3.501  0.0381  0.2763  0.4528
   56MOL   O38937899   7.630   7.010   3.403 -0.0674  0.6921 -0.2389
   56MOL   C39037900   7.514   7.084   3.406 -0.0447 -0.2553 -0.3106
   56MOL   C39137901   7.517   7.226   3.438  0.2358  0.5909 -0.3362
   56MOL   C39237902   7.395   7.302   3.447  0.0523 -0.2783  0.4976
   56MOL   C39337903   7.275   7.237   3.412  0.2896  0.1167 -0.6260
   56MOL   C39437904   7.277   7.107   3.364  0.2767 -0.1205  0.1389
   56MOL   C39537905   7.392   7.033   3.365 -0.2164 -0.3819  0.4016
   56MOL   C39637906   7.865   6.989   3.468 -0.2693 -0.2977 -0.1614
   56MOL   C39737907   7.968   7.029   3.552 -0.2404 -0.0714 -0.2190
   56MOL   H39837908   8.214   7.168   3.992  1.2334  0.3289  0.7390
   56MOL   H39937909   8.212   7.073   4.220 -1.3273 -0.0988  0.7758
   56MOL   H40037910   7.967   6.757   4.091  3.8510 -2.2938 -1.7688
   56MOL   H40137911   7.928   6.876   3.878  1.7217  1.8005 -2.0570
   56MOL   H40237912   7.785   7.090   3.837  0.2126 -2.1392  0.8675
   56MOL   H40337913   7.603   7.051   3.675  0.0439 -0.5585  0.2306
   56MOL   H40437914   7.611   7.275   3.459  1.6035 -1.0711 -2.4038
   56MOL   H40537915   7.396   7.407   3.474 -0.0110 -0.2884  0.5370
   56MOL   H40637916   7.189   7.054   3.334 -0.0217  0.5258 -0.1428
   56MOL   H40737917   7.380   6.927   3.346  1.1927 -0.9697  2.5188
   56MOL   H40837918   7.889   6.941   3.374  1.5875  1.6157 -0.7056
   56MOL   H40937919   8.070   7.010   3.522 -0.0088  1.5627 -0.4846
   56MOL   C41037920   7.072   7.634   3.279  0.0392  0.0598  0.1664
   56MOL   C41137921   7.083   7.529   3.372  0.4226  0.6949 -0.0452
   56MOL   C41237922   7.137   7.404   3.329 -0.0919 -0.7033 -0.4856
   56MOL   O41337923   7.160   7.309   3.419  0.2350  0.2819  0.3635
   56MOL   C41437924   7.155   7.386   3.187 -0.1170 -0.2222 -0.0985
   56MOL   C41537925   7.129   7.485   3.097 -0.9400 -1.3394 -0.6785
   56MOL   C41637926   7.098   7.614   3.142  0.2336 -0.0005  0.1184
   56MOL   C41737927   7.087   7.719   3.041 -0.0648 -0.0514  0.0003
   56MOL   O41837928   7.074   7.837   3.070 -0.9169  0.2127 -0.3332
   56MOL   C41937929   7.083   7.689   2.897 -0.5869  0.9585 -0.1308
   56MOL   C42037930   7.197   7.692   2.810  0.3211 -0.4280 -0.1510
   56MOL   C42137931   7.190   7.648   2.675  0.0983 -0.4456 -0.2805
   56MOL   C42237932   7.068   7.593   2.626 -0.9428  0.1215 -0.1805
   56MOL   O42337933   7.071   7.540   2.499  0.1287  0.6433 -0.0337
   56MOL   C42437934   7.009   7.419   2.487 -0.2293  0.0118  0.4157
   56MOL   C42537935   6.908   7.413   2.389 -0.3092  0.3365 -0.6766
   56MOL   C42637936   6.846   7.284   2.365 -0.9534 -0.5837 -0.2819
   56MOL   C42737937   6.891   7.169   2.433 -0.3034 -0.4347  0.4289
   56MOL   C42837938   6.994   7.180   2.527  0.1704  0.1193 -0.2556
   56MOL   C42937939   7.054   7.304   2.556 -0.5420 -0.5163  0.6524
   56MOL   C43037940   6.955   7.585   2.712 -0.6438  0.7752 -0.0597
   56MOL   C43137941   6.962   7.640   2.841 -0.3844 -0.3933 -0.2040
   56MOL   H43237942   7.036   7.733   3.306  1.2583  0.8128 -0.9453
   56MOL   H43337943   7.061   7.544   3.477 -0.2984 -0.8844  0.0451
   56MOL   H43437944   7.180   7.286   3.155 -0.7294 -0.4644  0.1688
   56MOL   H43537945   7.122   7.456   2.993  1.3375 -2.2576 -0.6067
   56MOL   H43637946   7.291   7.731   2.846  0.1729 -1.3267  1.2720
   56MOL   H43737947   7.279   7.653   2.614 -0.0834 -0.8242 -0.5750
   56MOL   H43837948   6.882   7.505   2.337 -2.8692  0.2838  0.4618
   56MOL   H43937949   6.774   7.277   2.285  0.4989 -0.9028 -1.5815
   56MOL   H44037950   7.033   7.092   2.575 -0.2804  0.6479  1.0852
   56MOL   H44137951   7.135   7.304   2.627 -0.6900 -0.4091  0.8217
   56MOL   H44237952   6.863   7.541   2.677  1.3405 -1.6492 -2.4964
   56MOL   H44337953   6.874   7.636   2.905  0.3865 -2.5860  0.7699
   56MOL   C44437954   6.759   6.892   2.066 -0.1317 -0.4561  0.6198
   56MOL   C44537955   6.746   6.931   2.205 -0.2161 -0.8832  0.0751
   56MOL   C44637956   6.847   6.996   2.275 -0.2294  0.0137 -0.8078
   56MOL   O44737957   6.833   7.047   2.404  0.3237 -0.6221 -0.3612
   56MOL   C44837958   6.973   7.007   2.214  0.5407  0.0758  0.0278
   56MOL   C44937959   6.992   6.968   2.082 -0.0438 -0.0401  0.5667
   56MOL   C45037960   6.884   6.921   2.002 -0.2413 -0.7118  0.6466
   56MOL   C45137961   6.898   6.900   1.851  0.3634  0.3212  0.6972
   56MOL   O45237962   6.806   6.876   1.779  0.8427  0.4075  0.3064
   56MOL   C45337963   7.036   6.906   1.796  0.7227  0.5388 -0.2663
   56MOL   C45437964   7.078   7.027   1.735 -0.5480  0.0931  0.0511
   56MOL   C45537965   7.213   7.042   1.709 -0.1257  0.0238 -0.1255
   56MOL   C45637966   7.306   6.953   1.755 -0.4383  0.5716 -0.6527
   56MOL   O45737967   7.440   6.975   1.737  0.4565  0.2050 -0.6017
   56MOL   C45837968   7.522   6.956   1.849 -0.1935 -0.5335 -0.2009
   56MOL   C45937969   7.651   6.898   1.829 -0.4427  0.3157  0.3888
   56MOL   C46037970   7.741   6.880   1.932  0.2435  0.3836 -0.5598
   56MOL   C46137971   7.695   6.894   2.066  0.4755 -0.1841  0.0322
   56MOL   C46237972   7.573   6.952   2.089 -0.2274  0.7828  0.7933
   56MOL   C46337973   7.488   6.990   1.983  0.0890 -0.5152  0.1030
   56MOL   C46437974   7.265   6.832   1.813  1.1319 -0.4075  0.6903
   56MOL   C46537975   7.127   6.814   1.841 -0.2121  0.5585 -0.2991
   56MOL   H46637976   6.680   6.839   2.015  0.3778 -1.3267  0.7374
   56MOL   H46737977   6.652   6.925   2.258  1.0552  0.9441  2.6374
   56MOL   H46837978   7.053   7.050   2.273  0.6355 -1.6947  1.2311
   56MOL   H46937979   7.094   6.972   2.046 -0.4130  1.3356 -0.3398
   56MOL   H47037980   7.010   7.111   1.730  0.4232  0.8526 -0.6196
   56MOL   H47137981   7.244   7.134   1.660  0.5514 -0.7126 -1.0981
   56MOL   H47237982   7.685   6.883   1.728  0.5001  1.2116  0.5639
   56MOL   H47337983   7.840   6.843   1.912 -0.1915 -0.6391 -0.8346
   56MOL   H47437984   7.544   6.968   2.192 -1.2832  3.1068  0.1923
   56MOL   H47537985   7.394   7.042   1.994  0.5574  0.5688 -0.9289
   56MOL   H47637986   7.332   6.751   1.837  0.0944 -1.9820 -1.6128
   56MOL   H47737987   7.094   6.730   1.900  3.1872 -1.5794 -1.3371
   56MOL   C47837988   8.116   6.730   2.232 -0.8595 -0.3117  0.1792
   56MOL   C47937989   8.001   6.811   2.232 -0.2564  0.6988 -0.1623
   56MOL   C48037990   7.880   6.768   2.166  0.1689 -0.0385  0.3544
   56MOL   O48137991   7.761   6.849   2.176 -0.4860 -0.3261  0.0513
   56MOL   C48237992   7.881   6.645   2.095 -0.0793 -0.7198 -0.9462
   56MOL   C48337993   7.997   6.564   2.092 -0.3760  0.4675 -0.3846
   56MOL   C48437994   8.118   6.610   2.161 -0.3649  1.2741  0.4702
   56MOL   C48537995   8.240   6.522   2.144  0.5384  0.3339 -0.8761
   56MOL   O48637996   8.256   6.452   2.043  0.7566  0.0840  0.1379
   56MOL   C48737997   0.019   6.520   2.260  0.1871 -0.2413  0.2947
   56MOL   C48837998   8.289   6.511   2.392  1.1334 -0.1040  0.0688
   56MOL   C48937999   0.056   6.508   2.500 -0.6004 -0.1869  0.6791
   56MOL   C49038000   0.197   6.524   2.488  0.1171  0.3152 -0.0394
   56MOL   O49138001   0.281   6.516   2.599 -0.6490 -0.2567  0.1071
   56MOL   C49238002   0.393   6.434   2.589 -0.7797  0.5592 -0.4290
   56MOL   C49338003   0.529   6.477   2.562 -0.4145  0.1189  0.9389
   56MOL   C49438004   0.634   6.389   2.554 -0.1158  0.0430  0.3597
   56MOL   C49538005   0.610   6.252   2.580 -0.8065 -0.4221 -0.7595
   56MOL   C49638006   0.487   6.212   2.630 -0.2103  0.1279  0.3240
   56MOL   C49738007   0.382   6.300   2.637  0.3036 -0.3985 -0.1205
   56MOL   C49838008   0.244   6.528   2.355 -1.0656  0.0998  0.4010
   56MOL   C49938009   0.164   6.527   2.237 -0.0961  0.2084 -0.2331
   56MOL   H50038010   8.200   6.761   2.293 -0.6327 -3.6592  1.6339
   56MOL   H50138011   8.001   6.911   2.273 -2.5101  0.6593 -0.0200
   56MOL   H50238012   7.800   6.609   2.035 -0.4655  0.5035 -1.1781
   56MOL   H50338013   7.997   6.471   2.038  1.9605  0.6938 -0.8600
   56MOL   H50438014   8.181   6.507   2.401  1.2515 -2.2111  0.8047
   56MOL   H50538015   0.025   6.500   2.603 -3.1298 -0.2635 -0.0710
   56MOL   H50638016   0.537   6.584   2.545 -2.6570 -0.0715 -1.6532
   56MOL   H50738017   0.734   6.409   2.517 -0.1131 -0.7149 -0.0665
   56MOL   H50838018   0.462   6.109   2.653 -1.9792 -0.2914 -3.1588
   56MOL   H50938019   0.282   6.276   2.668 -0.6112  2.4903 -0.6716
   56MOL   H51038020   0.347   6.553   2.334 -0.9095 -1.0083 -0.1635
   56MOL   H51138021   0.208   6.519   2.139  0.1001 -0.1767 -0.1142
   56MOL   C51238022   0.701   5.835   2.422 -0.4629 -1.1787 -0.4900
   56MOL   C51338023   0.709   5.938   2.519  1.1659 -0.3886 -0.1525
   56MOL   C51438024   0.708   6.074   2.474  0.1854  0.4570  0.5240
   56MOL   O51538025   0.713   6.169   2.562 -0.1159  0.2196  0.7061
   56MOL   C51638026   0.723   6.102   2.337  0.4989  0.3373  0.1412
   56MOL   C51738027   0.732   5.995   2.242 -0.2347 -0.9008  0.1059
   56MOL   C51838028   0.724   5.866   2.286  0.1829 -0.3140 -0.1622
   56MOL   C51938029   0.743   5.760   2.179 -0.2663  0.4999 -0.3675
   56MOL   O52038030   0.773   5.793   2.065 -0.0038  0.0563 -0.1241
   56MOL   C52138031   0.717   5.617   2.208  0.0385  0.7030 -0.3121
   56MOL   C52238032   0.823   5.524   2.196  0.4584 -0.0017 -0.4448
   56MOL   C52338033   0.811   5.389   2.234 -0.1691 -0.0112  0.2919
   56MOL   C52438034   0.687   5.349   2.292  0.4132 -0.4721 -0.5132
   56MOL   O52538035   0.672   5.218   2.329 -0.0812  0.2882 -0.0030
   56MOL   C52638036   0.649   5.131   2.230 -0.6472 -0.2536  0.8292
   56MOL   C52738037   0.751   5.035   2.208  0.0832  0.0183  0.5770
   56MOL   C52838038   0.733   4.936   2.106  0.0436  0.4082 -0.5775
   56MOL   C52938039   0.615   4.937   2.031 -0.3135  0.0565  0.3331
   56MOL   C53038040   0.518   5.028   2.055  0.7235  0.0492  0.0647
   56MOL   C53138041   0.526   5.122   2.164  0.1491  0.5324 -0.0725
   56MOL   C53238042   0.583   5.443   2.314  0.5311  0.0126  0.1483
   56MOL   C53338043   0.601   5.573   2.271 -0.1509 -0.0904 -0.0183
   56MOL   H53438044   0.692   5.732   2.454 -0.1064 -0.9695  0.3082
   56MOL   H53538045   0.711   5.916   2.625 -1.0237  2.7761  0.6203
   56MOL   H53638046   0.729   6.207   2.311 -0.7348  0.4541  0.2624
   56MOL   H53738047   0.759   6.014   2.139  0.1248  0.3827  0.4216
   56MOL   H53838048   0.918   5.557   2.155  0.2428 -0.6238 -1.4579
   56MOL   H53938049   0.887   5.319   2.205 -0.8483 -0.0316 -1.5046
   56MOL   H54038050   0.841   5.041   2.268  0.1781  2.5593  0.2224
   56MOL   H54138051   0.809   4.861   2.088  0.3880  0.5692  0.1528
   56MOL   H54238052   0.433   5.043   1.991  0.9061  1.1248  0.0548
   56MOL   H54338053   0.440   5.184   2.187  1.6426  1.9682  1.8185
   56MOL   H54438054   0.487   5.414   2.354  0.3703 -0.3579 -0.5070
   56MOL   H54538055   0.528   5.650   2.287  0.9688  0.7128  1.3516
   56MOL   C54638056   0.703   4.510   1.929  0.1278  0.3055 -0.0408
   56MOL   C54738057   0.633   4.627   1.954  0.6384  0.2527 -0.5362
   56MOL   C54838058   0.675   4.749   1.892 -0.0131  0.1882 -0.7881
   56MOL   O54938059   0.604   4.865   1.918 -1.0330  1.1708  0.5407
   56MOL   C55038060   0.777   4.753   1.792  1.0174  0.6768  0.3798
   56MOL   C55138061   0.848   4.629   1.774  0.1384 -0.4974 -0.2714
   56MOL   C55238062   0.824   4.511   1.844  0.0427  0.3359  0.1898
   56MOL   C55338063   0.911   4.390   1.809 -0.3276  0.2988  0.2703
   56MOL   O55438064   0.993   4.395   1.717 -0.0328  0.1983  0.3291
   56MOL   C55538065   0.875   4.256   1.866 -0.2172  0.2732  0.6223
   56MOL   C55638066   0.838   4.153   1.775 -0.2420  0.1772 -0.7553
   56MOL   C55738067   0.806   4.025   1.826  0.1311 -0.3699 -0.1635
   56MOL   C55838068   0.821   3.999   1.966 -0.4643 -0.6021  0.3616
   56MOL   O55938069   0.801   3.877   2.017  0.3402 -0.2248  0.6479
   56MOL   C56038070   0.677   3.835   2.045  0.6247  0.3690  0.2645
   56MOL   C56138071   0.584   3.915   2.113 -0.6203  0.1969 -0.2165
   56MOL   C56238072   0.457   3.857   2.151  0.6778  0.1944  0.2175
   56MOL   C56338073   0.414   3.727   2.113  0.0567  0.3298 -0.9656
   56MOL   C56438074   0.511   3.651   2.040  0.3214 -0.1253  0.1935
   56MOL   C56538075   0.638   3.703   2.007 -0.2829 -0.5191 -0.6771
   56MOL   C56638076   0.869   4.103   2.051 -0.2625  0.5658 -0.2672
   56MOL   C56738077   0.888   4.229   2.000 -0.5127  1.5007 -1.1573
   56MOL   H56838078   0.686   4.415   1.978 -0.8582  0.5433  0.1020
   56MOL   H56938079   0.545   4.622   2.016  1.3023  0.3366  0.4293
   56MOL   H57038080   0.807   4.842   1.738  2.5739 -0.9030 -1.4083
   56MOL   H57138081   0.929   4.630   1.704  0.8645  3.6114  0.5127
   56MOL   H57238082   0.823   4.175   1.670  0.9815  2.5774 -0.4645
   56MOL   H57338083   0.762   3.946   1.767  0.3410 -0.8276  0.2920
   56MOL   H57438084   0.613   4.016   2.139  1.4583 -0.1587 -1.0247
   56MOL   H57538085   0.405   3.930   2.212  1.0399  1.7385 -1.2917
   56MOL   H57638086   0.481   3.553   2.007 -2.1752  0.2353  1.2642
   56MOL   H57738087   0.711   3.638   1.962 -2.0102 -1.4836 -2.1213
   56MOL   H57838088   0.886   4.076   2.154 -1.8798  0.1444 -0.1059
   56MOL   H57938089   0.918   4.311   2.063  0.6220  1.3500 -1.4871
   56MOL   C58038090   8.249   3.745   2.110  0.4863 -0.2045 -0.7137
   56MOL   C58138091   0.057   3.692   2.152  0.1651 -0.0308 -0.5293
   56MOL   C58238092   0.178   3.726   2.084  0.9296 -0.6975 -0.6650
   56MOL   O58338093   0.294   3.678   2.133  0.3553  0.0524 -0.1023
   56MOL   C58438094   0.172   3.814   1.977  0.4751 -0.1575  0.1562
   56MOL   C58538095   0.046   3.870   1.936 -0.2834  0.2197 -0.5658
   56MOL   C58638096   8.240   3.830   1.999 -0.8372 -0.1328 -0.2118
   56MOL   C58738097   8.110   3.886   1.956 -0.2981  0.0827  0.1746
   56MOL   O58838098   8.018   3.924   2.030 -0.2751 -0.0985 -0.0102
   56MOL   C58938099   8.085   3.891   1.809 -0.2750 -0.3874 -0.8728
   56MOL   C59038100   8.140   3.799   1.713 -0.1027 -0.0616  0.0125
   56MOL   C59138101   8.111   3.808   1.575  0.1079  0.1129 -0.4921
   56MOL   C59238102   8.039   3.917   1.524  0.1212  0.0586 -0.0062
   56MOL   O59338103   8.022   3.920   1.387 -0.2175 -0.3972 -0.1406
   56MOL   C59438104   7.900   3.947   1.335 -0.5297 -0.5695  0.0325
   56MOL   C59538105   7.894   4.039   1.226 -0.0752  0.0059  0.4607
   56MOL   C59638106   7.769   4.070   1.169  0.0989  0.5416 -1.0099
   56MOL   C59738107   7.649   4.015   1.214 -0.3244 -0.9152 -0.2952
   56MOL   C59838108   7.661   3.919   1.320  0.0392 -0.7076 -0.0555
   56MOL   C59938109   7.787   3.881   1.378  0.0948  0.0383  0.2355
   56MOL   C60038110   7.983   4.011   1.615  0.0093 -0.4492 -0.7848
   56MOL   C60138111   8.011   4.001   1.757  0.0035 -1.0541  0.7023
   56MOL   H60238112   8.164   3.717   2.171  1.0938 -2.0471 -0.7085
   56MOL   H60338113   0.051   3.634   2.243  1.3415  0.7288  0.0489
   56MOL   H60438114   0.260   3.850   1.925 -0.6776  1.4605 -0.7280
   56MOL   H60538115   0.039   3.939   1.854  2.2089  0.8090 -0.3233
   56MOL   H60638116   8.181   3.704   1.744  2.6985  0.3883 -2.1337
   56MOL   H60738117   8.142   3.728   1.510 -0.9543 -0.7190  0.0147
   56MOL   H60838118   7.977   4.098   1.191 -1.7208  1.6998 -0.7312
   56MOL   H60938119   7.772   4.153   1.100 -0.9133  1.6415  0.2458
   56MOL   H61038120   7.570   3.876   1.359 -1.1817  2.4458  0.7696
   56MOL   H61138121   7.791   3.816   1.464  1.0685  0.9158  0.8633
   56MOL   H61238122   7.929   4.095   1.574  1.2184  0.3896 -0.6945
   56MOL   H61338123   7.978   4.081   1.822  2.9355  0.7837  0.0184
   56MOL   C61438124   7.467   4.325   0.918 -0.5282  0.9518  0.1504
   56MOL   C61538125   7.498   4.194   0.965 -0.1024 -0.0091 -0.2122
   56MOL   C61638126   7.493   4.165   1.100 -0.5568 -0.0841 -0.0398
   56MOL   O61738127   7.532   4.041   1.148  0.6284  0.1045 -0.1680
   56MOL   C61838128   7.449   4.265   1.192 -0.5367 -0.2600  0.0709
   56MOL   C61938129   7.407   4.391   1.144  0.3337 -0.1147  0.6886
   56MOL   C62038130   7.414   4.426   1.010  0.0922  0.4344 -0.1316
   56MOL   C62138131   7.393   4.564   0.965  0.2495 -0.1637 -1.2327
   56MOL   O62238132   7.455   4.658   1.022  0.2746 -0.0208 -0.0167
   56MOL   C62338133   7.284   4.579   0.864  0.0855  0.2406 -0.6442
   56MOL   C62438134   7.291   4.694   0.783  0.6099  1.0216  0.0696
   56MOL   C62538135   7.178   4.725   0.702  0.0138  0.2817 -0.5015
   56MOL   C62638136   7.064   4.640   0.697 -0.1163  0.2093 -0.4314
   56MOL   O62738137   6.953   4.687   0.631  0.2972 -0.0517 -0.1351
   56MOL   C62838138   6.823   4.652   0.675 -0.4373  0.0841  0.0036
   56MOL   C62938139   6.786   4.675   0.811  0.1143 -0.0071  0.3163
   56MOL   C63038140   6.657   4.635   0.854  0.3326 -0.5876 -0.1839
   56MOL   C63138141   6.566   4.579   0.762 -0.1221  0.0279 -0.2042
   56MOL   C63238142   6.607   4.550   0.629 -0.0936 -0.2844  0.3622
   56MOL   C63338143   6.732   4.589   0.587  0.2162  0.1252  0.3587
   56MOL   C63438144   7.081   4.512   0.761 -0.0417 -1.2196  0.9028
   56MOL   C63538145   7.180   4.489   0.851  0.5249 -0.0878  0.1029
   56MOL   H63638146   7.479   4.354   0.814  0.1971  1.2017  0.2999
   56MOL   H63738147   7.534   4.121   0.894  0.8243  0.7894 -0.5627
   56MOL   H63838148   7.453   4.256   1.300 -0.2690 -1.0149 -0.0014
   56MOL   H63938149   7.382   4.465   1.218 -0.0234 -0.5016  0.9511
   56MOL   H64038150   7.373   4.763   0.786 -1.9232  4.2376 -1.7141
   56MOL   H64138151   7.187   4.815   0.644 -1.3455  0.9803  0.3486
   56MOL   H64238152   6.848   4.736   0.876 -0.3498  3.9255 -2.7342
   56MOL   H64338153   6.636   4.655   0.958 -1.1570 -2.1556 -0.1492
   56MOL   H64438154   6.535   4.504   0.564  1.3619  0.3405 -1.7370
   56MOL   H64538155   6.762   4.559   0.488 -1.2138 -1.6456  0.4345
   56MOL   H64638156   6.998   4.442   0.764  0.3770 -1.8566 -1.3435
   56MOL   H64738157   7.153   4.409   0.919  1.6230 -1.3666 -0.9476
   56MOL   C64838158   6.337   4.403   1.141 -0.6272  0.1278  0.7948
   56MOL   C64938159   6.360   4.501   1.042 -0.9125  0.0413  0.5830
   56MOL   C65038160   6.438   4.458   0.925 -0.4817 -0.6076  0.0823
   56MOL   O65138161   6.443   4.536   0.810 -0.1374 -0.3412  0.1833
   56MOL   C65238162   6.501   4.327   0.923  0.2030  0.0468  0.0928
   56MOL   C65338163   6.478   4.236   1.029 -0.1639 -0.8397  0.7391
   56MOL   C65438164   6.400   4.275   1.137  0.2649 -0.3697 -0.0147
   56MOL   C65538165   6.379   4.174   1.243  1.0713  0.0456 -0.0959
   56MOL   O65638166   6.394   4.210   1.357 -0.7744  0.0151  0.5510
   56MOL   C65738167   6.350   4.035   1.208 -0.1497 -0.0785  0.0113
   56MOL   C65838168   6.384   3.922   1.287 -0.1215 -0.4837  0.4885
   56MOL   C65938169   6.334   3.792   1.251 -0.1397  0.1984 -0.1814
   56MOL   C66038170   6.265   3.774   1.136 -0.0406 -0.0236  0.4524
   56MOL   O66138171   6.216   3.648   1.114  0.0183  0.2313 -0.5547
   56MOL   C66238172   6.276   3.561   1.026  0.6741 -0.3864 -0.2443
   56MOL   C66338173   6.412   3.541   1.036 -0.1639 -0.6749 -0.7653
   56MOL   C66438174   6.468   3.437   0.965 -0.0989  0.1033  0.3171
   56MOL   C66538175   6.386   3.355   0.880  0.2626  0.6900 -0.6709
   56MOL   C66638176   6.248   3.375   0.872 -0.0407 -0.2398 -0.0376
   56MOL   C66738177   6.195   3.478   0.950 -0.3594  0.5524  1.1189
   56MOL   C66838178   6.241   3.887   1.056  0.0815  0.6133 -0.5331
   56MOL   C66938179   6.280   4.010   1.090 -0.3695 -0.1384 -0.1213
   56MOL   H67038180   6.264   4.430   1.215 -0.6907  0.6770  0.5384
   56MOL   H67138181   6.297   4.588   1.042  0.4114  1.0255  0.4926
   56MOL   H67238182   6.551   4.290   0.835 -1.1539 -0.8496 -0.3259
   56MOL   H67338183   6.508   4.133   1.030 -0.7629 -1.0182  0.0370
   56MOL   H67438184   6.434   3.940   1.381  0.0882  2.6652 -0.1848
   56MOL   H67538185   6.346   3.705   1.313 -0.0511 -2.5206 -3.8619
   56MOL   H67638186   6.472   3.590   1.112 -0.2499 -1.1142 -0.4176
   56MOL   H67738187   6.574   3.414   0.966 -0.0790  0.1132 -1.0742
   56MOL   H67838188   6.187   3.308   0.814  1.5076 -0.5051 -1.4140
   56MOL   H67938189   6.087   3.492   0.953 -0.2927  1.4645 -0.1928
   56MOL   H68038190   6.186   3.879   0.963 -2.4582  1.5489  0.8464
   56MOL   H68138191   6.255   4.101   1.037 -3.0994  0.3906  1.9618
   56MOL   H68238192   6.437   3.281   0.820  1.2255  0.0787  0.8803
   57MOL     C138193   2.059   2.503   3.817 -0.5858 -0.1402 -0.5173
   57MOL     C238194   2.049   2.566   3.688 -0.0766 -0.5842 -0.1477
   57MOL     C338195   1.960   2.670   3.665  0.1892 -0.6748  0.7706
   57MOL     O438196   1.951   2.732   3.543 -0.0290 -0.1972 -0.2459
   57MOL     C538197   1.878   2.720   3.767  0.3756 -0.2253  0.1981
   57MOL     C638198   1.892   2.660   3.895  0.3804 -0.3724  0.7481
   57MOL     C738199   1.984   2.550   3.923 -0.1590  0.0213  0.5785
   57MOL     C838200   2.010   2.500   4.062 -0.1261 -0.8198  0.2480
   57MOL     O938201   2.001   2.579   4.160 -0.3199 -0.2823 -0.0104
   57MOL    C1038202   2.050   2.360   4.091  1.2054 -0.1936  0.3859
   57MOL    C1138203   1.996   2.251   4.013  0.0786 -0.2440  0.4379
   57MOL    C1238204   2.027   2.117   4.035  0.7555 -0.2520 -0.3103
   57MOL    C1338205   2.112   2.088   4.138 -0.1711  1.0883 -0.0465
   57MOL    O1438206   2.139   1.957   4.165 -0.3879 -0.2800  0.0518
   57MOL    C1538207   2.042   1.885   4.234  0.4438  0.9260  0.2576
   57MOL    C1638208   1.971   1.782   4.165 -0.9926 -0.2284 -0.0391
   57MOL    C1738209   1.847   1.741   4.213 -0.3901  0.2613  0.9639
   57MOL    C1838210   1.818   1.764   4.351 -0.1395  0.4057 -0.0673
   57MOL    C1938211   1.893   1.859   4.425  0.4829 -0.2992  0.5160
   57MOL    C2038212   2.006   1.917   4.364 -0.0049 -0.4923 -0.5711
   57MOL    C2138213   2.168   2.186   4.224  0.7192 -0.4766 -0.6233
   57MOL    C2238214   2.137   2.322   4.196 -0.6301 -0.6139  0.5407
   57MOL    H2338215   2.140   2.433   3.833  1.3532  2.3107  0.7790
   57MOL    H2438216   2.094   2.529   3.597 -1.3767  1.4805 -1.6760
   57MOL    H2538217   1.815   2.807   3.761  1.2654  0.5147  1.2596
   57MOL    H2638218   1.844   2.709   3.978  0.2029 -0.3706  0.6428
   57MOL    H2738219   1.930   2.263   3.928 -3.2871  1.7372  3.1549
   57MOL    H2838220   1.982   2.042   3.972 -0.2256 -1.8042  2.1594
   57MOL    H2938221   2.016   1.738   4.077  0.9596  0.3607  0.6231
   57MOL    H3038222   1.784   1.681   4.148  0.9297  0.0177 -0.1126
   57MOL    H3138223   1.874   1.889   4.527  0.3211  0.2211  0.3315
   57MOL    H3238224   2.064   1.994   4.414 -0.6545  1.1267 -2.2398
   57MOL    H3338225   2.232   2.170   4.309 -0.3397  1.9471  0.6571
   57MOL    H3438226   2.183   2.394   4.263 -2.8915  0.4689  0.9727
   57MOL    H3538227   2.010   2.709   3.473  1.8789  1.6670  0.7257
   57MOL    C3638228   1.484   1.906   4.617 -0.4649  0.4451  0.0479
   57MOL    C3738229   1.567   1.858   4.509 -0.3047  0.0941 -0.7035
   57MOL    C3838230   1.645   1.736   4.515 -0.3575  0.2577  0.7658
   57MOL    O3938231   1.717   1.688   4.407 -0.1397  0.2673  0.5769
   57MOL    C4038232   1.642   1.667   4.639 -0.4059  0.5096 -0.4602
   57MOL    C4138233   1.571   1.717   4.752 -0.1275  0.2184 -0.5065
   57MOL    C4238234   1.502   1.837   4.746  0.0753 -0.5228 -0.2757
   57MOL    C4338235   1.439   1.883   4.876 -0.1311 -0.5201 -0.1739
   57MOL    O4438236   1.411   1.808   4.969 -0.0024  0.0757  0.3082
   57MOL    C4538237   1.412   2.031   4.886 -0.9611 -0.0688 -0.8012
   57MOL    C4638238   1.282   2.066   4.929 -0.3745 -0.1513  0.3593
   57MOL    C4738239   1.254   2.196   4.949  0.5048  0.4496 -0.1151
   57MOL    C4838240   1.353   2.298   4.932  0.8463 -1.2530  0.4360
   57MOL    O4938241   1.327   2.430   4.959  0.0866 -0.2897 -0.6988
   57MOL    C5038242   1.293   2.459   5.089 -0.7493  0.4575 -0.4716
   57MOL    C5138243   1.399   2.493   5.182 -0.0500  0.2719 -0.3945
   57MOL    C5238244   1.360   2.522   5.313  0.2635 -0.3387 -0.1469
   57MOL    C5338245   1.225   2.507   5.356 -0.1175 -0.0418 -0.2466
   57MOL    C5438246   1.125   2.463   5.269 -0.2201  0.3255 -0.4065
   57MOL    C5538247   1.162   2.444   5.137 -0.1212 -0.7508 -0.3611
   57MOL    C5638248   1.485   2.264   4.897  0.0716  0.2462  0.1810
   57MOL    C5738249   1.512   2.131   4.877 -0.3391 -0.3086 -0.0297
   57MOL    H5838250   1.433   2.001   4.608 -2.5976 -0.4943  1.7908
   57MOL    H5938251   1.576   1.910   4.415  0.3967  0.1868 -0.5913
   57MOL    H6038252   1.697   1.574   4.642 -1.1873  0.0349 -0.5576
   57MOL    H6138253   1.572   1.669   4.849  2.5781 -0.4768 -0.8470
   57MOL    H6238254   1.208   1.991   4.952 -1.5894  0.6478 -0.8944
   57MOL    H6338255   1.152   2.230   4.963  0.8977  1.8267 -0.5417
   57MOL    H6438256   1.501   2.511   5.152  0.0688 -1.1018 -0.8614
   57MOL    H6538257   1.432   2.553   5.387  2.7576 -1.0467 -2.2074
   57MOL    H6638258   1.025   2.438   5.303  0.3649  1.0304  1.8813
   57MOL    H6738259   1.086   2.403   5.073 -1.1155 -2.1019  1.6040
   57MOL    H6838260   1.561   2.340   4.890  0.5467 -0.2585 -0.2095
   57MOL    H6938261   1.615   2.105   4.855 -1.0827 -1.0056 -2.8376
   57MOL    C7038262   1.292   2.334   5.745  0.8957 -0.4904 -0.0933
   57MOL    C7138263   1.302   2.423   5.640  0.2863 -0.4239  0.2780
   57MOL    C7238264   1.181   2.469   5.582 -0.5293 -0.3970  0.5353
   57MOL    O7338265   1.194   2.553   5.476 -0.4033  0.0414 -0.0084
   57MOL    C7438266   1.056   2.435   5.641 -0.4366 -0.2360 -0.1982
   57MOL    C7538267   1.051   2.345   5.751  0.2416  0.4891 -0.0831
   57MOL    C7638268   1.173   2.287   5.799  0.0404 -0.2616 -0.5461
   57MOL    C7738269   1.167   2.187   5.912 -0.2641  0.4490  0.0288
   57MOL    O7838270   1.124   2.222   6.023  0.1537 -0.4822  0.4602
   57MOL    C7938271   1.205   2.043   5.898  0.4637 -0.1385 -0.2231
   57MOL    C8038272   1.242   1.996   5.770  0.1747 -0.7586  0.5745
   57MOL    C8138273   1.277   1.860   5.760  0.0501  0.5046 -0.0366
   57MOL    C8238274   1.272   1.771   5.867  0.8694 -0.0384  0.2039
   57MOL    O8338275   1.294   1.642   5.846 -0.0627  0.2513  0.8719
   57MOL    C8438276   1.196   1.551   5.880  0.3764 -0.3189  0.3922
   57MOL    C8538277   1.229   1.446   5.968 -0.6687 -0.2310  0.1209
   57MOL    C8638278   1.139   1.344   5.992  0.0177 -0.0102 -0.0307
   57MOL    C8738279   1.012   1.344   5.924 -0.0475  0.2507 -0.0328
   57MOL    C8838280   0.977   1.453   5.845  0.1851 -0.6270 -0.3558
   57MOL    C8938281   1.066   1.559   5.825  0.1404  0.2226 -0.1250
   57MOL    C9038282   1.231   1.826   5.994 -0.0418  0.2583  0.1925
   57MOL    C9138283   1.200   1.959   6.011  0.1556 -0.2679 -0.4357
   57MOL    H9238284   1.377   2.291   5.797  0.0497 -2.2510 -0.1041
   57MOL    H9338285   1.390   2.467   5.594 -0.0261 -1.5586 -1.4512
   57MOL    H9438286   0.973   2.475   5.584  1.5534  0.0383 -2.9592
   57MOL    H9538287   0.957   2.313   5.794 -0.3394 -1.0258 -2.3808
   57MOL    H9638288   1.245   2.061   5.683  0.5965  0.4676  1.4914
   57MOL    H9738289   1.296   1.817   5.663 -1.3727 -2.2451  0.8645
   57MOL    H9838290   1.322   1.434   6.021 -0.2747  0.8111 -0.3365
   57MOL    H9938291   1.170   1.258   6.049  1.2416 -1.5971 -2.9684
   57MOL   H10038292   0.877   1.460   5.805  0.2839 -0.1707 -0.5253
   57MOL   H10138293   1.045   1.637   5.753  1.2068  1.0135  0.4039
   57MOL   H10238294   1.232   1.757   6.078 -2.0451 -0.0199  0.0237
   57MOL   H10338295   1.183   1.996   6.112  0.2263 -0.5312 -0.3285
   57MOL   C10438296   0.974   0.987   5.670  0.0722 -0.3803  0.3782
   57MOL   C10538297   0.942   1.107   5.731  0.2269 -0.4051  0.0010
   57MOL   C10638298   0.970   1.124   5.868  0.8338  0.5143 -0.3480
   57MOL   O10738299   0.924   1.241   5.932  0.3166  0.3141  0.4780
   57MOL   C10838300   1.021   1.020   5.951  1.0089  0.3456 -0.3724
   57MOL   C10938301   1.044   0.899   5.887  0.1838 -0.9298 -0.5265
   57MOL   C11038302   1.024   0.878   5.747  0.2877  0.2095  0.1006
   57MOL   C11138303   1.040   0.744   5.687 -0.0244 -0.7218 -0.5037
   57MOL   O11238304   0.980   0.705   5.588  0.0035  0.2133 -0.7393
   57MOL   C11338305   1.141   0.653   5.756 -0.1698 -0.2304  0.1782
   57MOL   C11438306   1.256   0.689   5.829 -0.0047  0.2479 -0.5810
   57MOL   C11538307   1.336   0.595   5.897 -0.1438 -0.4030  0.1905
   57MOL   C11638308   1.305   0.453   5.889  0.1894 -0.4371  0.3592
   57MOL   O11738309   1.380   0.361   5.948 -0.0093  0.8247  0.2032
   57MOL   C11838310   1.338   0.302   6.069  0.3690  0.1843  0.2036
   57MOL   C11938311   1.386   0.178   6.116  0.1330 -0.2166 -0.1023
   57MOL   C12038312   1.360   0.133   6.246 -0.5777 -0.7062 -0.3162
   57MOL   C12138313   1.279   0.210   6.333 -0.3126  0.3719 -0.3814
   57MOL   C12238314   1.229   0.332   6.287  0.6211 -0.6376  0.3448
   57MOL   C12338315   1.254   0.375   6.154 -0.4453  0.5866  0.0057
   57MOL   C12438316   1.185   0.415   5.821 -0.0411 -0.2605 -0.2978
   57MOL   C12538317   1.116   0.513   5.751  0.5840  0.2717  0.2114
   57MOL   H12638318   0.966   0.969   5.564 -1.0829  0.1072  0.3654
   57MOL   H12738319   0.903   1.186   5.668 -0.0993  0.7374  1.6132
   57MOL   H12838320   1.031   1.032   6.058 -2.5206 -0.4114  0.1030
   57MOL   H12938321   1.069   0.816   5.952  1.8151 -0.8794 -1.0678
   57MOL   H13038322   1.288   0.792   5.840 -2.2875  0.8910  0.4389
   57MOL   H13138323   1.426   0.628   5.947 -0.4936  0.5519  0.1945
   57MOL   H13238324   1.453   0.122   6.051  0.7173  0.6365 -0.2431
   57MOL   H13338325   1.394   0.037   6.283  0.0372 -0.2384  0.3565
   57MOL   H13438326   1.150   0.388   6.336  1.0142 -0.3570  0.6662
   57MOL   H13538327   1.212   0.467   6.118  0.4744  0.4741 -1.4058
   57MOL   H13638328   1.147   0.315   5.809  1.6710 -0.9372 -0.1766
   57MOL   H13738329   1.022   0.487   5.704  0.1299  2.0392  0.1063
   57MOL   C13838330   1.451   0.428   6.658  0.6708 -0.2381  0.2174
   57MOL   C13938331   1.345   0.372   6.594 -0.2930 -0.0322  0.3864
   57MOL   C14038332   1.361   0.240   6.544 -1.1169 -0.4165  0.1433
   57MOL   O14138333   1.265   0.186   6.471 -0.0201 -0.9570  0.0064
   57MOL   C14238334   1.479   0.163   6.563 -0.4203  0.3517  0.1647
   57MOL   C14338335   1.582   0.221   6.639 -1.2099  0.5373  0.1769
   57MOL   C14438336   1.566   0.355   6.684 -0.2986 -0.0276 -0.3592
   57MOL   C14538337   1.672   0.424   6.766  0.6590 -0.7139  0.1065
   57MOL   O14638338   1.642   0.522   6.836 -0.0288  0.3619  0.2167
   57MOL   C14738339   1.815   0.380   6.762 -0.0248  0.5160  0.3614
   57MOL   C14838340   1.903   0.371   6.873 -0.6362  0.2327 -0.0954
   57MOL   C14938341   2.040   0.342   6.865 -0.4325  0.2817  0.3308
   57MOL   C15038342   2.088   0.293   6.740  0.9061 -0.7868  0.2892
   57MOL   O15138343   2.221   0.258   6.735  0.4534 -0.2286  0.5293
   57MOL   C15238344   2.247   0.118   6.734 -0.5611 -0.1733 -0.4103
   57MOL   C15338345   2.277   0.057   6.606 -0.2511 -0.6844 -0.7283
   57MOL   C15438346   2.289   8.228   6.602 -0.0848  0.1093 -0.9643
   57MOL   C15538347   2.298   8.153   6.722 -0.2491  0.0693 -0.1486
   57MOL   C15638348   2.272   8.218   6.846  0.3516 -0.1028 -0.1705
   57MOL   C15738349   2.238   0.039   6.849 -0.1177  0.2314  0.2349
   57MOL   C15838350   2.004   0.300   6.629 -0.2802 -0.2469 -0.3802
   57MOL   C15938351   1.873   0.345   6.638 -1.0576  0.3336 -0.0830
   57MOL   H16038352   1.445   0.524   6.708 -1.4008 -0.8819  1.2494
   57MOL   H16138353   1.253   0.429   6.595 -0.5310 -0.4135  2.1252
   57MOL   H16238354   1.488   0.069   6.510 -0.5275  1.1293 -1.2683
   57MOL   H16338355   1.677   0.170   6.647 -1.0326  1.0703  1.5223
   57MOL   H16438356   1.867   0.402   6.970  1.1480 -0.5150  0.8249
   57MOL   H16538357   2.108   0.357   6.947  0.1884 -2.0147  0.2696
   57MOL   H16638358   2.286   0.127   6.524 -1.8080  0.1363 -0.2119
   57MOL   H16738359   2.315   8.180   6.508  1.0025 -1.6019  0.1714
   57MOL   H16838360   2.276   8.164   6.940 -0.6570  0.2888  0.1012
   57MOL   H16938361   2.219   0.095   6.939  1.9170  1.0512  0.1764
   57MOL   H17038362   2.058   0.269   6.541 -0.3473  0.2332 -0.5877
   57MOL   H17138363   1.816   0.357   6.547  0.1378  2.1644 -0.6377
   57MOL   C17238364   2.649   7.963   6.853  0.2852 -0.0041 -0.3564
   57MOL   C17338365   2.544   8.014   6.769 -1.0015  0.5559  0.1364
   57MOL   C17438366   2.417   7.962   6.786 -0.2364 -0.3783  0.1493
   57MOL   O17538367   2.311   8.018   6.720  0.0582 -0.2303  0.1730
   57MOL   C17638368   2.387   7.854   6.877 -0.5119  0.1423  0.7084
   57MOL   C17738369   2.495   7.805   6.958 -0.3551 -0.4045  0.4772
   57MOL   C17838370   2.622   7.862   6.940  0.4045  0.0375  0.2050
   57MOL   C17938371   2.727   7.808   7.030  0.0236  0.6283 -0.1540
   57MOL   O18038372   2.757   7.689   7.036 -0.1660 -0.4252 -0.4657
   57MOL   C18138373   2.797   7.917   7.109 -0.1719  0.1478  0.4268
   57MOL   C18238374   2.746   8.050   7.123  0.0887 -0.1183  0.8956
   57MOL   C18338375   2.814   8.146   7.198 -0.6553  0.0583  0.3537
   57MOL   C18438376   2.936   8.116   7.261  0.3387 -0.3130  0.3916
   57MOL   O18538377   3.004   8.207   7.329  0.1293 -0.4316  0.4250
   57MOL   C18638378   3.099   8.286   7.264  0.0482  0.2942 -0.3128
   57MOL   C18738379   3.078   0.114   7.271  0.2196  0.0487 -0.2723
   57MOL   C18838380   3.173   0.206   7.215 -0.4118 -0.4343  0.0837
   57MOL   C18938381   3.284   0.147   7.140 -0.5357 -0.6083 -1.2568
   57MOL   C19038382   3.302   0.007   7.130 -0.2902  0.9941 -0.6608
   57MOL   C19138383   3.204   8.236   7.190 -0.5252  0.0462  0.0130
   57MOL   C19238384   2.985   7.981   7.262  1.0231 -1.0124 -0.2320
   57MOL   C19338385   2.919   7.884   7.183  0.0738 -0.3457  0.7559
   57MOL   H19438386   2.750   8.002   6.843  0.8707 -1.0974  1.0757
   57MOL   H19538387   2.548   8.092   6.695  1.3529  0.3420 -0.0136
   57MOL   H19638388   2.288   7.814   6.894 -0.6952 -0.2623 -1.2179
   57MOL   H19738389   2.484   7.727   7.031 -0.1083 -1.5269 -0.6736
   57MOL   H19838390   2.655   8.090   7.080  0.9494  3.2960  2.1847
   57MOL   H19938391   2.777   8.246   7.215  3.0396  1.7695 -1.2053
   57MOL   H20038392   3.005   0.158   7.337  0.7988  1.2847 -0.4367
   57MOL   H20138393   3.170   0.314   7.219 -0.9803 -0.4163 -0.6652
   57MOL   H20238394   3.389   8.276   7.083 -0.3946 -1.3246  1.1999
   57MOL   H20338395   3.209   8.129   7.175 -2.0897  0.3118 -2.7238
   57MOL   H20438396   3.080   7.969   7.312  1.2049  0.0677 -0.3113
   57MOL   H20538397   2.964   7.785   7.179  0.3788 -0.2618  1.9764
   57MOL   C20638398   3.708   0.201   7.235  0.5069 -0.7759 -0.0356
   57MOL   C20738399   3.600   0.184   7.149 -0.2589  0.2082 -0.1677
   57MOL   C20838400   3.483   0.267   7.153  0.6200  0.3286 -0.4573
   57MOL   O20938401   3.368   0.234   7.079  0.0598 -0.4617 -0.2035
   57MOL   C21038402   3.484   0.372   7.250 -0.4371 -0.2580  0.3553
   57MOL   C21138403   3.599   0.395   7.332  0.1725  1.1059 -0.0914
   57MOL   C21238404   3.716   0.312   7.319  0.0106  0.4448 -0.7973
   57MOL   C21338405   3.838   0.352   7.388 -0.5237  0.2709 -0.2852
   57MOL   O21438406   3.843   0.455   7.457 -0.1714 -0.5224 -0.2152
   57MOL   C21538407   3.957   0.264   7.373 -0.6733 -0.2153 -0.5577
   57MOL   C21638408   3.967   0.156   7.460 -0.4548  0.2513  0.5571
   57MOL   C21738409   4.075   0.067   7.437  0.2568 -0.0685 -0.4705
   57MOL   C21838410   4.171   0.090   7.336 -0.1566  0.2975 -0.3870
   57MOL   O21938411   4.276   0.010   7.317  0.3573 -0.3839  0.0690
   57MOL   C22038412   4.377   0.016   7.399  0.2498  0.3213 -0.4949
   57MOL   C22138413   4.460   8.212   7.407 -0.1939  0.6619 -0.4708
   57MOL   C22238414   4.584   8.223   7.474  0.0804 -0.3695 -0.1631
   57MOL   C22338415   4.609   0.024   7.555  0.1887 -0.6161 -0.6368
   57MOL   C22438416   4.511   0.126   7.562 -0.5281 -0.3659  0.0469
   57MOL   C22538417   4.405   0.131   7.473 -0.1959  0.2137  0.1208
   57MOL   C22638418   4.161   0.207   7.258  0.4196  0.2582 -0.0870
   57MOL   C22738419   4.046   0.286   7.269  0.2489 -0.3926  0.4134
   57MOL   H22838420   3.793   0.136   7.220  0.9823 -0.8030  2.5325
   57MOL   H22938421   3.587   0.102   7.079 -2.8971  0.4463  0.0148
   57MOL   H23038422   3.407   0.448   7.255 -0.5563 -0.3537  0.0074
   57MOL   H23138423   3.601   0.485   7.393  3.4152  0.5565  0.6774
   57MOL   H23238424   3.888   0.132   7.531 -0.2070 -0.2444  0.6680
   57MOL   H23338425   4.080   8.293   7.502  1.3421  0.5324  0.2649
   57MOL   H23438426   4.439   8.129   7.341 -0.9701 -0.4115  1.1002
   57MOL   H23538427   4.658   8.144   7.473  0.2254 -0.2393 -2.9437
   57MOL   H23638428   4.525   0.212   7.626  1.1176  0.5392 -1.4809
   57MOL   H23738429   4.334   0.213   7.480 -2.4064 -1.6144 -0.2778
   57MOL   H23838430   4.236   0.231   7.184  0.1412 -0.9862 -0.7979
   57MOL   H23938431   4.048   0.364   7.193  0.6485  1.3123  2.1301
   57MOL   C24038432   5.083   8.297   7.524 -0.2354  0.1709  0.5939
   57MOL   C24138433   4.970   8.282   7.604  0.1997  0.4097  0.2078
   57MOL   C24238434   4.846   0.031   7.558  0.7028 -0.2327 -0.0992
   57MOL   O24338435   4.726   0.030   7.628 -0.3581 -0.0424 -0.3159
   57MOL   C24438436   4.849   0.113   7.442 -0.2889  0.5804 -0.2888
   57MOL   C24538437   4.972   0.135   7.376 -0.5904 -0.0184  0.5672
   57MOL   C24638438   5.089   0.060   7.409 -1.0741  0.0965 -0.5835
   57MOL   C24738439   5.221   0.062   7.336  0.5490  0.4296 -0.1961
   57MOL   O24838440   5.318   8.310   7.371 -0.5598  0.1664  0.1467
   57MOL   C24938441   5.232   0.155   7.224 -0.7096  0.4258  0.1189
   57MOL   C25038442   5.317   0.270   7.228 -0.6017 -0.4460  0.2764
   57MOL   C25138443   5.314   0.357   7.118  0.1488  0.1908  0.0084
   57MOL   C25238444   5.229   0.334   7.009 -0.9406  0.1670 -0.0710
   57MOL   O25338445   5.224   0.424   6.908 -0.6560  0.6982  0.6535
   57MOL   C25438446   5.326   0.517   6.891 -0.0814  0.2334 -0.3886
   57MOL   C25538447   5.305   0.651   6.935 -0.2775  0.3911  1.0191
   57MOL   C25638448   5.410   0.740   6.927 -0.7354  0.0197 -0.1740
   57MOL   C25738449   5.541   0.703   6.882 -0.2735  0.0771 -0.5847
   57MOL   C25838450   5.568   0.572   6.839  0.3404  0.4236  0.0744
   57MOL   C25938451   5.454   0.482   6.844 -0.7297  0.0740  0.2461
   57MOL   C26038452   5.145   0.222   7.002 -0.2358  0.2380 -0.1977
   57MOL   C26138453   5.147   0.131   7.109 -0.5358  0.1759 -0.9471
   57MOL   H26238454   5.171   8.241   7.554 -2.0274 -2.2672  1.4443
   57MOL   H26338455   4.973   8.217   7.691 -1.0253  0.0154 -0.0324
   57MOL   H26438456   4.762   0.169   7.410  0.3125  0.7121 -1.7199
   57MOL   H26538457   4.981   0.195   7.287 -0.5808 -0.7796  0.0459
   57MOL   H26638458   5.394   0.282   7.303  0.9625 -2.0755 -1.0154
   57MOL   H26738459   5.382   0.441   7.123 -0.3279  0.6767 -1.5363
   57MOL   H26838460   5.209   0.687   6.971 -1.5519 -1.3650 -0.5200
   57MOL   H26938461   5.389   0.841   6.958 -0.3658  0.5504 -1.6251
   57MOL   H27038462   5.667   0.537   6.816 -0.0201  0.5063 -1.6406
   57MOL   H27138463   5.464   0.378   6.818 -2.5371  0.1858 -0.9263
   57MOL   H27238464   5.088   0.197   6.913 -1.9267  2.4929  0.2214
   57MOL   H27338465   5.068   0.058   7.108  0.5048 -0.9688 -0.4057
   57MOL   C27438466   5.941   0.927   7.022  0.0673 -0.3108  0.2410
   57MOL   C27538467   5.830   0.905   6.942 -0.5838  0.0665  0.3579
   57MOL   C27638468   5.738   0.803   6.957  0.4748 -0.0096 -0.4639
   57MOL   O27738469   5.632   0.805   6.872  0.2927  0.0372 -0.0251
   57MOL   C27838470   5.764   0.711   7.062 -0.9208  0.6050  0.5658
   57MOL   C27938471   5.875   0.732   7.148 -0.3480 -0.3816 -0.3065
   57MOL   C28038472   5.966   0.833   7.126 -0.7287 -0.0551 -0.2397
   57MOL   C28138473   6.091   0.841   7.212 -0.1750  0.2626  0.1734
   57MOL   O28238474   6.121   0.940   7.279 -0.3684 -0.1885 -0.3117
   57MOL   C28338475   6.185   0.721   7.199 -0.0707 -0.2135 -1.0223
   57MOL   C28438476   6.297   0.706   7.293  0.2243 -0.8366  0.9037
   57MOL   C28538477   6.374   0.592   7.299 -0.2107  0.4078 -0.1271
   57MOL   C28638478   6.356   0.491   7.206 -0.6076 -0.2681 -0.2122
   57MOL   O28738479   6.431   0.372   7.210 -0.0095 -0.1090 -0.0527
   57MOL   C28838480   6.356   0.257   7.221  0.3043 -0.1874  0.1641
   57MOL   C28938481   6.342   0.169   7.114  0.4348 -0.1729  0.3386
   57MOL   C29038482   6.265   0.058   7.116  0.2396 -0.1287  0.2715
   57MOL   C29138483   6.197   0.025   7.237  0.0867  0.1268 -0.2245
   57MOL   C29238484   6.212   0.108   7.348  0.6953 -0.6965 -0.5651
   57MOL   C29338485   6.299   0.221   7.345  0.1279 -0.2664  0.0402
   57MOL   C29438486   6.254   0.511   7.104 -0.8187 -0.0507 -0.8318
   57MOL   C29538487   6.168   0.621   7.103  0.0812 -1.2096  0.0212
   57MOL   H29638488   6.005   1.014   7.017  0.6726 -0.7897 -0.5070
   57MOL   H29738489   5.816   0.960   6.850 -2.9282 -2.8185 -1.0794
   57MOL   H29838490   5.686   0.638   7.073 -0.5580  0.2738  0.9593
   57MOL   H29938491   5.895   0.664   7.230  0.4865  0.1306 -0.0863
   57MOL   H30038492   6.313   0.796   7.351  0.2133 -1.4959  1.9286
   57MOL   H30138493   6.460   0.588   7.365 -0.0103 -2.5870 -0.4905
   57MOL   H30238494   6.401   0.190   7.026 -0.0457 -0.4418 -0.0452
   57MOL   H30338495   6.255   8.308   7.029 -1.9704  1.4291 -0.6227
   57MOL   H30438496   6.179   0.077   7.446 -0.6340 -0.6732 -0.9967
   57MOL   H30538497   6.313   0.285   7.431 -1.3628  1.1531 -0.7324
   57MOL   H30638498   6.243   0.430   7.033  0.0932 -0.9921  0.0933
   57MOL   H30738499   6.093   0.629   7.026 -0.4548 -3.3571  0.2686
   57MOL   C30838500   5.806   8.233   7.431  0.0450 -0.2025  0.0112
   57MOL   C30938501   5.899   8.250   7.327  0.5980  0.0173  0.2088
   57MOL   C31038502   6.028   8.207   7.345 -0.8418 -0.2053  1.1497
   57MOL   O31138503   6.128   8.217   7.249  0.5164  0.2669 -0.1117
   57MOL   C31238504   6.067   8.145   7.465 -0.0651 -0.0726 -0.3733
   57MOL   C31338505   5.972   8.103   7.557 -0.2238  0.2411  1.4825
   57MOL   C31438506   5.840   8.146   7.544  0.5251 -0.5611  0.3944
   57MOL   C31538507   5.735   8.103   7.639  0.2620 -0.1420  0.1903
   57MOL   O31638508   5.630   8.048   7.608 -0.0594  0.0468 -0.6725
   57MOL   C31738509   5.752   8.142   7.782  0.0971 -0.6417  0.2019
   57MOL   C31838510   5.843   8.245   7.817 -0.3861 -0.0633 -0.4300
   57MOL   C31938511   5.840   8.302   7.947  0.3172 -0.5577 -0.0379
   57MOL   C32038512   5.754   8.247   8.046  0.1696 -0.4126  0.6416
   57MOL   O32138513   5.748   8.302   8.171  0.7127  0.3989 -0.3386
   57MOL   C32238514   5.625   0.012   8.226  0.9422 -0.5323 -0.3584
   57MOL   C32338515   5.601   8.264   0.040 -0.8660 -0.6042  0.0538
   57MOL   C32438516   5.476   8.293   0.108 -0.4736  0.1171 -0.3054
   57MOL   C32538517   5.380   0.057   0.041 -0.1577  0.9144  0.1554
   57MOL   C32638518   5.395   0.109   8.225  0.2695  0.3535  0.1313
   57MOL   C32738519   5.524   0.086   8.160  0.0536 -0.6175  0.0144
   57MOL   C32838520   5.666   8.140   8.007  0.2514  0.3968 -0.1942
   57MOL   C32938521   5.667   8.090   7.879 -0.3914  0.1631 -0.1207
   57MOL   H33038522   5.707   8.276   7.428  0.1583 -0.0204 -1.5879
   57MOL   H33138523   5.865   8.290   7.233 -0.3485 -2.4340 -0.5245
   57MOL   H33238524   6.167   8.103   7.470  0.2696  0.5547 -1.5325
   57MOL   H33338525   5.999   8.043   7.643  1.3640  0.6389  1.2807
   57MOL   H33438526   5.900   8.298   7.742 -0.8031 -0.2541 -0.8875
   57MOL   H33538527   5.892   0.079   7.977 -1.2481  0.0151  1.0384
   57MOL   H33638528   5.675   8.199   0.083 -1.0030 -0.7509  0.0705
   57MOL   H33738529   5.470   8.248   0.206  0.0744  1.1981  0.2392
   57MOL   H33838530   5.315   0.169   8.186 -0.7639  0.6699  2.6188
   57MOL   H33938531   5.557   0.134   8.069  2.5223 -0.7079  0.8292
   57MOL   H34038532   5.585   8.103   8.068 -0.4493  0.9937 -0.7431
   57MOL   H34138533   5.591   8.020   7.849  0.4963  0.4808 -3.2777
   57MOL   C34238534   5.198   0.177   0.441 -0.9597 -0.6262 -0.5186
   57MOL   C34338535   5.221   0.092   0.328  0.3135 -0.4444  0.8835
   57MOL   C34438536   5.244   0.152   0.200  0.4670 -0.0326 -0.6861
   57MOL   O34538537   5.255   0.078   0.087  0.5467 -1.0100 -0.6632
   57MOL   C34638538   5.254   0.291   0.187  0.1871  0.0404 -0.6211
   57MOL   C34738539   5.229   0.373   0.303 -0.0248  0.5186  0.0099
   57MOL   C34838540   5.205   0.320   0.429 -0.1005  0.3537  0.5086
   57MOL   C34938541   5.189   0.424   0.540  0.3477  0.4516 -0.5561
   57MOL   O35038542   5.129   0.530   0.517  0.5191  0.4711 -0.1068
   57MOL   C35138543   5.245   0.393   0.675  0.3300 -0.3495 -0.0291
   57MOL   C35238544   5.350   0.295   0.701 -0.3777  0.4435 -0.2902
   57MOL   C35338545   5.407   0.287   0.829  0.2459 -0.0071  0.4741
   57MOL   C35438546   5.368   0.380   0.933 -0.0079  0.2654  0.7444
   57MOL   O35538547   5.403   0.356   1.064 -0.5564 -0.1357  0.3187
   57MOL   C35638548   5.497   0.450   1.103 -0.0258 -0.2800  0.2866
   57MOL   C35738549   5.465   0.531   1.208  0.3811 -0.0310 -0.5248
   57MOL   C35838550   5.558   0.631   1.259  0.0242  0.5226  0.3479
   57MOL   C35938551   5.680   0.646   1.189  0.5560 -0.1156 -0.0240
   57MOL   C36038552   5.710   0.557   1.085 -0.5315 -0.8832 -1.3746
   57MOL   C36138553   5.620   0.469   1.036  0.3548 -0.2462 -0.5602
   57MOL   C36238554   5.264   0.465   0.905  0.2474  0.2598 -0.2402
   57MOL   C36338555   5.202   0.473   0.782 -0.5355  0.5863  0.2797
   57MOL   H36438556   5.180   0.129   0.536  0.9968 -0.4885 -0.0649
   57MOL   H36538557   5.217   8.298   0.339  3.0857 -0.6954 -0.2091
   57MOL   H36638558   5.265   0.341   0.092 -1.5623  0.1207 -0.7870
   57MOL   H36738559   5.220   0.480   0.296 -3.1723  0.3248  0.0402
   57MOL   H36838560   5.382   0.219   0.632 -0.1662  0.9580 -0.7685
   57MOL   H36938561   5.473   0.202   0.838  0.1466 -0.7973 -4.8378
   57MOL   H37038562   5.369   0.526   1.257  0.4824 -1.2973 -0.4414
   57MOL   H37138563   5.524   0.697   1.337 -3.3686 -0.7247  0.0172
   57MOL   H37238564   5.799   0.578   1.028 -1.5081  1.5401 -2.0696
   57MOL   H37338565   5.638   0.402   0.953  0.3077 -0.6449 -0.2523
   57MOL   H37438566   5.232   0.527   0.988  1.0998  0.1581  0.1703
   57MOL   H37538567   5.131   0.551   0.757 -1.3627 -0.1336  0.3594
   57MOL   C37638568   6.063   0.862   1.389  0.9382  0.0101 -0.4520
   57MOL   C37738569   5.933   0.866   1.334 -0.0019  0.3803 -0.4591
   57MOL   C37838570   5.863   0.746   1.303  0.3435 -0.5534  0.0348
   57MOL   O37938571   5.754   0.756   1.217  0.7674  0.4782 -0.1141
   57MOL   C38038572   5.911   0.624   1.340  0.0036 -0.3174  0.1263
   57MOL   C38138573   6.036   0.623   1.405 -0.4815  0.0380  0.2142
   57MOL   C38238574   6.113   0.730   1.420 -0.1210  0.2609 -0.8863
   57MOL   C38338575   6.257   0.709   1.481 -0.6034 -0.2616  0.9470
   57MOL   O38438576   6.285   0.612   1.552  0.4077  0.5706  0.4750
   57MOL   C38538577   6.355   0.825   1.459  0.0966 -0.0667 -0.0420
   57MOL   C38638578   6.457   0.853   1.556  0.2259 -0.8991  0.3067
   57MOL   C38738579   6.549   0.958   1.535 -0.9148 -0.3604  0.6053
   57MOL   C38838580   6.543   1.027   1.414 -0.3681 -0.1276 -0.4252
   57MOL   O38938581   6.642   1.125   1.393 -0.1548 -0.0935 -0.3405
   57MOL   C39038582   6.774   1.085   1.385 -0.4784  0.2303 -0.0105
   57MOL   C39138583   6.867   1.102   1.490 -0.7090 -0.1130  0.2391
   57MOL   C39238584   6.996   1.060   1.469 -0.1155  0.0435  0.0826
   57MOL   C39338585   7.042   1.010   1.348  0.4259 -0.0060 -0.1934
   57MOL   C39438586   6.951   1.000   1.246 -0.5083  0.0382  0.7919
   57MOL   C39538587   6.815   1.038   1.261  0.0327  0.3562 -0.2720
   57MOL   C39638588   6.450   0.998   1.319  0.4602  0.3250 -0.2473
   57MOL   C39738589   6.355   0.895   1.338  0.0487 -0.7304 -0.6020
   57MOL   H39838590   6.107   0.959   1.408 -1.0922  0.7140  0.7683
   57MOL   H39938591   5.897   0.960   1.296 -1.2382 -0.3534 -1.1583
   57MOL   H40038592   5.855   0.534   1.319 -1.2474  0.2932  0.7435
   57MOL   H40138593   6.074   0.524   1.423  0.5366  0.4954  0.5961
   57MOL   H40238594   6.464   0.799   1.649 -0.8756  0.1820  1.0324
   57MOL   H40338595   6.624   0.988   1.607  1.0316 -1.5962 -0.8686
   57MOL   H40438596   6.848   1.150   1.586 -1.4169  1.2488 -0.5706
   57MOL   H40538597   7.061   1.073   1.555 -0.3058  0.7821  0.1167
   57MOL   H40638598   6.977   0.960   1.148 -1.4268 -0.1347  0.6176
   57MOL   H40738599   6.756   1.031   1.171 -1.9503  0.8904  0.9532
   57MOL   H40838600   6.450   1.062   1.232 -0.9012  0.5459 -0.0926
   57MOL   H40938601   6.291   0.870   1.255 -1.3716  1.3802 -0.1876
   57MOL   C41038602   7.322   0.776   1.064 -0.5023  0.3977  0.0554
   57MOL   C41138603   7.300   0.874   1.159 -0.8386  0.0546 -0.6576
   57MOL   C41238604   7.211   0.859   1.266  0.6745 -0.4130  0.5740
   57MOL   O41338605   7.175   0.966   1.339 -0.3360  0.5413 -0.1457
   57MOL   C41438606   7.143   0.738   1.278  0.4431 -0.1243 -0.7202
   57MOL   C41538607   7.162   0.632   1.182  0.4441 -0.0450  0.1751
   57MOL   C41638608   7.259   0.654   1.080  0.5293  0.5381  1.1592
   57MOL   C41738609   7.297   0.539   0.995  0.4957  0.2794 -0.7172
   57MOL   O41838610   7.336   0.439   1.054  0.7467  0.0777  0.3423
   57MOL   C41938611   7.295   0.538   0.842 -0.0182  0.0911  0.2920
   57MOL   C42038612   7.243   0.644   0.769 -0.6657  0.3431 -1.0354
   57MOL   C42138613   7.248   0.644   0.630 -1.2064  0.6916 -0.2487
   57MOL   C42238614   7.302   0.534   0.561  0.3488 -0.3667  0.3586
   57MOL   O42338615   7.293   0.526   0.424 -0.0237  0.5953 -0.0981
   57MOL   C42438616   7.235   0.423   0.356 -0.7420 -0.4102 -0.6553
   57MOL   C42538617   7.294   0.383   0.240  0.1244  0.7785 -0.4257
   57MOL   C42638618   7.233   0.280   0.160 -0.6313 -0.1278 -0.5856
   57MOL   C42738619   7.114   0.220   0.204  0.1152 -0.0797  0.4716
   57MOL   C42838620   7.064   0.259   0.333 -0.4757 -0.2611 -0.5195
   57MOL   C42938621   7.117   0.367   0.403 -0.4820 -0.5573  0.3447
   57MOL   C43038622   7.357   0.428   0.633 -0.8344  0.2306 -0.1407
   57MOL   C43138623   7.347   0.428   0.775 -0.0291 -0.2435 -0.0195
   57MOL   H43238624   7.394   0.789   0.984  0.1647  0.4634  0.6579
   57MOL   H43338625   7.352   0.967   1.141  2.6069 -1.6577 -0.0340
   57MOL   H43438626   7.079   0.717   1.363  0.4086 -1.6279 -1.0942
   57MOL   H43538627   7.108   0.540   1.197  0.0099  0.0858 -0.5655
   57MOL   H43638628   7.208   0.736   0.813 -0.1815  0.8951 -1.7967
   57MOL   H43738629   7.215   0.731   0.576 -2.6132  0.2631 -0.0977
   57MOL   H43838630   7.372   0.447   0.201 -0.5632  0.9968 -1.4814
   57MOL   H43938631   7.278   0.249   0.067  0.1822  1.6206 -0.7784
   57MOL   H44038632   6.984   0.206   0.382  1.8711 -1.3911  2.2436
   57MOL   H44138633   7.081   0.392   0.502  3.1850 -0.2811  1.6891
   57MOL   H44238634   7.407   0.351   0.577  2.2156 -0.1418  2.8880
   57MOL   H44338635   7.380   0.341   0.829 -1.1594  1.0114  2.7638
   57MOL   C44438636   6.895   8.172   0.330  0.6956 -0.2989 -0.2686
   57MOL   C44538637   6.989   8.268   0.292  0.0401 -0.7309  0.2028
   57MOL   C44638638   6.955   0.036   0.178 -0.1371  0.6928  0.5705
   57MOL   O44738639   7.051   0.123   0.129 -0.5971  0.8089 -0.1208
   57MOL   C44838640   6.835   0.029   0.113  0.2416 -0.3630 -0.0519
   57MOL   C44938641   6.741   8.248   0.154  0.0110 -0.6500  0.1675
   57MOL   C45038642   6.767   8.165   0.266  0.3236  0.5765 -0.0880
   57MOL   C45138643   6.656   8.075   0.320 -0.2287 -0.5403  0.4862
   57MOL   O45238644   6.607   8.098   0.429  0.0511  0.4253 -0.7553
   57MOL   C45338645   6.613   7.961   0.228 -0.0522  0.0206 -0.0164
   57MOL   C45438646   6.495   7.893   0.262 -0.2067  0.1971 -0.2407
   57MOL   C45538647   6.456   7.790   0.174 -0.0124 -0.4922 -0.1279
   57MOL   C45638648   6.527   7.751   0.057 -0.5463 -0.0558  0.9045
   57MOL   O45738649   6.494   7.643   8.292 -0.3842 -0.1275  0.1289
   57MOL   C45838650   6.523   7.514   0.024 -0.0784 -0.3641  0.6903
   57MOL   C45938651   6.423   7.429   0.074 -0.0683  0.1402  0.4234
   57MOL   C46038652   6.451   7.299   0.116  0.3144  0.6246 -0.5548
   57MOL   C46138653   6.581   7.244   0.106  0.0258 -0.1944 -0.0758
   57MOL   C46238654   6.686   7.321   0.046 -0.4128  0.3433  0.0341
   57MOL   C46338655   6.656   7.455   0.010  0.3367 -0.0809 -0.5922
   57MOL   C46438656   6.643   7.823   0.026  0.3298  0.1409 -0.2313
   57MOL   C46538657   6.683   7.929   0.108 -0.1653 -0.6033  0.1139
   57MOL   H46638658   6.906   8.110   0.417 -4.0434  0.4610  1.0093
   57MOL   H46738659   7.083   8.277   0.345 -0.0521 -0.8586  0.3903
   57MOL   H46838660   6.812   0.088   0.026 -0.8910  1.8474  1.6715
   57MOL   H46938661   6.647   8.245   0.103  0.3003 -0.2097 -0.3925
   57MOL   H47038662   6.446   7.923   0.354  0.5405 -1.2055  0.6194
   57MOL   H47138663   6.362   7.743   0.197  0.0629  0.5765  2.5330
   57MOL   H47238664   6.323   7.467   0.082 -0.4791 -1.1215  1.3840
   57MOL   H47338665   6.373   7.243   0.164  0.8578 -0.0800 -0.4956
   57MOL   H47438666   6.787   7.281   0.047 -1.0159 -1.3094  3.3032
   57MOL   H47538667   6.738   7.516   8.288  0.2224  0.0425 -0.6490
   57MOL   H47638668   6.688   7.806   8.242 -0.1398 -0.5405 -0.3386
   57MOL   H47738669   6.761   7.997   0.077  0.8666 -0.5014  2.8560
   57MOL   C47838670   6.833   6.873   0.002  0.1570  0.7346 -0.2087
   57MOL   C47938671   6.776   6.969   0.089  0.7076 -0.4231  1.0617
   57MOL   C48038672   6.648   7.026   0.065 -0.1973  0.9690  0.1135
   57MOL   O48138673   6.601   7.118   0.153 -0.4174  0.4996 -0.5623
   57MOL   C48238674   6.568   6.976   8.277 -0.5584 -0.4031  0.2440
   57MOL   C48338675   6.622   6.881   8.186  0.3029  0.7944  0.2808
   57MOL   C48438676   6.757   6.832   8.202  0.5574 -0.7434 -0.0435
   57MOL   C48538677   6.817   6.722   8.120 -0.3578  1.3748 -0.2548
   57MOL   O48638678   6.930   6.686   8.129 -0.0536 -0.2801  0.8775
   57MOL   C48738679   6.735   6.653   8.016 -0.1349 -0.4301  0.3191
   57MOL   C48838680   6.704   6.517   8.037  0.2278  0.0486  0.3224
   57MOL   C48938681   6.656   6.441   7.930  0.8704 -0.5557 -0.2693
   57MOL   C49038682   6.618   6.504   7.813 -0.1173 -0.4178  0.1286
   57MOL   O49138683   6.562   6.434   7.705 -0.3282  0.3719 -0.1780
   57MOL   C49238684   6.640   6.404   7.602 -0.8662  0.0186 -0.1637
   57MOL   C49338685   6.625   6.275   7.539 -0.4976 -0.7206 -0.5190
   57MOL   C49438686   6.695   6.249   7.423 -0.2927  0.4942  0.3549
   57MOL   C49538687   6.778   6.342   7.361 -0.4929 -0.1584  0.0157
   57MOL   C49638688   6.790   6.468   7.419  0.1144  0.5300 -0.0906
   57MOL   C49738689   6.720   6.496   7.541  0.2921 -0.5487 -0.3331
   57MOL   C49838690   6.624   6.640   7.802 -0.2776 -0.0317 -0.2627
   57MOL   C49938691   6.685   6.718   7.901  0.2797 -0.4088 -0.5263
   57MOL   H50038692   6.930   6.836   0.030 -0.0165  1.3383  1.2317
   57MOL   H50138693   6.824   7.014   0.175  2.4670 -2.7950  1.3703
   57MOL   H50238694   6.467   7.011   8.264  0.1836  1.4888 -0.5877
   57MOL   H50338695   6.565   6.832   8.110  0.9651 -4.1378  2.7824
   57MOL   H50438696   6.749   6.470   8.123  0.7605  0.2227  0.1424
   57MOL   H50538697   6.645   6.334   7.937  0.8479 -0.4744  1.1129
   57MOL   H50638698   6.557   6.202   7.581 -0.6249 -0.2203  0.1415
   57MOL   H50738699   6.695   6.154   7.372 -0.5209 -0.0218  1.3047
   57MOL   H50838700   6.862   6.541   7.384 -1.7794  1.1381 -2.8375
   57MOL   H50938701   6.722   6.600   7.570 -2.5716 -0.4439 -0.3787
   57MOL   H51038702   6.587   6.690   7.713 -0.4687 -2.2077 -1.4495
   57MOL   H51138703   6.692   6.825   7.888  1.2859 -0.4269 -0.1536
   57MOL   C51238704   6.612   6.487   6.994  0.3369  0.1257 -0.8782
   57MOL   C51338705   6.657   6.407   7.101 -0.6429 -0.0315 -0.4017
   57MOL   C51438706   6.796   6.400   7.139  1.1276 -0.3379  0.1806
   57MOL   O51538707   6.834   6.314   7.243  0.1304  0.5886  0.1809
   57MOL   C51638708   6.892   6.457   7.052 -0.1094 -0.4575  0.3161
   57MOL   C51738709   6.847   6.540   6.949  0.4685  0.4114  0.2541
   57MOL   C51838710   6.708   6.546   6.912  0.2321  0.2875 -0.3245
   57MOL   C51938711   6.669   6.629   6.797 -0.5252  0.0550  0.0253
   57MOL   O52038712   6.752   6.711   6.751  0.0023 -0.2789 -0.2697
   57MOL   C52138713   6.531   6.617   6.743  0.2883 -0.5084 -0.2423
   57MOL   C52238714   6.506   6.552   6.621 -0.1142 -0.1486  0.3604
   57MOL   C52338715   6.382   6.536   6.573  0.3607 -1.0194  0.2006
   57MOL   C52438716   6.270   6.571   6.645  0.1170 -1.2403  0.3641
   57MOL   O52538717   6.148   6.548   6.580  0.3461 -0.0906  0.4265
   57MOL   C52638718   6.036   6.567   6.647  0.7592 -0.0457 -0.1463
   57MOL   C52738719   5.935   6.648   6.598  0.4035  0.3778 -0.4698
   57MOL   C52838720   5.815   6.671   6.684 -0.0941  1.0920 -0.2460
   57MOL   C52938721   5.802   6.597   6.801  0.3786  0.4676 -0.3963
   57MOL   C53038722   5.907   6.503   6.842  0.1273  0.3269  0.3802
   57MOL   C53138723   6.015   6.479   6.761 -0.0881  0.1586  0.3242
   57MOL   C53238724   6.287   6.639   6.773  0.4732  0.6502 -0.2742
   57MOL   C53338725   6.420   6.671   6.820  0.6892  0.3208 -0.8538
   57MOL   H53438726   6.505   6.490   6.980  0.3852  0.1018 -1.2557
   57MOL   H53538727   6.593   6.360   7.174  1.3360 -3.6842 -0.8690
   57MOL   H53638728   6.997   6.433   7.064  0.8804  1.1407 -4.2081
   57MOL   H53738729   6.917   6.596   6.889  2.0306 -0.6408  1.0561
   57MOL   H53838730   6.589   6.509   6.568  1.2135  1.8669  0.7650
   57MOL   H53938731   6.365   6.473   6.488 -0.9371 -0.2693 -0.1051
   57MOL   H54038732   5.953   6.707   6.509  1.4358  2.0141  0.7985
   57MOL   H54138733   5.734   6.730   6.642 -1.0972 -0.0078  0.1160
   57MOL   H54238734   5.883   6.445   6.930 -2.2093 -0.7086 -0.9148
   57MOL   H54338735   6.083   6.402   6.793  1.2925  1.6865  1.1138
   57MOL   H54438736   6.202   6.672   6.830 -0.7116 -1.7833 -0.5449
   57MOL   H54538737   6.438   6.721   6.914  0.3985 -3.2800  1.2232
   57MOL   C54638738   5.487   6.314   6.927 -0.8593 -0.5246  0.2283
   57MOL   C54738739   5.575   6.403   6.865 -0.3076 -0.1543 -0.3850
   57MOL   C54838740   5.623   6.511   6.944 -1.1087  0.4846  0.3857
   57MOL   O54938741   5.683   6.618   6.879 -0.0502 -0.0167  0.4881
   57MOL   C55038742   5.599   6.514   7.086  1.4346  0.1316  0.6301
   57MOL   C55138743   5.521   6.410   7.143  0.0912 -0.0018 -0.2932
   57MOL   C55238744   5.464   6.307   7.067 -0.0183 -0.4298 -0.8484
   57MOL   C55338745   5.374   6.197   7.120 -1.1975 -0.0182  0.0169
   57MOL   O55438746   5.315   6.124   7.039  0.0336 -0.4403 -0.2498
   57MOL   C55538747   5.358   6.171   7.262 -0.6817  1.0691  0.3526
   57MOL   C55638748   5.233   6.126   7.299 -0.8502  0.7067  0.0950
   57MOL   C55738749   5.206   6.074   7.425  0.0814 -0.6388 -0.2417
   57MOL   C55838750   5.310   6.067   7.518  0.1856 -0.0390 -0.4631
   57MOL   O55938751   5.291   6.004   7.639 -0.6917  0.7553 -0.6114
   57MOL   C56038752   5.304   6.081   7.751 -0.1672 -0.1331 -0.5997
   57MOL   C56138753   5.292   6.221   7.757  0.8319  0.4529  0.1529
   57MOL   C56238754   5.308   6.282   7.882 -0.4358 -0.4086  0.0415
   57MOL   C56338755   5.312   6.213   8.005  0.2751  0.2851 -0.9781
   57MOL   C56438756   5.328   6.074   7.995  0.2283  0.1241 -0.1470
   57MOL   C56538757   5.322   6.007   7.869  0.9445 -0.2962 -0.9740
   57MOL   C56638758   5.432   6.117   7.490 -0.0529 -0.1118  0.0188
   57MOL   C56738759   5.459   6.170   7.362  0.2037  0.2422 -0.2560
   57MOL   H56838760   5.449   6.238   6.860  0.1760  0.0363 -1.0113
   57MOL   H56938761   5.592   6.405   6.759  1.5371  1.6386 -0.0642
   57MOL   H57038762   5.622   6.609   7.133 -1.6906  0.5337  1.4414
   57MOL   H57138763   5.505   6.413   7.250  0.0725 -1.2370 -0.2498
   57MOL   H57238764   5.152   6.127   7.227  0.0621  1.1186 -0.9411
   57MOL   H57338765   5.108   6.035   7.445  0.3361 -1.0590  0.2001
   57MOL   H57438766   5.265   6.278   7.669  0.6133 -1.4885 -1.0714
   57MOL   H57538767   5.310   6.388   7.899 -1.9719 -0.4064  0.2493
   57MOL   H57638768   5.340   6.010   8.081 -1.3805  2.9202  2.2513
   57MOL   H57738769   5.329   5.900   7.857 -1.9138 -0.8280  1.4034
   57MOL   H57838770   5.506   6.109   7.569  0.2289 -0.2728 -0.2592
   57MOL   H57938771   5.559   6.206   7.342  0.3350  0.0180 -0.0007
   57MOL   C58038772   5.526   6.563   8.240  0.4676 -0.1164  0.5858
   57MOL   C58138773   5.422   6.467   8.234  0.3571 -0.3468 -0.1809
   57MOL   C58238774   5.437   6.353   8.149 -0.2148  0.4556  0.6763
   57MOL   O58338775   5.319   6.275   8.124 -0.4821  0.1864  0.1491
   57MOL   C58438776   5.561   6.325   8.090 -0.6884  0.8140 -0.6241
   57MOL   C58538777   5.671   6.417   8.106  0.1395  0.0139  0.1639
   57MOL   C58638778   5.653   6.537   8.178 -0.0800 -0.2571 -0.9155
   57MOL   C58738779   5.761   6.636   8.193  0.3854  1.2072 -0.8909
   57MOL   O58838780   5.773   6.693   8.300  0.1175  0.2738  0.5010
   57MOL   C58938781   5.850   6.677   8.076 -0.4996  0.3019 -0.4081
   57MOL   C59038782   5.833   6.630   7.947  0.2545 -0.2017  0.0813
   57MOL   C59138783   5.912   6.670   7.835 -0.2192  0.0006  0.3307
   57MOL   C59238784   6.023   6.757   7.857 -0.3185  0.3100 -0.6899
   57MOL   O59338785   6.114   6.778   7.761  0.4006  0.1942  0.3527
   57MOL   C59438786   6.142   6.913   7.733  0.1963  0.0434  0.0332
   57MOL   C59538787   6.042   7.016   7.730 -0.6557  0.4192  0.7525
   57MOL   C59638788   6.072   7.144   7.681  0.2625 -0.0582  0.1450
   57MOL   C59738789   6.197   7.179   7.624 -0.0957  0.4165  0.0970
   57MOL   C59838790   6.293   7.072   7.621 -0.0277 -0.6498  0.4436
   57MOL   C59938791   6.268   6.940   7.666  0.1015 -0.1158  0.2257
   57MOL   C60038792   6.046   6.806   7.989  0.7402 -0.1506  0.9451
   57MOL   C60138793   5.954   6.770   8.095 -0.7261 -0.6511 -0.3317
   57MOL   H60238794   5.508   6.655   8.295 -1.0940 -0.1402  0.1299
   57MOL   H60338795   5.323   6.490   8.270  1.3240  0.1408  2.2278
   57MOL   H60438796   5.569   6.227   8.045 -0.0603  0.2387  0.7275
   57MOL   H60538797   5.764   6.412   8.051 -1.6741  1.0924 -3.1882
   57MOL   H60638798   5.744   6.573   7.926 -1.5771  2.3795  0.5621
   57MOL   H60738799   5.889   6.639   7.734 -1.4621  1.3449  0.1871
   57MOL   H60838800   5.945   7.000   7.775 -0.8458 -0.0930  0.1745
   57MOL   H60938801   5.992   7.217   7.681  0.1355 -0.1972  0.1416
   57MOL   H61038802   6.391   7.090   7.580 -0.3635  1.0071  0.3222
   57MOL   H61138803   6.348   6.868   7.671 -0.8728 -1.3735 -1.4172
   57MOL   H61238804   6.134   6.867   8.000 -1.8929  3.7314  1.5771
   57MOL   H61338805   5.968   6.801   8.197  1.7540 -1.9081 -0.2493
   57MOL   C61438806   6.382   7.470   7.308  0.8552  0.2444 -0.2243
   57MOL   C61538807   6.349   7.430   7.436  0.0933  1.0804  0.0843
   57MOL   C61638808   6.266   7.321   7.451  0.0058 -0.0106  0.2299
   57MOL   O61738809   6.219   7.306   7.577  0.9239 -1.0359  0.1535
   57MOL   C61838810   6.233   7.237   7.341  0.6303 -0.1589 -0.2155
   57MOL   C61938811   6.295   7.263   7.215  0.0747 -0.0898  0.8290
   57MOL   C62038812   6.369   7.382   7.199 -0.1101 -0.0739 -0.3375
   57MOL   C62138813   6.430   7.404   7.069 -0.0953 -0.2886 -0.5097
   57MOL   O62238814   6.412   7.330   6.972 -0.5338 -0.2093 -0.5838
   57MOL   C62338815   6.523   7.521   7.062 -0.3196  0.7652 -0.9396
   57MOL   C62438816   6.481   7.656   7.067  0.5549  0.2746  1.3493
   57MOL   C62538817   6.571   7.761   7.034 -0.2227  0.7438  0.2356
   57MOL   C62638818   6.699   7.733   6.987 -0.1779 -0.3212  0.3762
   57MOL   O62738819   6.788   7.827   6.935 -0.1582  0.3448 -0.6603
   57MOL   C62838820   6.877   7.880   7.026  0.8887  0.1801 -0.3801
   57MOL   C62938821   6.995   7.805   7.059  0.1034 -0.2398 -0.5879
   57MOL   C63038822   7.086   7.859   7.148 -0.5119 -0.1906 -0.0876
   57MOL   C63138823   7.062   7.978   7.215  0.2628 -0.8463  0.6642
   57MOL   C63238824   6.939   8.045   7.191  0.2855 -0.0714  0.6712
   57MOL   C63338825   6.855   8.006   7.086 -0.5422 -0.1278  0.0409
   57MOL   C63438826   6.739   7.598   6.988 -1.3970  0.2311  0.2188
   57MOL   C63538827   6.653   7.496   7.024 -0.1487 -0.5413  0.2993
   57MOL   H63638828   6.421   7.570   7.303  1.4769  0.0313  0.3525
   57MOL   H63738829   6.359   7.500   7.518  0.1533 -0.4856  1.4265
   57MOL   H63838830   6.171   7.150   7.356  0.5604  0.0572  0.8175
   57MOL   H63938831   6.297   7.187   7.137  0.1482 -0.2578  0.9944
   57MOL   H64038832   6.378   7.668   7.095  0.1833  0.2466  0.0399
   57MOL   H64138833   6.537   7.863   7.039 -2.1343  0.3248 -3.1323
   57MOL   H64238834   7.012   7.708   7.016 -0.8594 -1.0963  0.9297
   57MOL   H64338835   7.176   7.802   7.166  0.0272  0.4148 -0.8035
   57MOL   H64438836   6.919   8.134   7.248 -1.4846  0.0946 -0.1616
   57MOL   H64538837   6.760   8.055   7.068  0.2759  0.8369 -1.7508
   57MOL   H64638838   6.844   7.579   6.970 -1.7638 -0.4207 -1.2401
   57MOL   H64738839   6.697   7.398   7.008 -1.9032 -1.1713 -0.7934
   57MOL   C64838840   7.433   8.163   7.101 -0.5523 -0.7459  0.3748
   57MOL   C64938841   7.305   8.131   7.142 -0.0857  0.0316 -0.2568
   57MOL   C65038842   7.279   8.058   7.262  0.7820  0.2830  0.2491
   57MOL   O65138843   7.153   8.025   7.304 -0.4757 -0.4863 -0.5560
   57MOL   C65238844   7.393   8.026   7.347  0.3094 -0.3609  0.2963
   57MOL   C65338845   7.525   8.063   7.304  1.1003  0.6487  0.4122
   57MOL   C65438846   7.551   8.123   7.178  0.1976 -0.3761  0.3368
   57MOL   C65538847   7.692   8.157   7.140  0.0475 -1.1050 -0.8005
   57MOL   O65638848   7.710   8.252   7.066 -0.2035  0.1172 -0.0627
   57MOL   C65738849   7.804   8.067   7.186 -0.5288  0.0551  0.4188
   57MOL   C65838850   7.798   7.932   7.150 -0.1135 -0.4381  0.0343
   57MOL   C65938851   7.905   7.844   7.171  0.1726 -0.4247 -0.1145
   57MOL   C66038852   8.021   7.892   7.239  1.1313  0.0799  0.4131
   57MOL   O66138853   8.123   7.811   7.262  0.0749 -0.4328  0.0176
   57MOL   C66238854   8.199   7.771   7.153  0.4340  0.9258  0.2070
   57MOL   C66338855   8.194   7.637   7.092  0.1231 -0.2413 -0.5541
   57MOL   C66438856   8.272   7.604   6.980 -0.0981 -0.5178 -0.0908
   57MOL   C66538857   0.045   7.702   6.923 -0.6898  0.2422  0.1677
   57MOL   C66638858   0.049   7.833   6.978 -0.1739  0.5968  0.1012
   57MOL   C66738859   8.278   7.869   7.090 -0.3708  0.4006 -0.5907
   57MOL   C66838860   8.033   8.026   7.268  0.0342 -0.8146 -0.8149
   57MOL   C66938861   7.927   8.117   7.239 -0.5506  0.2600  0.2063
   57MOL   H67038862   7.452   8.229   7.017  1.4169  0.7231  1.9424
   57MOL   H67138863   7.222   8.168   7.084 -1.2708 -2.3003 -0.0923
   57MOL   H67238864   7.377   7.978   7.442 -1.3951 -1.8024 -0.6822
   57MOL   H67338865   7.607   8.025   7.364  2.5347  1.0555 -1.2569
   57MOL   H67438866   7.714   7.897   7.091  1.3785 -1.5718 -1.4411
   57MOL   H67538867   7.902   7.740   7.143  1.5709 -0.3868 -0.4572
   57MOL   H67638868   8.137   7.556   7.134  1.9029 -0.2870  1.8841
   57MOL   H67738869   8.278   7.500   6.953 -3.1032 -0.4247 -1.2546
   57MOL   H67838870   0.121   7.902   6.937 -0.9722  1.4363  0.1030
   57MOL   H67938871   8.282   7.968   7.133 -0.9061 -0.0919  0.6233
   57MOL   H68038872   8.121   8.055   7.324  0.0776  0.8572 -1.7053
   57MOL   H68138873   7.935   8.224   7.255  0.2026  0.2239  0.1136
   57MOL   H68238874   0.103   7.683   6.835 -1.5465  0.6058 -0.4854
   58MOL     C138875   6.688   3.817   7.096  0.8492  0.5153  0.2040
   58MOL     C238876   6.609   3.735   7.175 -0.1242  0.0644 -0.7415
   58MOL     C338877   6.506   3.790   7.256 -0.4643 -0.4074 -0.4275
   58MOL     O438878   6.434   3.711   7.344 -0.3425 -0.0140 -0.0543
   58MOL     C538879   6.476   3.927   7.238 -0.4062 -0.4219 -0.1801
   58MOL     C638880   6.546   4.007   7.141 -0.3967 -0.6380  0.0736
   58MOL     C738881   6.658   3.952   7.076 -0.6533 -0.8027 -0.3879
   58MOL     C838882   6.744   4.028   6.983  0.6363 -0.6551  0.2504
   58MOL     O938883   6.799   3.968   6.892 -0.2491  0.4181  0.2131
   58MOL    C1038884   6.773   4.172   7.013 -0.0924  0.1750  1.1528
   58MOL    C1138885   6.791   4.219   7.143 -0.1704  0.1352  0.1855
   58MOL    C1238886   6.815   4.356   7.170  0.1951 -0.0132 -0.1404
   58MOL    C1338887   6.832   4.445   7.067 -0.0225  1.1330  0.4878
   58MOL    O1438888   6.857   4.577   7.096 -0.2542  0.5082 -0.1132
   58MOL    C1538889   6.830   4.671   7.004 -0.1638  0.5062 -0.2991
   58MOL    C1638890   6.925   4.702   6.906 -0.3789  0.1247 -0.3222
   58MOL    C1738891   6.895   4.800   6.811 -0.2998  0.3007 -0.2484
   58MOL    C1838892   6.776   4.877   6.816 -0.2721  0.0014  0.1928
   58MOL    C1938893   6.681   4.836   6.906  0.1497 -0.3105  0.4097
   58MOL    C2038894   6.709   4.742   7.006 -0.3696  0.2352  0.5065
   58MOL    C2138895   6.809   4.399   6.935 -0.2468  0.3350  0.5160
   58MOL    C2238896   6.783   4.264   6.911  0.7404  0.9533 -0.2255
   58MOL    H2338897   6.759   3.748   7.053 -0.5530 -0.8538  0.0441
   58MOL    H2438898   6.634   3.630   7.189  1.8166  0.4468 -1.2317
   58MOL    H2538899   6.400   3.969   7.302  0.2299  1.0645 -0.3739
   58MOL    H2638900   6.508   4.108   7.135 -0.9613 -0.9190 -1.0438
   58MOL    H2738901   6.777   4.157   7.229  0.8593 -0.0695  0.2133
   58MOL    H2838902   6.843   4.380   7.271 -0.4271 -1.6860  0.4574
   58MOL    H2938903   7.018   4.647   6.898 -0.5908 -0.6473  2.2523
   58MOL    H3038904   6.970   4.827   6.739 -2.0689  0.5958 -2.0160
   58MOL    H3138905   6.575   4.857   6.898  0.5338  0.3030 -4.5294
   58MOL    H3238906   6.632   4.715   7.077  1.4082 -3.9678  0.9786
   58MOL    H3338907   6.837   4.454   6.846  0.6112  1.0431  1.2130
   58MOL    H3438908   6.767   4.249   6.805 -0.5239  1.8972 -0.1741
   58MOL    H3538909   6.456   3.620   7.338 -0.5414  0.0335 -1.8981
   58MOL    C3638910   6.760   5.298   6.948  0.2813  0.1660 -0.4123
   58MOL    C3738911   6.805   5.180   6.885 -0.5609  0.3502 -0.1677
   58MOL    C3838912   6.723   5.110   6.792 -0.7076  0.2503 -0.1431
   58MOL    O3938913   6.758   4.988   6.737  0.1272  0.1454  0.4535
   58MOL    C4038914   6.590   5.158   6.771  0.4941  0.2183 -0.0079
   58MOL    C4138915   6.548   5.272   6.844  0.5171 -0.2430 -0.0435
   58MOL    C4238916   6.629   5.340   6.939 -0.0535  0.4664  0.2845
   58MOL    C4338917   6.592   5.464   7.011  0.2490 -0.4105 -0.2316
   58MOL    O4438918   6.665   5.514   7.097  0.4774  0.4064 -0.1909
   58MOL    C4538919   6.459   5.514   6.967  0.0823  0.0605 -0.0215
   58MOL    C4638920   6.355   5.525   7.057  0.7294  0.1793 -0.3970
   58MOL    C4738921   6.236   5.573   7.015  0.3072 -0.0445  0.1491
   58MOL    C4838922   6.211   5.617   6.882  0.3405  0.2399  0.3873
   58MOL    O4938923   6.079   5.658   6.849  0.1248 -0.5053 -0.2520
   58MOL    C5038924   6.070   5.781   6.797  0.7537  0.2853 -0.2690
   58MOL    C5138925   6.006   5.797   6.678  0.0066  0.4674  0.4660
   58MOL    C5238926   5.992   5.924   6.625 -0.0218 -0.4106 -0.2557
   58MOL    C5338927   6.051   6.031   6.695  0.4211 -0.7893 -0.0948
   58MOL    C5438928   6.110   6.014   6.822  0.2448 -0.0568  0.2022
   58MOL    C5538929   6.121   5.885   6.876 -0.3387 -0.5780  0.1521
   58MOL    C5638930   6.323   5.622   6.793  0.2681  0.1775 -0.7439
   58MOL    C5738931   6.446   5.572   6.840  0.3194  0.1939 -0.2304
   58MOL    H5838932   6.828   5.361   7.004 -2.2426  1.8140  0.8720
   58MOL    H5938933   6.910   5.156   6.895 -0.1259  1.4297 -1.7971
   58MOL    H6038934   6.512   5.115   6.709  0.7754  1.3736 -1.1977
   58MOL    H6138935   6.443   5.297   6.835  1.0679  2.5681  0.7469
   58MOL    H6238936   6.382   5.500   7.158  0.7008  0.4793 -0.3155
   58MOL    H6338937   6.152   5.581   7.083  0.8373  0.8017  0.7075
   58MOL    H6438938   5.975   5.708   6.625 -1.6499 -0.0719  2.3044
   58MOL    H6538939   5.941   5.950   6.534  0.0323  1.6640  0.2699
   58MOL    H6638940   6.137   6.108   6.868 -0.9968  1.6476 -2.4158
   58MOL    H6738941   6.173   5.874   6.970 -1.2161 -1.0584  0.5801
   58MOL    H6838942   6.318   5.655   6.690 -0.6166 -2.5115 -1.6186
   58MOL    H6938943   6.531   5.581   6.773  0.4185  0.5474 -0.0542
   58MOL    C7038944   6.217   6.286   6.329  0.2568  0.8172  0.9071
   58MOL    C7138945   6.118   6.258   6.429 -0.6088 -0.5932  0.3339
   58MOL    C7238946   6.148   6.168   6.530  0.6503  0.1933  0.1451
   58MOL    O7338947   6.060   6.151   6.635  0.5493  0.6006  0.6676
   58MOL    C7438948   6.275   6.095   6.530  0.4169  0.2450  0.2051
   58MOL    C7538949   6.369   6.130   6.434 -0.2258 -0.1015  1.1349
   58MOL    C7638950   6.343   6.222   6.332 -0.5946 -0.8592 -0.1202
   58MOL    C7738951   6.445   6.260   6.232 -1.0625 -0.4508 -0.5835
   58MOL    O7838952   6.458   6.377   6.197 -0.0413 -0.6259  0.5213
   58MOL    C7938953   6.549   6.164   6.184 -0.3906  0.1971 -0.0895
   58MOL    C8038954   6.667   6.216   6.126 -1.2773  0.3690  0.4324
   58MOL    C8138955   6.755   6.126   6.054  0.2231 -0.5620 -0.6795
   58MOL    C8238956   6.723   5.991   6.043  0.0736 -0.5155 -0.0514
   58MOL    O8338957   6.807   5.893   5.987 -0.0699 -0.6023 -0.4839
   58MOL    C8438958   6.789   5.858   5.858  0.0960 -0.6148 -0.0351
   58MOL    C8538959   6.716   5.742   5.817 -0.0194 -0.1279  0.4827
   58MOL    C8638960   6.708   5.708   5.679  1.0300  0.0985 -0.2708
   58MOL    C8738961   6.764   5.799   5.586 -0.2298  0.3308  0.5059
   58MOL    C8838962   6.842   5.910   5.624  0.0833  0.0973  0.0626
   58MOL    C8938963   6.852   5.934   5.759 -0.7777  0.5641  0.2588
   58MOL    C9038964   6.605   5.942   6.109  0.0276  0.9234 -0.3413
   58MOL    C9138965   6.517   6.030   6.171 -0.2316 -0.1223  0.1508
   58MOL    H9238966   6.180   6.349   6.249 -2.5887 -0.8995  0.8062
   58MOL    H9338967   6.021   6.305   6.422  0.3410  1.2258 -1.1699
   58MOL    H9438968   6.290   6.024   6.609  0.4152 -1.0465 -0.9414
   58MOL    H9538969   6.466   6.082   6.439 -0.9869 -1.7934  0.0929
   58MOL    H9638970   6.690   6.322   6.133 -0.1519  0.1346  0.3782
   58MOL    H9738971   6.844   6.172   6.014  0.7862  0.3504  1.5734
   58MOL    H9838972   6.677   5.673   5.891  3.0829 -1.8168  0.6234
   58MOL    H9938973   6.638   5.629   5.660 -0.7032  1.4982  0.1841
   58MOL   H10038974   6.891   5.978   5.556 -1.7459  1.0431 -0.3551
   58MOL   H10138975   6.904   6.022   5.793  0.6505 -0.2338  0.1822
   58MOL   H10238976   6.571   5.842   6.087 -0.1235  0.8357  0.2829
   58MOL   H10338977   6.419   5.989   6.193 -0.8560  0.1807 -1.9489
   58MOL   C10438978   6.415   5.634   5.369  0.1693  0.1483  0.0477
   58MOL   C10538979   6.544   5.646   5.415  0.4432  0.3421  0.5504
   58MOL   C10638980   6.619   5.765   5.408  0.6261  0.6539 -0.3660
   58MOL   O10738981   6.750   5.770   5.453  0.1167  0.4004  0.1156
   58MOL   C10838982   6.552   5.880   5.365 -0.2921 -0.0435  0.2345
   58MOL   C10938983   6.424   5.875   5.318  0.6095  0.2021  0.5281
   58MOL   C11038984   6.352   5.752   5.316  0.7449  0.2371 -0.4245
   58MOL   C11138985   6.209   5.751   5.263 -0.0843 -0.6257  0.7437
   58MOL   O11238986   6.141   5.849   5.291  0.2341  0.3918  0.2802
   58MOL   C11338987   6.148   5.630   5.196  0.7795  0.2878 -0.3855
   58MOL   C11438988   6.219   5.523   5.144  0.6191  0.3023  0.2735
   58MOL   C11538989   6.156   5.408   5.088 -0.3138 -0.0249  0.0815
   58MOL   C11638990   6.015   5.402   5.088 -0.1560 -0.2294  0.0280
   58MOL   O11738991   5.953   5.294   5.034 -0.0867  0.1199  0.4784
   58MOL   C11838992   5.866   5.316   4.929 -0.0383  0.7505 -0.8363
   58MOL   C11938993   5.921   5.373   4.814 -0.4654  0.0401 -0.3738
   58MOL   C12038994   5.831   5.404   4.712 -0.5697 -0.3217 -1.0034
   58MOL   C12138995   5.698   5.367   4.714 -0.2379 -0.2558  0.1324
   58MOL   C12238996   5.649   5.303   4.825 -0.2740 -0.4677  0.1788
   58MOL   C12338997   5.734   5.276   4.934  0.6122  0.1566 -0.0650
   58MOL   C12438998   5.937   5.508   5.137  0.5887 -0.0511 -0.0976
   58MOL   C12538999   5.999   5.625   5.193 -1.0294  0.3445 -0.4313
   58MOL   H12639000   6.371   5.536   5.367 -0.0380  0.2080  1.3052
   58MOL   H12739001   6.587   5.550   5.439 -0.2552 -0.3066 -0.7137
   58MOL   H12839002   6.619   5.964   5.367 -0.7390  0.3177  0.0573
   58MOL   H12939003   6.386   5.967   5.276 -1.0842 -0.4315  0.6340
   58MOL   H13039004   6.326   5.520   5.156  0.4529 -1.2356  1.5914
   58MOL   H13139005   6.208   5.328   5.037  0.0331 -0.5620  1.2538
   58MOL   H13239006   6.026   5.397   4.805 -0.0628 -1.8458 -0.8146
   58MOL   H13339007   5.862   5.439   4.615 -1.0298  0.5987 -0.8174
   58MOL   H13439008   5.551   5.258   4.833  0.2160 -1.6258 -0.0992
   58MOL   H13539009   5.691   5.218   5.015 -0.5634 -1.7912 -2.0459
   58MOL   H13639010   5.830   5.505   5.127  0.6189  1.3135 -0.9206
   58MOL   H13739011   5.943   5.709   5.232 -3.2101 -2.1689  2.0551
   58MOL   C13839012   5.415   5.688   4.631  0.0818  0.3801 -0.1466
   58MOL   C13939013   5.466   5.554   4.648  0.0804 -0.1124  1.0028
   58MOL   C14039014   5.581   5.516   4.578 -0.4836 -0.0545  0.3693
   58MOL   O14139015   5.622   5.384   4.597 -0.1184 -0.2362  0.3188
   58MOL   C14239016   5.649   5.598   4.485 -0.7565 -0.1029 -0.2493
   58MOL   C14339017   5.603   5.728   4.479  0.1916 -0.4427  0.5606
   58MOL   C14439018   5.483   5.772   4.542 -0.0200 -0.7667 -0.2087
   58MOL   C14539019   5.449   5.920   4.524  0.4008  0.6654 -0.4705
   58MOL   O14639020   5.543   6.002   4.531  0.2090  0.4714 -0.1556
   58MOL   C14739021   5.312   5.957   4.490  0.0931 -0.7262  0.3295
   58MOL   C14839022   5.216   5.861   4.459 -0.6900  0.5605 -0.1864
   58MOL   C14939023   5.082   5.902   4.440  0.3005  0.3747  0.2086
   58MOL   C15039024   5.042   6.037   4.445 -0.4831 -0.1521 -0.6580
   58MOL   O15139025   4.920   6.087   4.420  0.2966  0.0336  0.3906
   58MOL   C15239026   4.802   6.011   4.411 -0.4135  0.3985 -0.5465
   58MOL   C15339027   4.772   5.913   4.310 -0.0396 -0.2799 -0.4802
   58MOL   C15439028   4.648   5.834   4.314 -0.6209 -0.5009 -0.1854
   58MOL   C15539029   4.550   5.872   4.400  0.3085 -0.5671  1.1875
   58MOL   C15639030   4.576   5.974   4.491  0.0609 -0.2099 -0.3985
   58MOL   C15739031   4.698   6.040   4.504  0.3078  0.0434 -0.4642
   58MOL   C15839032   5.142   6.134   4.466 -0.2133 -0.2075 -0.3995
   58MOL   C15939033   5.276   6.095   4.489  0.8279 -0.1077 -0.2123
   58MOL   H16039034   5.340   5.726   4.699 -0.5711  1.3222 -1.3758
   58MOL   H16139035   5.429   5.497   4.732 -2.1275 -1.0571 -0.5555
   58MOL   H16239036   5.726   5.564   4.418 -2.5547 -0.2893 -2.2851
   58MOL   H16339037   5.641   5.800   4.408  1.1333 -0.6373  0.8568
   58MOL   H16439038   5.236   5.755   4.460 -0.8920  0.5225 -0.0701
   58MOL   H16539039   5.006   5.826   4.434 -1.4072  1.9225  1.6943
   58MOL   H16639040   4.840   5.895   4.228  1.9841 -1.7246  1.4554
   58MOL   H16739041   4.637   5.753   4.243 -0.9495 -0.1653 -0.5175
   58MOL   H16839042   4.502   6.002   4.564  0.2057  0.8471 -0.6368
   58MOL   H16939043   4.704   6.109   4.587  1.0712 -2.7798  1.9047
   58MOL   H17039044   5.108   6.237   4.462  0.5284  0.0610  0.0666
   58MOL   H17139045   5.345   6.173   4.517  0.1410  0.2384  0.5428
   58MOL   C17239046   4.140   5.932   4.580  0.7915  0.2745  0.2780
   58MOL   C17339047   4.264   5.862   4.563 -0.6502 -0.2478 -0.5401
   58MOL   C17439048   4.312   5.864   4.429  0.9036  0.1260 -0.0819
   58MOL   O17539049   4.435   5.800   4.401  0.0466  0.2504 -0.6687
   58MOL   C17639050   4.239   5.928   4.322 -0.2535 -0.3338 -0.6141
   58MOL   C17739051   4.127   6.004   4.348  0.7608 -0.3901 -0.8602
   58MOL   C17839052   4.073   6.009   4.482 -0.4581  0.5204  0.5752
   58MOL   C17939053   3.956   6.097   4.507 -0.0571 -0.9091 -0.2198
   58MOL   O18039054   3.930   6.135   4.621  0.3633  0.0588 -0.3814
   58MOL   C18139055   3.865   6.125   4.402  0.0780  1.0433  0.8820
   58MOL   C18239056   3.819   6.252   4.381 -0.0882 -0.2006  0.4291
   58MOL   C18339057   3.718   6.276   4.283 -0.1616  0.4553  0.4435
   58MOL   C18439058   3.668   6.173   4.202  0.1103  0.3939  0.0701
   58MOL   O18539059   3.588   6.204   4.096 -0.6473 -0.0100  0.1573
   58MOL   C18639060   3.455   6.226   4.126  0.3038  1.5695 -0.7376
   58MOL   C18739061   3.365   6.125   4.162 -0.5490 -0.3581 -0.1118
   58MOL   C18839062   3.239   6.158   4.208 -0.3372  0.0363 -0.7564
   58MOL   C18939063   3.196   6.291   4.218  0.0656  0.6688 -0.1590
   58MOL   C19039064   3.280   6.389   4.171  1.1519  0.8917  0.1519
   58MOL   C19139065   3.408   6.356   4.123  0.0404  0.6146  0.4724
   58MOL   C19239066   3.709   6.039   4.227 -0.0071 -0.4598 -0.6233
   58MOL   C19339067   3.808   6.012   4.332 -0.0127  0.1620 -0.4856
   58MOL   H19439068   4.097   5.932   4.678  0.9399 -0.5512  0.3458
   58MOL   H19539069   4.317   5.814   4.644 -0.8621 -1.2508 -0.9895
   58MOL   H19639070   4.281   5.940   4.223 -0.1187  3.1812 -0.2193
   58MOL   H19739071   4.081   6.057   4.265  1.4679  1.7625  0.0738
   58MOL   H19839072   3.862   6.337   4.432 -0.1035  0.7899 -1.1686
   58MOL   H19939073   3.693   6.379   4.263  0.8852  0.3953 -1.3251
   58MOL   H20039074   3.391   6.021   4.152  1.5338  0.1344  0.0148
   58MOL   H20139075   3.181   6.071   4.238 -0.1438  0.2297  0.2151
   58MOL   H20239076   3.250   6.492   4.165 -1.5925  0.1439  0.3300
   58MOL   H20339077   3.473   6.436   4.093  2.5371 -0.4472  2.8750
   58MOL   H20439078   3.675   5.965   4.156  0.5044 -2.7140  1.4148
   58MOL   H20539079   3.830   5.908   4.351 -0.6401  0.0270 -0.4682
   58MOL   C20639080   2.806   6.275   4.040 -1.1545 -0.3138  0.4460
   58MOL   C20739081   2.917   6.325   4.113  0.9018  0.1151  0.1965
   58MOL   C20839082   2.968   6.265   4.225 -0.1267  0.2003 -0.1999
   58MOL   O20939083   3.075   6.315   4.285 -0.5963  0.0757  0.2025
   58MOL   C21039084   2.902   6.149   4.273 -0.8536  0.4225 -0.0726
   58MOL   C21139085   2.787   6.095   4.205  0.4200 -0.5176 -0.5310
   58MOL   C21239086   2.735   6.161   4.090  0.5206 -0.0272  0.4367
   58MOL   C21339087   2.624   6.105   4.006 -0.2235  0.6604 -0.0606
   58MOL   O21439088   2.596   5.988   4.030  0.2426  0.2730  0.3862
   58MOL   C21539089   2.551   6.190   3.909  0.4954 -0.8070  0.3093
   58MOL   C21639090   2.504   6.122   3.798 -0.4697 -0.4332 -1.1750
   58MOL   C21739091   2.436   6.196   3.701 -0.0508 -0.4179  0.8652
   58MOL   C21839092   2.406   6.338   3.718  0.6450 -0.3457 -0.2526
   58MOL   O21939093   2.333   6.408   3.622 -0.0796 -0.1447 -0.3006
   58MOL   C22039094   2.320   6.365   3.490 -0.0919 -0.1863  0.4852
   58MOL   C22139095   2.404   6.435   3.399  0.7470 -0.3216 -1.2204
   58MOL   C22239096   2.405   6.397   3.265  0.0463 -0.2468  0.1526
   58MOL   C22339097   2.330   6.275   3.222 -0.6462 -0.5377  0.4754
   58MOL   C22439098   2.243   6.213   3.313  0.3615 -0.3968 -0.6853
   58MOL   C22539099   2.230   6.264   3.446  0.2223  0.2737  0.2764
   58MOL   C22639100   2.444   6.400   3.836 -0.3663 -0.3704 -0.0542
   58MOL   C22739101   2.512   6.328   3.930 -0.2474  0.6356  0.9085
   58MOL   H22839102   2.781   6.316   3.944 -0.3190 -1.6391 -0.3542
   58MOL   H22939103   2.963   6.417   4.082 -0.5565  0.6719 -0.3728
   58MOL   H23039104   2.939   6.103   4.363 -2.8912 -0.4733  0.3313
   58MOL   H23139105   2.734   6.003   4.228  1.8666 -1.5436 -1.2498
   58MOL   H23239106   2.534   6.020   3.777  0.4593 -0.3674 -0.2143
   58MOL   H23339107   2.393   6.152   3.613  1.9025  1.1038 -0.9310
   58MOL   H23439108   2.474   6.505   3.443 -0.7921  1.2135 -1.1343
   58MOL   H23539109   2.473   6.441   3.195  0.0226  1.3869  1.1104
   58MOL   H23639110   2.172   6.139   3.280 -1.3841 -0.8747  3.7323
   58MOL   H23739111   2.175   6.209   3.521  0.2605  0.1648  0.2243
   58MOL   H23839112   2.418   6.503   3.851  0.9838 -0.1587  0.9130
   58MOL   H23939113   2.544   6.378   4.020 -1.9690  0.3543  1.6973
   58MOL   C24039114   2.527   6.333   2.798 -0.2471 -0.0337  0.2194
   58MOL   C24139115   2.420   6.307   2.889 -0.0446  0.2324 -0.3016
   58MOL   C24239116   2.447   6.256   3.019  0.5541 -0.3782  0.0590
   58MOL   O24339117   2.334   6.224   3.094  0.4313  0.3688 -0.0584
   58MOL   C24439118   2.585   6.228   3.053  0.4639  0.8204  0.1495
   58MOL   C24539119   2.690   6.253   2.958 -0.3540 -0.5315  0.0823
   58MOL   C24639120   2.663   6.302   2.832  0.8040  0.0251 -0.1883
   58MOL   C24739121   2.763   6.328   2.737  0.2582 -0.5306  1.0538
   58MOL   O24839122   2.866   6.385   2.770  0.5186 -0.1320 -0.0370
   58MOL   C24939123   2.738   6.289   2.588 -0.4111 -0.4579  0.4560
   58MOL   C25039124   2.832   6.327   2.490  0.3822 -0.3204 -0.4258
   58MOL   C25139125   2.817   6.285   2.356 -0.1365  0.1656  0.2138
   58MOL   C25239126   2.706   6.212   2.311 -0.9825  0.7501 -0.4567
   58MOL   O25339127   2.695   6.177   2.180 -0.2139  0.0431  0.0251
   58MOL   C25439128   2.643   6.271   2.094  0.1390 -0.9663 -0.7706
   58MOL   C25539129   2.643   6.244   1.956  0.0447 -0.3968  0.1187
   58MOL   C25639130   2.598   6.332   1.858  0.4807 -1.1720  0.5379
   58MOL   C25739131   2.543   6.459   1.894  0.0379  0.2328 -0.0520
   58MOL   C25839132   2.545   6.487   2.035  0.4739  0.6798  0.4612
   58MOL   C25939133   2.596   6.398   2.134 -1.0772 -0.2549 -0.3641
   58MOL   C26039134   2.620   6.166   2.412  0.8728  0.1646  0.4688
   58MOL   C26139135   2.637   6.199   2.547  0.1831  0.2071  0.4943
   58MOL   H26239136   2.506   6.371   2.699  1.8563 -1.2579 -0.7327
   58MOL   H26339137   2.316   6.327   2.866 -0.0430 -1.7705 -2.1519
   58MOL   H26439138   2.612   6.196   3.152  1.7660  0.5123 -0.3076
   58MOL   H26539139   2.790   6.229   2.990 -0.4310 -1.2250 -0.1859
   58MOL   H26639140   2.916   6.390   2.514  1.1791 -1.9869  1.2663
   58MOL   H26739141   2.896   6.315   2.288  2.8861 -0.6566  3.2192
   58MOL   H26839142   2.678   6.149   1.917  1.7408  0.2415  0.0293
   58MOL   H26939143   2.612   6.304   1.755  0.5580 -1.0338  0.5105
   58MOL   H27039144   2.501   6.582   2.061  0.3534  0.5529  0.7265
   58MOL   H27139145   2.593   6.427   2.238  2.3924 -0.8061 -0.0441
   58MOL   H27239146   2.548   6.092   2.380 -0.2210  1.8136 -0.9997
   58MOL   H27339147   2.574   6.152   2.620  0.4432 -0.4346  0.3089
   58MOL   C27439148   2.699   6.785   1.575  0.0682  0.2276 -0.6404
   58MOL   C27539149   2.590   6.715   1.628  0.0834  0.2679 -0.6303
   58MOL   C27639150   2.615   6.639   1.749  0.0321  0.1818  0.6026
   58MOL   O27739151   2.515   6.556   1.796 -0.5737 -0.0250  0.3642
   58MOL   C27839152   2.742   6.646   1.814  0.3299 -0.3957  0.1951
   58MOL   C27939153   2.843   6.725   1.761  0.4218 -0.0991  1.0991
   58MOL   C28039154   2.826   6.788   1.635  0.6315  0.0720 -0.0802
   58MOL   C28139155   2.931   6.870   1.578  0.0840 -0.0631 -0.3117
   58MOL   O28239156   2.910   6.988   1.546 -0.0813 -0.4404 -0.0491
   58MOL   C28339157   3.064   6.818   1.557  0.0358  0.1497  0.4398
   58MOL   C28439158   3.096   6.679   1.569 -0.4813 -0.1233 -0.3007
   58MOL   C28539159   3.218   6.617   1.541 -0.1238 -0.6538  0.2461
   58MOL   C28639160   3.325   6.696   1.494 -0.0830  0.0442 -0.1605
   58MOL   O28739161   3.448   6.640   1.464  0.0995 -0.3774 -0.3621
   58MOL   C28839162   3.510   6.559   1.553  0.3425 -0.0609  0.3943
   58MOL   C28939163   3.548   6.597   1.682 -0.5011 -0.6411 -0.4782
   58MOL   C29039164   3.596   6.508   1.778  0.3252  0.1552 -0.7296
   58MOL   C29139165   3.621   6.374   1.744  0.5683  0.4389  0.4346
   58MOL   C29239166   3.585   6.335   1.620  0.3902 -0.8304 -0.9785
   58MOL   C29339167   3.536   6.422   1.523  0.0474 -0.4288  0.1523
   58MOL   C29439168   3.299   6.838   1.477  0.4458 -0.4437 -0.1721
   58MOL   C29539169   3.172   6.894   1.498 -0.1697 -0.5667 -1.1120
   58MOL   H29639170   2.687   6.831   1.478 -1.0540  0.4696 -0.3902
   58MOL   H29739171   2.497   6.725   1.574  0.0014 -1.3813 -0.8414
   58MOL   H29839172   2.765   6.595   1.907 -1.8264  1.2886  1.7015
   58MOL   H29939173   2.938   6.733   1.810 -0.2092 -2.9396  2.9005
   58MOL   H30039174   3.022   6.609   1.605  0.7438 -1.8628 -1.0980
   58MOL   H30139175   3.233   6.510   1.552 -0.5362 -0.8574 -1.0840
   58MOL   H30239176   3.545   6.696   1.726  0.0363 -1.5248  1.6445
   58MOL   H30339177   3.624   6.538   1.878  1.0336  0.5298 -1.0336
   58MOL   H30439178   3.589   6.230   1.592 -0.1695 -0.7204 -1.4917
   58MOL   H30539179   3.509   6.372   1.431 -0.0346 -1.0811  0.5254
   58MOL   H30639180   3.376   6.912   1.461  1.4003 -1.1461  1.0582
   58MOL   H30739181   3.156   6.997   1.471  0.8018 -0.2343 -0.4414
   58MOL   C30839182   4.030   6.443   1.872 -0.5708  0.0090 -0.6941
   58MOL   C30939183   3.891   6.422   1.889  0.2774  0.2392  0.2714
   58MOL   C31039184   3.831   6.312   1.822  0.2656 -0.5465 -0.1999
   58MOL   O31139185   3.693   6.292   1.829  0.1965 -0.2296 -0.2068
   58MOL   C31239186   3.908   6.222   1.742  0.9193 -0.6079 -0.4796
   58MOL   C31339187   4.044   6.243   1.721  0.8691 -0.3673 -0.4535
   58MOL   C31439188   4.101   6.365   1.776 -0.8133 -1.0881  0.1688
   58MOL   C31539189   4.232   6.413   1.723  0.0946  0.6303  0.6911
   58MOL   O31639190   4.341   6.379   1.773 -0.2149 -0.5129 -0.4856
   58MOL   C31739191   4.222   6.529   1.630  0.3286 -0.6911 -0.4145
   58MOL   C31839192   4.340   6.583   1.576 -0.4157  0.0919 -0.4420
   58MOL   C31939193   4.337   6.700   1.499 -0.4186  0.9112  0.8695
   58MOL   C32039194   4.214   6.755   1.456 -0.4160  0.6009  0.1069
   58MOL   O32139195   4.213   6.865   1.370  0.3018  0.2369  0.4612
   58MOL   C32239196   4.287   6.969   1.405 -0.2962  0.1123  0.6373
   58MOL   C32339197   4.259   7.022   1.529  0.5229  0.6794 -0.2141
   58MOL   C32439198   4.322   7.143   1.568 -0.3873  0.1914 -0.1363
   58MOL   C32539199   4.414   7.210   1.480  0.2045  0.6831  0.0937
   58MOL   C32639200   4.451   7.147   1.363 -0.4404  0.2909  0.6465
   58MOL   C32739201   4.382   7.032   1.321 -0.2490 -0.2345 -0.9393
   58MOL   C32839202   4.094   6.697   1.496  0.0785 -0.2135  0.4528
   58MOL   C32939203   4.097   6.586   1.584  0.2507 -0.0573  0.3374
   58MOL   H33039204   4.077   6.518   1.935 -1.5855  0.8343 -0.8940
   58MOL   H33139205   3.827   6.478   1.956  0.4723 -1.0451  1.5450
   58MOL   H33239206   3.858   6.144   1.687 -0.1135  0.4621 -1.0750
   58MOL   H33339207   4.104   6.182   1.655  3.0839  0.0322  1.1197
   58MOL   H33439208   4.436   6.541   1.603 -0.3131  0.8627  0.4101
   58MOL   H33539209   4.431   6.745   1.472 -0.0069  0.6025  1.7632
   58MOL   H33639210   4.187   6.974   1.593  1.2143  0.3796  0.3428
   58MOL   H33739211   4.302   7.199   1.658 -1.0935  1.5216 -1.1050
   58MOL   H33839212   4.520   7.181   1.287  2.2322 -2.1822  1.8318
   58MOL   H33939213   4.389   6.987   1.224 -0.2557 -1.3882 -0.4062
   58MOL   H34039214   3.995   6.719   1.458  0.4104  0.1110 -0.2415
   58MOL   H34139215   4.005   6.535   1.606  0.7770 -0.9121  0.5800
   58MOL   C34239216   4.413   7.673   1.443  0.2742 -0.3266 -0.0934
   58MOL   C34339217   4.468   7.544   1.442  0.2160 -0.1993  0.2693
   58MOL   C34439218   4.420   7.443   1.525  0.6700  0.1711  0.6667
   58MOL   O34539219   4.486   7.323   1.514 -0.5258  1.0199 -0.0762
   58MOL   C34639220   4.310   7.473   1.607  0.1389 -0.0261  1.2310
   58MOL   C34739221   4.249   7.600   1.610  0.6615  0.1563  0.1081
   58MOL   C34839222   4.298   7.698   1.525  0.2437  0.5680 -0.1924
   58MOL   C34939223   4.239   7.837   1.524  0.3763  0.1253 -0.1572
   58MOL   O35039224   4.226   7.905   1.419 -0.5010 -0.2840  0.0923
   58MOL   C35139225   4.193   7.897   1.658  0.2785 -0.8952  0.0848
   58MOL   C35239226   4.089   7.992   1.667  0.2101 -0.3092  0.2026
   58MOL   C35339227   4.066   8.069   1.784 -0.2827  0.7409 -0.0917
   58MOL   C35439228   4.124   8.030   1.909  0.1559 -0.0539  0.4201
   58MOL   O35539229   4.083   8.087   2.023  0.1395 -0.0123 -0.1217
   58MOL   C35639230   4.158   8.178   2.093 -0.5517  0.8409 -0.0133
   58MOL   C35739231   4.257   8.140   2.180 -0.1073 -1.0769  0.4063
   58MOL   C35839232   4.336   8.238   2.244  0.5766 -0.1167 -0.2058
   58MOL   C35939233   4.304   0.058   2.228  0.1667 -0.8788 -0.3900
   58MOL   C36039234   4.196   0.100   2.145  0.3300  0.0851  0.3837
   58MOL   C36139235   4.120   0.003   2.074  0.2709  0.6147  0.4412
   58MOL   C36239236   4.224   7.931   1.902 -0.3566  0.2023 -0.4919
   58MOL   C36339237   4.267   7.876   1.777  0.2350  0.0045 -0.0192
   58MOL   H36439238   4.448   7.759   1.387 -0.6620  0.3359  0.3197
   58MOL   H36539239   4.557   7.520   1.385  0.1337 -2.6989  1.1199
   58MOL   H36639240   4.267   7.400   1.674 -2.2802  0.8064  0.6254
   58MOL   H36739241   4.164   7.621   1.673  0.0249  0.7598 -0.9499
   58MOL   H36839242   4.021   8.003   1.584 -1.4697 -1.9816  1.3182
   58MOL   H36939243   3.981   8.135   1.777 -0.3007  0.6951 -0.2955
   58MOL   H37039244   4.278   8.034   2.173 -1.2180 -1.3916  1.6201
   58MOL   H37139245   4.428   8.219   2.297  2.1245  0.1727 -2.7244
   58MOL   H37239246   4.181   0.205   2.125 -0.1079  0.0485  0.5143
   58MOL   H37339247   4.039   0.022   2.005  0.5160 -0.7941 -0.2534
   58MOL   H37439248   4.280   7.919   1.994 -2.6704  2.9049  1.3631
   58MOL   H37539249   4.346   7.803   1.776 -0.1367 -0.4009 -1.3938
   58MOL   C37639250   4.153   0.422   2.394  0.8418 -0.0887 -0.6439
   58MOL   C37739251   4.203   0.290   2.386 -0.2315 -0.2459 -0.1675
   58MOL   C37839252   4.321   0.276   2.312 -0.6509 -0.1346  0.1939
   58MOL   O37939253   4.380   0.155   2.295  0.6916 -0.4473  0.6139
   58MOL   C38039254   4.386   0.385   2.255  0.6097 -0.1616 -0.0203
   58MOL   C38139255   4.339   0.519   2.266 -0.4562 -0.0467  0.2079
   58MOL   C38239256   4.215   0.539   2.334  0.2172 -0.4067 -0.1865
   58MOL   C38339257   4.157   0.679   2.330 -0.1559 -0.1838 -0.6423
   58MOL   O38439258   4.189   0.754   2.235  0.7483  0.0436  0.3689
   58MOL   C38539259   4.057   0.721   2.429 -0.2685 -0.3292  0.2919
   58MOL   C38639260   4.057   0.673   2.560  0.1249  0.1862  0.2276
   58MOL   C38739261   3.987   0.735   2.661  0.0556  0.4830 -0.4962
   58MOL   C38839262   3.898   0.837   2.632  0.2571  0.3956  0.3383
   58MOL   O38939263   3.818   0.890   2.728  0.1535 -0.2653  0.0961
   58MOL   C39039264   3.852   1.016   2.790 -1.2775  0.0855  0.2356
   58MOL   C39139265   3.885   1.022   2.929 -0.0484 -0.2994  0.5480
   58MOL   C39239266   3.912   1.137   2.996 -0.4489  0.0674  0.5699
   58MOL   C39339267   3.916   1.259   2.924 -0.1064  0.5809  0.0987
   58MOL   C39439268   3.884   1.256   2.787 -0.6077 -0.8825  0.5750
   58MOL   C39539269   3.857   1.135   2.719  1.1573 -0.1675 -0.1551
   58MOL   C39639270   3.888   0.881   2.498  0.7179 -0.6285  0.3769
   58MOL   C39739271   3.972   0.827   2.398  1.1281  0.2202 -0.3275
   58MOL   H39839272   4.063   0.437   2.450  1.3762 -0.1412  0.2317
   58MOL   H39939273   4.145   0.207   2.425 -0.5472  0.4692  0.8853
   58MOL   H40039274   4.482   0.376   2.206 -0.4578 -2.5639 -1.7679
   58MOL   H40139275   4.386   0.610   2.231 -0.3307 -0.7996 -1.6246
   58MOL   H40239276   4.118   0.586   2.579 -1.6354 -1.3189 -0.9308
   58MOL   H40339277   3.995   0.700   2.763  0.3129 -1.7869 -1.2711
   58MOL   H40439278   3.899   0.928   2.982 -1.7380 -1.0354 -0.2683
   58MOL   H40539279   3.951   1.123   3.096 -0.0194 -0.0316  0.3908
   58MOL   H40639280   3.892   1.343   2.723  4.5125 -1.9726 -0.5170
   58MOL   H40739281   3.826   1.144   2.616  0.9383  0.0628 -0.0702
   58MOL   H40839282   3.820   0.962   2.478  1.9187 -0.4845 -3.5025
   58MOL   H40939283   3.974   0.884   2.307 -0.7196  0.9610  0.0862
   58MOL   C41039284   3.732   1.668   2.947  0.6733 -0.2086 -0.5244
   58MOL   C41139285   3.783   1.544   2.997 -0.0911 -0.3626  0.1485
   58MOL   C41239286   3.906   1.492   2.955  0.2734 -0.0287 -0.1786
   58MOL   O41339287   3.958   1.369   2.991  0.0300  0.4280 -0.0407
   58MOL   C41439288   3.987   1.573   2.866 -0.3608  0.7767 -0.6190
   58MOL   C41539289   3.940   1.694   2.821 -0.2767 -0.1975  0.1160
   58MOL   C41639290   3.815   1.744   2.862 -0.5669 -0.1811  0.1474
   58MOL   C41739291   3.769   1.883   2.828  0.3685 -0.8119  0.8575
   58MOL   O41839292   3.652   1.906   2.833  0.0444  0.0988  0.1077
   58MOL   C41939293   3.865   1.987   2.792  0.1065 -0.1675 -0.3231
   58MOL   C42039294   3.819   2.083   2.701  0.4629 -0.0305  0.0003
   58MOL   C42139295   3.903   2.189   2.666 -0.0703 -0.0147  0.6450
   58MOL   C42239296   4.032   2.207   2.710 -0.3420  0.0197 -0.3351
   58MOL   O42339297   4.113   2.315   2.676  0.3273  0.4223  0.1321
   58MOL   C42439298   4.119   2.357   2.544  0.0247 -0.0770  0.1750
   58MOL   C42539299   4.171   2.273   2.441 -0.5609  0.1199  0.3896
   58MOL   C42639300   4.190   2.324   2.310 -0.2961  0.2398  0.3739
   58MOL   C42739301   4.164   2.463   2.287  0.1090  0.8779  0.4738
   58MOL   C42839302   4.100   2.536   2.386 -0.1620  0.2443  0.2001
   58MOL   C42939303   4.083   2.484   2.514 -0.1870  0.3142 -0.2807
   58MOL   C43039304   4.077   2.109   2.803 -0.8540  0.2970  0.3570
   58MOL   C43139305   3.996   1.999   2.843 -0.5105  0.2646 -0.2419
   58MOL   H43239306   3.638   1.708   2.982  0.3087  1.2081 -3.0461
   58MOL   H43339307   3.716   1.504   3.071 -0.9345  0.9834  0.1388
   58MOL   H43439308   4.084   1.537   2.836  0.7956  0.9184  2.7495
   58MOL   H43539309   4.009   1.754   2.764  2.9489 -3.6453  0.1699
   58MOL   H43639310   3.721   2.071   2.656  1.0063 -0.5378 -1.0547
   58MOL   H43739311   3.857   2.259   2.597  1.4899  0.0436 -0.3606
   58MOL   H43839312   4.214   2.177   2.464 -1.5015 -0.5651 -0.6344
   58MOL   H43939313   4.217   2.263   2.225 -0.0159  0.8276  0.0352
   58MOL   H44039314   4.059   2.635   2.373  1.4132  0.8532 -0.2098
   58MOL   H44139315   4.052   2.544   2.598  0.9960  0.9420 -0.2836
   58MOL   H44239316   4.179   2.122   2.837 -0.0777  0.2299 -1.9003
   58MOL   H44339317   4.035   1.938   2.924  0.8903  3.7925  1.8743
   58MOL   C44439318   3.914   2.432   1.916  0.1643 -0.4201 -0.1013
   58MOL   C44539319   3.976   2.487   2.025 -1.1482  0.1541 -0.2891
   58MOL   C44639320   4.113   2.459   2.053  0.5703 -0.4278 -0.4009
   58MOL   O44739321   4.174   2.520   2.159  0.2910  0.3475 -0.1715
   58MOL   C44839322   4.183   2.389   1.961  0.0471 -0.2554 -0.2057
   58MOL   C44939323   4.127   2.330   1.850  0.5166 -0.3959 -0.1229
   58MOL   C45039324   3.988   2.360   1.820 -0.0613 -0.0839  0.5080
   58MOL   C45139325   3.926   2.316   1.686 -0.4837  0.0154 -0.3073
   58MOL   O45239326   3.938   2.201   1.652  0.3601  0.3447  0.0012
   58MOL   C45339327   3.835   2.411   1.610  0.5172 -0.1207 -0.2678
   58MOL   C45439328   3.831   2.549   1.628  0.0129 -0.1900  0.1999
   58MOL   C45539329   3.743   2.627   1.550 -0.0361 -0.3624  0.1324
   58MOL   C45639330   3.671   2.569   1.444 -0.0943  0.5472  0.3964
   58MOL   O45739331   3.582   2.636   1.367 -0.3240  0.1621  0.8010
   58MOL   C45839332   3.629   2.717   1.263  0.0276  0.6115  0.1315
   58MOL   C45939333   3.578   2.688   1.130 -0.1123 -0.4050 -0.0868
   58MOL   C46039334   3.610   2.775   1.020  0.1441 -0.1054 -0.5053
   58MOL   C46139335   3.700   2.883   1.050  0.3798 -0.6142  1.3030
   58MOL   C46239336   3.758   2.899   1.178  0.1073 -0.0922  0.1278
   58MOL   C46339337   3.719   2.821   1.285  0.6012  0.2710 -0.3519
   58MOL   C46439338   3.685   2.427   1.420  0.0665  0.2190  0.3244
   58MOL   C46539339   3.768   2.353   1.503 -0.2595 -0.6295  0.1360
   58MOL   H46639340   3.810   2.451   1.897  0.3808 -0.6016 -1.4756
   58MOL   H46739341   3.910   2.544   2.088  0.2657  0.1462  1.2189
   58MOL   H46839342   4.281   2.361   1.997 -0.3334 -2.9920 -1.1736
   58MOL   H46939343   4.177   2.259   1.786  1.9349 -0.8078  1.3931
   58MOL   H47039344   3.904   2.594   1.694  0.7205 -0.9234 -0.0605
   58MOL   H47139345   3.737   2.734   1.562  0.9133 -0.5315  2.2256
   58MOL   H47239346   3.503   2.612   1.115 -0.0869 -1.0027  2.6532
   58MOL   H47339347   3.586   2.757   0.917  0.9770  0.6661 -0.8421
   58MOL   H47439348   3.836   2.971   1.194  0.0660 -0.4334  2.0762
   58MOL   H47539349   3.763   2.842   1.382 -0.1867  0.3558 -0.0082
   58MOL   H47639350   3.622   2.376   1.348  1.4643  1.6671 -2.0027
   58MOL   H47739351   3.782   2.249   1.480 -0.0238 -0.1559 -1.9098
   58MOL   C47839352   3.903   3.277   0.999  0.1087 -0.4370  0.0999
   58MOL   C47939353   3.799   3.189   0.993  0.0467 -0.5136  0.1642
   58MOL   C48039354   3.820   3.060   0.956  0.8200  0.2819  0.0606
   58MOL   O48139355   3.720   2.971   0.943  0.0732  0.0561  0.1801
   58MOL   C48239356   3.949   3.011   0.941  0.2964 -0.5404  0.6056
   58MOL   C48339357   4.059   3.100   0.944  0.1096 -1.0225 -0.2350
   58MOL   C48439358   4.033   3.236   0.967  0.1013 -0.9091 -0.0294
   58MOL   C48539359   4.140   3.338   0.989  0.2460  0.1028 -0.6441
   58MOL   O48639360   4.130   3.428   1.074  0.0994  0.1251 -0.6006
   58MOL   C48739361   4.270   3.319   0.919  0.3962 -0.1433  0.3877
   58MOL   C48839362   4.387   3.311   0.999  0.1595  0.5143 -0.1867
   58MOL   C48939363   4.510   3.307   0.941 -0.1639  0.1505  0.0028
   58MOL   C49039364   4.522   3.302   0.797  0.5367 -0.8182 -0.1253
   58MOL   O49139365   4.647   3.294   0.745  0.1803  0.0894 -0.4234
   58MOL   C49239366   4.737   3.191   0.784  0.0569  0.0293 -0.2371
   58MOL   C49339367   4.876   3.216   0.802  1.1090  0.0660 -0.1886
   58MOL   C49439368   4.963   3.114   0.838 -0.2445 -0.4632 -0.4466
   58MOL   C49539369   4.916   2.981   0.833  0.2521 -0.8371  0.2181
   58MOL   C49639370   4.782   2.947   0.802  0.4996 -0.3730 -0.1462
   58MOL   C49739371   4.694   3.058   0.781 -0.9474  0.2359 -0.1868
   58MOL   C49839372   4.411   3.303   0.712 -0.2214 -0.3262  0.4190
   58MOL   C49939373   4.286   3.320   0.772 -0.4265 -0.5837  0.0296
   58MOL   H50039374   3.881   3.381   1.018  0.3915 -0.0948 -1.4177
   58MOL   H50139375   3.699   3.223   1.012  0.2857 -0.8091  2.0403
   58MOL   H50239376   3.972   2.906   0.935  0.7964 -0.5188  1.9448
   58MOL   H50339377   4.160   3.063   0.946  0.3923 -0.2495 -0.4699
   58MOL   H50439378   4.378   3.321   1.106  0.9657 -0.3006 -0.0376
   58MOL   H50539379   4.590   3.313   1.014  0.9018  1.5426 -1.2595
   58MOL   H50639380   4.913   3.317   0.795  0.9799  0.1675  0.6676
   58MOL   H50739381   5.068   3.136   0.851 -0.7033  2.7445 -1.7500
   58MOL   H50839382   4.749   2.845   0.802  0.9682 -0.5303  0.2655
   58MOL   H50939383   4.591   3.032   0.762 -1.6689  1.3899  1.9084
   58MOL   H51039384   4.427   3.296   0.606 -1.0953 -1.2625  0.3487
   58MOL   H51139385   4.198   3.321   0.709  0.9653  0.8154 -1.9532
   58MOL   C51239386   5.017   2.749   1.192 -0.0660 -0.4139 -1.0950
   58MOL   C51339387   5.030   2.844   1.085  0.3702  0.9313 -0.2772
   58MOL   C51439388   4.996   2.797   0.956  0.2622 -0.7327 -0.1345
   58MOL   O51539389   5.009   2.884   0.854 -0.6137  0.4067 -0.0708
   58MOL   C51639390   4.942   2.666   0.935 -0.4145  0.2018 -0.2657
   58MOL   C51739391   4.930   2.577   1.045  0.7657  0.7674 -0.4746
   58MOL   C51839392   4.969   2.616   1.174  0.0744  0.3761  0.6009
   58MOL   C51939393   4.974   2.514   1.282  0.3988  0.6845 -0.2529
   58MOL   O52039394   5.032   2.538   1.389  0.5226 -0.1297  0.2147
   58MOL   C52139395   4.900   2.384   1.268 -0.5796  0.1888  0.0938
   58MOL   C52239396   4.973   2.264   1.256 -0.0092 -0.0550 -0.6724
   58MOL   C52339397   4.905   2.141   1.229  0.9061 -0.1480  0.1917
   58MOL   C52439398   4.764   2.146   1.215  0.1917  0.3802 -0.1863
   58MOL   O52539399   4.683   2.035   1.187  0.1403  0.1358 -0.0626
   58MOL   C52639400   4.693   1.923   1.271 -0.0250 -0.1408 -0.1638
   58MOL   C52739401   4.683   1.940   1.410 -0.7764 -0.3167  0.3050
   58MOL   C52839402   4.711   1.835   1.499  0.2386  0.4356 -0.0275
   58MOL   C52939403   4.758   1.710   1.445  0.3281 -0.6638 -0.3587
   58MOL   C53039404   4.765   1.692   1.306  0.2760 -0.2449  0.1586
   58MOL   C53139405   4.735   1.800   1.216  0.3924 -0.1003  0.3787
   58MOL   C53239406   4.694   2.261   1.243 -0.2979  0.0868 -0.1953
   58MOL   C53339407   4.760   2.379   1.263  0.7479 -0.4731 -0.3580
   58MOL   H53439408   5.042   2.791   1.289 -0.7950  1.4901 -1.6975
   58MOL   H53539409   5.047   2.948   1.108  0.1597  0.7603  0.6628
   58MOL   H53639410   4.903   2.632   0.840  1.7657 -0.8504 -0.8024
   58MOL   H53739411   4.892   2.478   1.023  2.4879 -0.3062  1.2150
   58MOL   H53839412   5.081   2.257   1.253  0.0757  1.2311 -1.0163
   58MOL   H53939413   4.948   2.048   1.194  2.2895  0.0372  1.3962
   58MOL   H54039414   4.645   2.037   1.440  0.2920  0.0666  0.4151
   58MOL   H54139415   4.708   1.848   1.606  2.0909  0.3335  0.0460
   58MOL   H54239416   4.806   1.602   1.263  0.9208  0.1845 -0.1304
   58MOL   H54339417   4.749   1.786   1.109 -0.7127  1.2019  0.0526
   58MOL   H54439418   4.587   2.245   1.244 -0.5584  1.5534 -1.9218
   58MOL   H54539419   4.698   2.463   1.288  1.3408  0.1270 -0.8793
   58MOL   C54639420   5.119   1.661   1.679 -0.2936 -0.3628  0.6173
   58MOL   C54739421   4.986   1.687   1.633 -0.0507 -0.3507 -0.4065
   58MOL   C54839422   4.915   1.591   1.558  0.5998 -0.4916 -0.2755
   58MOL   O54939423   4.785   1.605   1.530 -0.3789  0.0281 -0.4320
   58MOL   C55039424   4.986   1.470   1.519  0.2534  0.3949 -0.8712
   58MOL   C55139425   5.116   1.443   1.564 -0.6885 -0.4204 -0.0504
   58MOL   C55239426   5.183   1.540   1.643 -0.7373  0.1399 -0.0949
   58MOL   C55339427   5.326   1.514   1.680  1.0322 -0.2063  0.9490
   58MOL   O55439428   5.350   1.503   1.802 -0.1678 -0.3379  0.1041
   58MOL   C55539429   5.417   1.474   1.568  0.9428 -0.4378  0.4044
   58MOL   C55639430   5.380   1.502   1.435 -0.4011  0.1328  0.1308
   58MOL   C55739431   5.474   1.471   1.329 -0.3967  0.1052 -0.4126
   58MOL   C55839432   5.600   1.412   1.356 -0.6154 -0.8092  0.1066
   58MOL   O55939433   5.684   1.383   1.255  0.1441 -0.2758 -0.0405
   58MOL   C56039434   5.819   1.379   1.288 -0.8656  0.2016 -0.0487
   58MOL   C56139435   5.886   1.505   1.303 -0.6744 -0.2290  0.5865
   58MOL   C56239436   6.025   1.500   1.321 -0.5561 -0.6459  0.2053
   58MOL   C56339437   6.102   1.387   1.330 -0.5309 -0.0522 -0.1150
   58MOL   C56439438   6.026   1.264   1.327 -0.0835 -0.4220  1.0789
   58MOL   C56539439   5.890   1.263   1.309  0.1788 -0.5689 -0.1134
   58MOL   C56639440   5.627   1.371   1.489  0.7122 -0.4149 -0.1229
   58MOL   C56739441   5.538   1.407   1.590 -0.5367 -0.2823 -0.0383
   58MOL   H56839442   5.172   1.729   1.745  0.8899  0.9019 -1.5918
   58MOL   H56939443   4.944   1.784   1.655 -1.7361 -1.5359  1.7208
   58MOL   H57039444   4.921   1.389   1.488  1.0439 -0.9755  1.0122
   58MOL   H57139445   5.158   1.353   1.522  0.6688  1.0146 -1.8109
   58MOL   H57239446   5.287   1.550   1.409 -0.9382 -0.3473  1.1307
   58MOL   H57339447   5.443   1.482   1.226 -1.2026  0.2110 -0.1614
   58MOL   H57439448   5.830   1.596   1.292  0.8433  0.4699 -1.7578
   58MOL   H57539449   6.079   1.593   1.313 -1.1217 -0.6002 -4.2498
   58MOL   H57639450   6.086   1.175   1.321  0.1179 -0.1699 -0.8451
   58MOL   H57739451   5.837   1.170   1.293 -0.0480 -0.5251  0.3600
   58MOL   H57839452   5.721   1.322   1.512  0.8666  0.0981  0.3334
   58MOL   H57939453   5.577   1.380   1.688  1.1676 -1.3838 -0.9882
   58MOL   C58039454   6.515   1.386   1.581  0.3344 -0.3776  0.1242
   58MOL   C58139455   6.440   1.401   1.465  0.1688 -0.1572 -0.3276
   58MOL   C58239456   6.301   1.376   1.458 -0.9911 -0.1957  0.0009
   58MOL   O58339457   6.242   1.396   1.335 -0.0872  0.9370  0.2744
   58MOL   C58439458   6.240   1.323   1.572  0.6476 -0.1952 -0.0234
   58MOL   C58539459   6.315   1.299   1.690 -0.3284 -0.3453 -0.8182
   58MOL   C58639460   6.450   1.342   1.699  0.1062 -0.5883  0.0551
   58MOL   C58739461   6.523   1.317   1.828  0.0132  0.7154  0.0403
   58MOL   O58839462   6.470   1.258   1.923  0.4691 -0.0833  0.7320
   58MOL   C58939463   6.670   1.360   1.847  0.9241 -0.3145  0.0212
   58MOL   C59039464   6.724   1.477   1.801  0.4043 -0.3657  0.1306
   58MOL   C59139465   6.862   1.511   1.828  0.1422  0.5647 -0.0390
   58MOL   C59239466   6.949   1.424   1.894  0.3715  0.0054 -0.0535
   58MOL   O59339467   7.081   1.454   1.918 -0.0775  0.2433  0.1263
   58MOL   C59439468   7.175   1.380   1.850  0.4673  0.4791  0.0911
   58MOL   C59539469   7.276   1.309   1.922 -0.3248  0.8220  0.6503
   58MOL   C59639470   7.379   1.240   1.856  0.7363  0.1365  0.3932
   58MOL   C59739471   7.368   1.224   1.712  0.1784 -0.0532 -0.0760
   58MOL   C59839472   7.271   1.292   1.642 -0.5167  0.0044  0.2770
   58MOL   C59939473   7.175   1.370   1.709  0.1311  0.0996 -0.6667
   58MOL   C60039474   6.898   1.299   1.928 -0.7912 -0.0041 -0.0280
   58MOL   C60139475   6.760   1.271   1.913  0.7171  0.2943  0.1521
   58MOL   H60239476   6.619   1.414   1.585 -0.6398  3.8513 -1.4411
   58MOL   H60339477   6.486   1.433   1.373 -1.0419  0.1899 -0.8281
   58MOL   H60439478   6.137   1.291   1.577  0.8552 -0.6628  1.5987
   58MOL   H60539479   6.270   1.252   1.776  0.7720 -0.9115 -0.5436
   58MOL   H60639480   6.662   1.557   1.761 -0.7809 -0.7269  1.2263
   58MOL   H60739481   6.908   1.605   1.800 -1.1181  1.5261  1.0124
   58MOL   H60839482   7.285   1.318   2.029  0.3434  0.0571  0.6676
   58MOL   H60939483   7.461   1.196   1.910  2.0368  1.4967 -0.4217
   58MOL   H61039484   7.270   1.296   1.534  0.9417 -3.4024  0.0550
   58MOL   H61139485   7.099   1.429   1.659 -0.6949  0.9936  1.6025
   58MOL   H61239486   6.963   1.234   1.985 -0.8447 -1.0950 -1.1838
   58MOL   H61339487   6.723   1.176   1.948 -0.3752  0.1476 -1.3733
   58MOL   C61439488   7.559   0.816   1.727 -0.1002 -1.0314 -0.6749
   58MOL   C61539489   7.495   0.926   1.662 -0.3113 -0.0148 -0.5764
   58MOL   C61639490   7.531   1.058   1.688 -0.0698  0.1412  0.3213
   58MOL   O61739491   7.461   1.162   1.639  0.1108 -0.3169 -0.2234
   58MOL   C61839492   7.641   1.078   1.782 -0.3265  0.6800  0.8641
   58MOL   C61939493   7.717   0.966   1.831  0.2534 -0.0018  0.1871
   58MOL   C62039494   7.682   0.832   1.803  0.6369 -0.3076  0.5165
   58MOL   C62139495   7.770   0.719   1.854  0.0280  0.0774  0.0497
   58MOL   O62239496   7.889   0.723   1.890 -0.3672  0.4417 -0.2034
   58MOL   C62339497   7.708   0.586   1.858 -0.5289 -0.0839  0.2350
   58MOL   C62439498   7.664   0.525   1.978 -0.3611 -0.6047  0.4865
   58MOL   C62539499   7.621   0.396   1.982  0.2015 -0.1096 -0.0321
   58MOL   C62639500   7.614   0.318   1.867 -0.2147 -0.7048 -0.1689
   58MOL   O62739501   7.561   0.194   1.869 -0.0111  0.0111  0.1950
   58MOL   C62839502   7.632   0.085   1.910 -1.0431  0.4284 -0.0803
   58MOL   C62939503   7.768   0.067   1.868  0.9073 -0.6936 -0.0452
   58MOL   C63039504   7.830   8.258   1.888 -0.2109 -0.4754  0.0665
   58MOL   C63139505   7.766   8.151   1.956 -0.4837  0.2202 -0.1063
   58MOL   C63239506   7.635   8.165   2.003 -0.0659  0.1782  0.1753
   58MOL   C63339507   7.567   8.296   1.985  0.8139 -0.3508 -0.0779
   58MOL   C63439508   7.656   0.379   1.740 -0.2501 -0.1266  0.1881
   58MOL   C63539509   7.700   0.512   1.740  0.5906 -0.0304  0.1936
   58MOL   H63639510   7.518   0.719   1.699 -1.6366 -0.6181  0.0634
   58MOL   H63739511   7.409   0.917   1.598 -0.6588  0.5668 -0.1967
   58MOL   H63839512   7.659   1.183   1.801  0.9439  0.7469 -0.6242
   58MOL   H63939513   7.793   0.998   1.901 -0.4489 -0.4373  1.1665
   58MOL   H64039514   7.667   0.584   2.069 -0.0221  0.5991 -0.3039
   58MOL   H64139515   7.592   0.349   2.075  2.5188  1.1157  1.3493
   58MOL   H64239516   7.805   0.144   1.803  0.3694 -0.6623 -0.3169
   58MOL   H64339517   7.928   8.244   1.845 -0.3890 -2.2993  0.2171
   58MOL   H64439518   7.595   8.084   2.062  1.9565 -0.5105  0.6684
   58MOL   H64539519   7.463   8.302   2.013  1.3551  1.1936  1.6784
   58MOL   H64639520   7.651   0.331   1.643 -0.2125  2.0765 -0.9288
   58MOL   H64739521   7.739   0.566   1.655 -0.6672 -0.0475 -0.3969
   58MOL   C64839522   7.772   7.746   2.195 -1.1179  0.5415  0.9865
   58MOL   C64939523   7.775   7.829   2.083 -0.3063 -0.2491  0.3039
   58MOL   C65039524   7.840   7.960   2.084 -0.3295 -0.0172 -0.3216
   58MOL   O65139525   7.837   8.035   1.971  0.1919 -1.2080 -0.3979
   58MOL   C65239526   7.912   8.002   2.202 -0.3584  0.7526 -0.2364
   58MOL   C65339527   7.907   7.924   2.314  0.5737  0.2809 -0.3160
   58MOL   C65439528   7.837   7.800   2.313  0.6099  0.0954 -0.3063
   58MOL   C65539529   7.849   7.721   2.436  0.0093 -0.1425  0.2539
   58MOL   O65639530   7.954   7.712   2.502 -0.1954 -0.4865  0.3536
   58MOL   C65739531   7.725   7.646   2.473  0.1169  1.1156 -0.1366
   58MOL   C65839532   7.747   7.527   2.555  0.2335 -0.9661  0.7068
   58MOL   C65939533   7.637   7.454   2.593 -0.5898 -0.2310 -0.4722
   58MOL   C66039534   7.504   7.478   2.547  0.0254  0.3707 -0.6470
   58MOL   O66139535   7.399   7.399   2.589 -0.2868  0.0535 -0.6482
   58MOL   C66239536   7.390   7.272   2.535  0.0112 -0.0478  0.2479
   58MOL   C66339537   7.346   7.259   2.399 -0.2019 -0.1108 -0.2660
   58MOL   C66439538   7.331   7.125   2.348 -0.6832 -0.1485  0.7384
   58MOL   C66539539   7.368   7.015   2.422  0.2605  0.6785  0.2297
   58MOL   C66639540   7.421   7.028   2.547 -0.6716 -0.4837  0.1261
   58MOL   C66739541   7.425   7.156   2.610 -0.1252 -0.1179 -0.6478
   58MOL   C66839542   7.485   7.585   2.458  0.9234  0.7927  0.3543
   58MOL   C66939543   7.591   7.674   2.432  0.5062 -0.0121  0.1019
   58MOL   H67039544   7.731   7.647   2.189  0.6204 -0.1314 -0.3814
   58MOL   H67139545   7.732   7.795   1.991 -1.4027  0.9987  0.3414
   58MOL   H67239546   7.971   8.093   2.208  0.9814 -0.0483 -0.9771
   58MOL   H67339547   7.967   7.951   2.399 -0.7939 -3.3274  1.8882
   58MOL   H67439548   7.840   7.496   2.600  0.4128  1.5365  2.1288
   58MOL   H67539549   7.657   7.362   2.646  1.6587  0.8168  0.5601
   58MOL   H67639550   7.314   7.350   2.349  1.8903  0.6736 -0.2036
   58MOL   H67739551   7.303   7.099   2.247  3.8662 -1.3442 -0.3226
   58MOL   H67839552   7.441   6.941   2.607  1.5936 -0.2339 -0.2293
   58MOL   H67939553   7.457   7.169   2.712 -0.3958  0.8324 -0.6864
   58MOL   H68039554   7.384   7.618   2.437 -0.4066 -2.0333  2.0061
   58MOL   H68139555   7.560   7.755   2.368 -0.9128  0.2741  1.1481
   58MOL   H68239556   7.354   6.918   2.378  0.1302  0.1688  1.3876
   59MOL     C139557   1.853   3.959   2.056  0.2142  0.0056  0.1232
   59MOL     C239558   1.945   4.001   2.153  0.0266 -0.4466 -0.9696
   59MOL     C339559   1.964   4.137   2.182 -0.1186  0.2979 -0.5386
   59MOL     O439560   2.052   4.182   2.273  0.4736 -0.0537 -0.6400
   59MOL     C539561   1.887   4.231   2.110  0.3432  0.1262 -0.0192
   59MOL     C639562   1.793   4.196   2.015  0.4699 -0.1057 -0.0658
   59MOL     C739563   1.772   4.053   1.988 -0.1483 -0.0126  0.0788
   59MOL     C839564   1.669   4.003   1.898  0.8742  0.6686 -0.0415
   59MOL     O939565   1.624   3.889   1.909 -0.4508  0.5063 -0.5765
   59MOL    C1039566   1.621   4.091   1.788  0.1101 -0.6657  0.2476
   59MOL    C1139567   1.482   4.081   1.760  0.3431  0.4566 -0.7651
   59MOL    C1239568   1.439   4.128   1.636 -0.0097  0.7122  0.5501
   59MOL    C1339569   1.519   4.201   1.556 -0.0978 -0.1190 -0.0911
   59MOL    O1439570   1.471   4.257   1.437 -0.6086  0.0299  0.6344
   59MOL    C1539571   1.424   4.388   1.448 -0.2910 -0.0643 -0.2228
   59MOL    C1639572   1.499   4.504   1.421 -0.2416  0.6711  1.2182
   59MOL    C1739573   1.446   4.637   1.428  0.3582  0.4502  0.0125
   59MOL    C1839574   1.306   4.646   1.451 -0.2532  0.0162  0.6200
   59MOL    C1939575   1.225   4.528   1.474  0.0234 -0.7365 -0.2576
   59MOL    C2039576   1.289   4.401   1.469  0.6564  0.0466 -0.4575
   59MOL    C2139577   1.660   4.215   1.588  0.5988  0.3721  0.1770
   59MOL    C2239578   1.708   4.160   1.709  0.3165 -0.4261  0.4999
   59MOL    H2339579   1.838   3.855   2.033 -0.7035  0.4241 -1.2761
   59MOL    H2439580   2.019   3.940   2.204  0.0880  1.7461  1.7035
   59MOL    H2539581   1.908   4.336   2.122 -1.6857  0.2740  2.8618
   59MOL    H2639582   1.737   4.277   1.970 -1.4698 -0.0042  2.3986
   59MOL    H2739583   1.408   4.031   1.821 -1.4508  2.0756 -1.5418
   59MOL    H2839584   1.335   4.118   1.610  1.0199 -1.0895 -3.3050
   59MOL    H2939585   1.607   4.503   1.410 -0.1344 -0.1959  2.2526
   59MOL    H3039586   1.496   4.730   1.405 -1.0404  0.5613 -2.8151
   59MOL    H3139587   1.117   4.532   1.483 -0.0186  0.9611 -1.1602
   59MOL    H3239588   1.230   4.312   1.480  0.0146  0.4197 -0.8254
   59MOL    H3339589   1.726   4.272   1.523 -1.1507  0.5559 -1.5066
   59MOL    H3439590   1.814   4.170   1.726  0.2377  1.3397  0.1381
   59MOL    H3539591   2.085   4.125   2.341 -1.0153  2.4203  2.2553
   59MOL    C3639592   0.965   4.767   1.193 -0.3426 -0.1733 -0.4086
   59MOL    C3739593   1.093   4.752   1.241 -0.2020 -0.3069  0.5395
   59MOL    C3839594   1.122   4.779   1.372  0.0137 -0.8770 -0.5618
   59MOL    O3939595   1.249   4.768   1.426 -0.0667  0.5426  0.1866
   59MOL    C4039596   1.018   4.830   1.451 -1.0667 -0.5593  0.2814
   59MOL    C4139597   0.885   4.844   1.407  0.7245 -0.3516  0.3120
   59MOL    C4239598   0.855   4.815   1.275  0.2727 -0.4008  0.2771
   59MOL    C4339599   0.723   4.830   1.221  0.0443  0.1948 -0.0220
   59MOL    O4439600   0.639   4.910   1.262 -0.0146 -0.2074 -0.4773
   59MOL    C4539601   0.692   4.731   1.115 -0.7242  0.3538 -0.4369
   59MOL    C4639602   0.621   4.779   1.003 -0.4231 -0.0737 -0.3927
   59MOL    C4739603   0.603   4.685   0.899 -0.7889  0.4135  0.4051
   59MOL    C4839604   0.641   4.548   0.907 -0.2292  0.0442 -0.0912
   59MOL    O4939605   0.606   4.468   0.803 -0.7445  0.6711 -0.0585
   59MOL    C5039606   0.479   4.483   0.754  0.3936 -0.6052  0.0596
   59MOL    C5139607   0.371   4.482   0.840 -0.7683 -0.6993 -0.3573
   59MOL    C5239608   0.241   4.521   0.786 -0.5207 -0.1028 -0.9462
   59MOL    C5339609   0.224   4.540   0.649 -0.0302 -0.2877  0.3495
   59MOL    C5439610   0.338   4.530   0.565  0.0725  0.2636 -0.6756
   59MOL    C5539611   0.465   4.514   0.617  0.4897  0.3607  0.4057
   59MOL    C5639612   0.697   4.502   1.028  0.0264 -0.3610  0.7177
   59MOL    C5739613   0.733   4.593   1.128  0.2926 -0.5775  0.0964
   59MOL    H5839614   0.953   4.728   1.093  4.5280 -0.5961 -0.9075
   59MOL    H5939615   1.172   4.717   1.176 -2.0621 -0.1965 -1.8543
   59MOL    H6039616   1.042   4.849   1.555  1.1624  0.0084 -0.3151
   59MOL    H6139617   0.809   4.881   1.474  0.6948 -0.0510  0.1121
   59MOL    H6239618   0.588   4.881   0.999  1.5927  0.6191  0.4328
   59MOL    H6339619   0.544   4.715   0.813  1.1891  1.3963 -0.6428
   59MOL    H6439620   0.385   4.477   0.947 -0.0030 -0.2475 -0.4294
   59MOL    H6539621   0.168   4.539   0.863 -1.5420 -2.2231 -1.3955
   59MOL    H6639622   0.333   4.539   0.457 -0.3605 -0.2774 -0.7034
   59MOL    H6739623   0.549   4.531   0.552 -0.3140  1.0439 -0.4785
   59MOL    H6839624   0.720   4.397   1.039 -1.1223 -0.7531 -0.4205
   59MOL    H6939625   0.793   4.554   1.208 -1.2237 -0.3325  1.3733
   59MOL    C7039626   8.117   4.753   0.708 -0.6849 -0.0549 -0.3944
   59MOL    C7139627   8.210   4.647   0.698 -0.6948  0.2985 -0.1352
   59MOL    C7239628   0.015   4.661   0.616  0.4449  0.2380  0.2749
   59MOL    O7339629   0.102   4.555   0.591 -0.5893 -0.3469 -0.1116
   59MOL    C7439630   0.033   4.777   0.547 -0.2949  0.8063 -0.5134
   59MOL    C7539631   8.261   4.888   0.562  0.0872  0.0428 -0.8359
   59MOL    C7639632   8.151   4.876   0.645  0.7305 -0.3904 -0.0926
   59MOL    C7739633   8.058   4.991   0.651 -0.4763  0.6972 -0.6612
   59MOL    O7839634   7.937   4.975   0.640 -0.5981  0.2438  0.6491
   59MOL    C7939635   8.113   5.127   0.685 -0.3064 -0.4330  0.5855
   59MOL    C8039636   8.241   5.153   0.751 -0.5825  0.5510  0.6102
   59MOL    C8139637   8.281   5.286   0.778 -0.4637  0.3250  0.2928
   59MOL    C8239638   8.211   5.403   0.749 -0.4479 -0.2555 -0.9993
   59MOL    O8339639   8.253   5.528   0.784 -0.3751 -0.2206 -0.0144
   59MOL    C8439640   8.189   5.643   0.738  0.3700 -0.1712  0.5864
   59MOL    C8539641   8.237   5.705   0.618 -0.0204 -0.4698  0.2828
   59MOL    C8639642   8.179   5.826   0.566 -0.0442 -0.5735  0.0897
   59MOL    C8739643   8.070   5.880   0.635 -0.0546  0.2520  0.6474
   59MOL    C8839644   8.012   5.807   0.743 -0.2929  0.0284  0.0679
   59MOL    C8939645   8.075   5.697   0.800  0.0623  0.2488  0.1044
   59MOL    C9039646   8.080   5.378   0.702  0.1883  0.3707 -0.2309
   59MOL    C9139647   8.033   5.245   0.670 -0.8662  0.1832 -0.1523
   59MOL    H9239648   8.037   4.752   0.781 -0.6178  2.5053 -0.2543
   59MOL    H9339649   8.196   4.556   0.756  1.1672 -2.0258 -3.1516
   59MOL    H9439650   0.122   4.770   0.486  1.8500  0.9440  2.4838
   59MOL    H9539651   8.285   4.982   0.514  0.0511  0.0095 -0.9192
   59MOL    H9639652   8.307   5.075   0.785 -0.4365  0.2888 -0.2519
   59MOL    H9739653   0.066   5.306   0.821  0.6314  0.0321 -1.9564
   59MOL    H9839654   0.015   5.657   0.586  2.1715  2.2064  2.2134
   59MOL    H9939655   8.224   5.880   0.484  0.0419 -1.6116 -0.5667
   59MOL   H10039656   7.929   5.852   0.795  0.4503  0.6194  0.7593
   59MOL   H10139657   8.035   5.657   0.892  1.7366  0.4604  0.9375
   59MOL   H10239658   8.024   5.468   0.681  0.8328  0.0840 -3.3432
   59MOL   H10339659   7.936   5.233   0.624 -1.1680  1.7906  0.0510
   59MOL   C10439660   8.043   6.234   0.856  0.0251  0.3245 -0.8015
   59MOL   C10539661   8.074   6.128   0.778  0.1456  0.1017  0.4436
   59MOL   C10639662   7.986   6.096   0.674 -0.6236 -0.4539  0.7391
   59MOL   O10739663   8.015   5.997   0.587  0.2673  0.3942  0.3031
   59MOL   C10839664   7.884   6.186   0.635 -0.1508  0.5332  0.3701
   59MOL   C10939665   7.863   6.299   0.719  0.5626  0.5111 -0.6439
   59MOL   C11039666   7.934   6.316   0.837 -0.1831  0.3533  0.1735
   59MOL   C11139667   7.919   6.431   0.929 -0.6734  0.3784  0.7369
   59MOL   O11239668   8.018   6.474   0.988  0.2551 -0.9182 -0.2314
   59MOL   C11339669   7.786   6.483   0.962  0.7190 -0.5009  0.0475
   59MOL   C11439670   7.775   6.615   1.016  0.6202 -0.3218 -0.7760
   59MOL   C11539671   7.652   6.676   1.056 -0.7073  0.3516 -0.1865
   59MOL   C11639672   7.531   6.608   1.029 -0.1902 -0.1616  0.2939
   59MOL   O11739673   7.416   6.682   1.050 -0.3182  0.1998 -0.1308
   59MOL   C11839674   7.336   6.694   0.940  0.9078  0.7301  0.2291
   59MOL   C11939675   7.196   6.694   0.954 -0.4525  1.1430 -0.4709
   59MOL   C12039676   7.113   6.725   0.849 -0.4197  0.8937 -0.0045
   59MOL   C12139677   7.173   6.736   0.717  0.2785  0.2887 -0.0535
   59MOL   C12239678   7.310   6.743   0.706 -0.2227  0.6732 -0.0509
   59MOL   C12339679   7.390   6.726   0.815 -0.1620 -0.2298 -0.9387
   59MOL   C12439680   7.534   6.472   0.998  0.3451 -0.2564  0.2129
   59MOL   C12539681   7.660   6.410   0.962  0.1226  0.3970 -0.3969
   59MOL   H12639682   8.111   6.247   0.940  0.1918 -0.9278 -0.7319
   59MOL   H12739683   8.163   6.077   0.813  0.3418  1.7866  2.4404
   59MOL   H12839684   7.823   6.165   0.549 -1.3674  0.0378  1.3492
   59MOL   H12939685   7.784   6.368   0.695  1.1993  2.3109  2.0675
   59MOL   H13039686   7.867   6.671   1.020  0.8571 -0.7346 -0.3018
   59MOL   H13139687   7.663   6.780   1.083 -0.5674 -0.4029  2.9205
   59MOL   H13239688   7.155   6.674   1.052 -3.7392  1.6052 -1.6895
   59MOL   H13339689   7.007   6.728   0.868 -0.3628  1.1253  0.2962
   59MOL   H13439690   7.348   6.764   0.607  0.1177  2.0849  0.3684
   59MOL   H13539691   7.495   6.734   0.789 -0.0144 -2.0631 -0.9935
   59MOL   H13639692   7.444   6.412   1.005 -0.4831  1.0096  0.5907
   59MOL   H13739693   7.664   6.305   0.936  3.1272  0.5001 -0.5525
   59MOL   C13839694   7.184   7.092   0.485  0.2305 -0.5624  0.4926
   59MOL   C13939695   7.155   6.991   0.576 -0.0871  0.3096 -0.2005
   59MOL   C14039696   7.106   6.869   0.520 -1.0540  0.7722 -0.3182
   59MOL   O14139697   7.096   6.757   0.604 -0.0780  0.0853 -0.1362
   59MOL   C14239698   7.090   6.855   0.384 -1.1359 -0.3235 -0.3415
   59MOL   C14339699   7.119   6.963   0.294  0.0892  0.3411  0.3355
   59MOL   C14439700   7.179   7.077   0.347  0.0646  0.4156 -0.2326
   59MOL   C14539701   7.239   7.180   0.254 -0.1802  0.4050  0.1693
   59MOL   O14639702   7.302   7.274   0.293  0.2039 -0.1688 -0.0864
   59MOL   C14739703   7.204   7.177   0.108  0.0553 -0.2960  0.4072
   59MOL   C14839704   7.308   7.176   0.020  0.3972  0.0782  0.3765
   59MOL   C14939705   7.285   7.200   8.201  0.0998 -0.5323  0.0752
   59MOL   C15039706   7.158   7.214   8.156 -0.2948  0.2190 -0.4153
   59MOL   O15139707   7.123   7.247   8.029 -0.2509  0.0513  0.5436
   59MOL   C15239708   7.104   7.143   7.939  0.0422 -0.2405  0.5522
   59MOL   C15339709   7.132   7.163   7.801 -0.0649  0.5601 -0.2607
   59MOL   C15439710   7.103   7.061   7.707  0.6915  0.5692  0.4111
   59MOL   C15539711   7.032   6.946   7.744 -0.2169  0.1477 -0.3568
   59MOL   C15639712   6.995   6.931   7.879  0.4692 -0.0031 -0.3642
   59MOL   C15739713   7.034   7.028   7.973  0.2281  0.3338  0.3320
   59MOL   C15839714   7.049   7.207   8.247  0.4462 -0.1007  0.3263
   59MOL   C15939715   7.066   7.196   0.068 -0.0258 -0.0820  0.5137
   59MOL   H16039716   7.230   7.183   0.519 -0.4307 -0.3164  0.7394
   59MOL   H16139717   7.168   6.997   0.683  0.7158 -2.7133 -0.1082
   59MOL   H16239718   7.068   6.761   0.337 -3.0621 -0.0597  0.0022
   59MOL   H16339719   7.105   6.955   0.187  1.2092 -1.1224  0.2804
   59MOL   H16439720   7.409   7.168   0.057  0.8340  0.0431 -0.8162
   59MOL   H16539721   7.365   7.202   8.128  1.0162  0.5029  1.0957
   59MOL   H16639722   7.164   7.261   7.767  0.0868 -0.3051 -2.7026
   59MOL   H16739723   7.126   7.086   7.605 -0.1871  0.1726  0.1124
   59MOL   H16839724   6.934   6.844   7.895 -1.4463  1.4297  0.2852
   59MOL   H16939725   6.998   7.010   8.073 -1.4192 -0.1700 -0.3290
   59MOL   H17039726   6.948   7.194   8.212  0.3080 -2.1396  1.4045
   59MOL   H17139727   6.985   7.189   0.140 -1.0765  0.2142 -0.6330
   59MOL   C17239728   7.123   6.505   7.682 -0.0541  0.5097 -0.0573
   59MOL   C17339729   7.036   6.613   7.678  0.9991  0.1067  0.0879
   59MOL   C17439730   7.084   6.741   7.646  0.0017  0.5904  0.7576
   59MOL   O17539731   7.000   6.847   7.652  0.5269 -0.4566 -0.2781
   59MOL   C17639732   7.227   6.758   7.630  0.2374 -0.5561  0.3482
   59MOL   C17739733   7.307   6.648   7.626  0.0126  0.1094 -0.5274
   59MOL   C17839734   7.261   6.522   7.658 -0.7016  0.6377 -0.1359
   59MOL   C17939735   7.342   6.395   7.648 -0.9866  1.0713 -0.7408
   59MOL   O18039736   7.301   6.286   7.689 -0.1787  0.0053 -0.0436
   59MOL   C18139737   7.485   6.409   7.605  0.5746  0.0822 -0.1755
   59MOL   C18239738   7.518   6.482   7.487 -0.5738 -0.0154 -0.4464
   59MOL   C18339739   7.651   6.513   7.452  0.0270 -0.6201 -0.6249
   59MOL   C18439740   7.756   6.471   7.534  0.5892  0.2283 -0.6434
   59MOL   O18539741   7.884   6.500   7.499  0.1910 -0.0461  0.7777
   59MOL   C18639742   7.944   6.615   7.552  0.0755  0.6650  0.6892
   59MOL   C18739743   8.003   6.608   7.682 -0.3356 -0.4536 -0.4410
   59MOL   C18839744   8.060   6.722   7.741 -0.2007  0.0697 -0.4522
   59MOL   C18939745   8.030   6.844   7.678  0.7972 -0.1131 -0.4494
   59MOL   C19039746   7.963   6.853   7.559 -0.6177 -0.1059  0.6207
   59MOL   C19139747   7.926   6.742   7.489  0.2079  0.2216 -0.3783
   59MOL   C19239748   7.726   6.389   7.647 -0.0116 -0.1464  0.7001
   59MOL   C19339749   7.590   6.357   7.682 -0.1067 -0.2781  0.7440
   59MOL   H19439750   7.083   6.405   7.686 -0.9845  0.8817 -0.0348
   59MOL   H19539751   6.931   6.592   7.696  1.2669 -0.4065  1.0524
   59MOL   H19639752   7.271   6.857   7.620 -0.4962 -0.0957  1.5855
   59MOL   H19739753   7.412   6.660   7.607 -0.7271  2.1765 -3.6992
   59MOL   H19839754   7.436   6.526   7.433  0.3862  2.6132  0.1362
   59MOL   H19939755   7.668   6.576   7.366 -1.4345  2.8686  1.5184
   59MOL   H20039756   8.013   6.515   7.737  2.6475 -0.2877 -0.6400
   59MOL   H20139757   8.100   6.724   7.841 -1.3339 -0.2977  0.0225
   59MOL   H20239758   7.942   6.951   7.519  1.2581 -0.3016 -0.9230
   59MOL   H20339759   7.882   6.750   7.390  0.4578 -1.0736 -0.6020
   59MOL   H20439760   7.813   6.348   7.697  0.9771  0.1954 -0.6918
   59MOL   H20539761   7.569   6.308   7.776 -1.6820  1.4821  1.3311
   59MOL   C20639762   8.192   7.024   8.079  0.0412 -0.5609  0.3182
   59MOL   C20739763   8.190   7.013   7.937 -0.5189 -0.4815  0.2385
   59MOL   C20839764   8.071   6.982   7.869  0.5916  0.0671 -0.3464
   59MOL   O20939765   8.069   6.965   7.730 -0.3872  0.3142 -0.4832
   59MOL   C21039766   7.957   6.952   7.944 -0.0104 -0.1554  0.6111
   59MOL   C21139767   7.955   6.964   8.081 -0.5108  0.2809  0.5858
   59MOL   C21239768   8.075   6.995   8.151 -0.2114 -0.6062 -0.5213
   59MOL   C21339769   8.075   7.000   8.302  0.6397  0.0021 -0.0409
   59MOL   O21439770   8.183   6.985   0.048 -0.3824  0.2339 -0.1830
   59MOL   C21539771   7.943   7.015   0.058 -0.7411 -0.6480  0.1019
   59MOL   C21639772   7.908   6.917   0.147 -0.4081 -0.1994 -0.1143
   59MOL   C21739773   7.780   6.921   0.208  0.1589  0.3028 -0.7135
   59MOL   C21839774   7.686   7.015   0.173 -0.4407 -0.3809  0.0387
   59MOL   O21939775   7.561   7.014   0.223 -0.1182 -0.0758 -0.4097
   59MOL   C22039776   7.483   6.903   0.212 -0.6275 -0.0727  0.6678
   59MOL   C22139777   7.456   6.854   0.083 -0.3070 -0.2500  0.1184
   59MOL   C22239778   7.387   6.729   0.078 -0.2242  0.6643  0.4990
   59MOL   C22339779   7.350   6.657   0.195 -0.1872 -0.0866 -0.4498
   59MOL   C22439780   7.382   6.708   0.324  0.2631  0.6612  0.7047
   59MOL   C22539781   7.446   6.832   0.330  0.4806 -0.3244  0.1579
   59MOL   C22639782   7.727   7.117   0.082  0.5251 -0.3378  0.0400
   59MOL   C22739783   7.853   7.115   0.020  0.3094 -0.1650  0.2442
   59MOL   H22839784   8.279   7.061   8.131 -0.5130  0.7392  0.3311
   59MOL   H22939785   8.283   7.036   7.887  0.0596 -0.3734  1.3578
   59MOL   H23039786   7.867   6.927   7.889 -0.4467  0.7400  0.8914
   59MOL   H23139787   7.866   6.946   8.140  0.1893 -0.1585  1.5189
   59MOL   H23239788   7.980   6.843   0.179 -1.1145 -0.1425  1.6415
   59MOL   H23339789   7.745   6.851   0.282 -0.3724  0.2865 -0.9770
   59MOL   H23439790   7.486   6.909   8.309  0.3897 -0.7795  0.0177
   59MOL   H23539791   7.358   6.700   8.291  1.8030  0.0884  0.0639
   59MOL   H23639792   7.353   6.653   0.412  1.1513 -0.3366  0.3865
   59MOL   H23739793   7.462   6.877   0.427  1.0144  0.7598 -0.4238
   59MOL   H23839794   7.654   7.192   0.056 -1.3808 -1.3224  2.2465
   59MOL   H23939795   7.880   7.196   8.266 -1.9937  0.6832  0.2915
   59MOL   C24039796   6.922   6.560   0.115 -0.5495  0.4089 -0.1920
   59MOL   C24139797   7.067   6.560   0.102 -0.0197  0.5566  0.6333
   59MOL   C24239798   7.152   6.540   0.210 -0.2813  0.0510  0.1194
   59MOL   O24339799   7.283   6.534   0.190 -0.2994  0.1172  0.7240
   59MOL   C24439800   7.095   6.505   0.332 -0.4291 -0.4538 -0.2056
   59MOL   C24539801   6.956   6.490   0.344  0.1167 -0.4913 -0.0301
   59MOL   C24639802   6.867   6.525   0.239 -0.5654  0.9135  0.0827
   59MOL   C24739803   6.723   6.520   0.260 -0.0143 -0.6547  0.6312
   59MOL   O24839804   6.663   6.417   0.231 -0.1110  0.2977  0.1024
   59MOL   C24939805   6.656   6.644   0.315 -0.1339 -0.0275 -0.4941
   59MOL   C25039806   6.720   6.746   0.380 -0.3943  0.1218 -0.1822
   59MOL   C25139807   6.640   6.852   0.417 -0.1018 -0.5824  0.4627
   59MOL   C25239808   6.502   6.862   0.387  0.4416 -0.8522  0.0069
   59MOL   O25339809   6.430   6.974   0.411  0.0372 -0.3975 -0.1107
   59MOL   C25439810   6.309   6.964   0.478 -0.6418 -0.0409 -0.0561
   59MOL   C25539811   6.297   6.874   0.587 -0.2818 -0.5908 -0.1114
   59MOL   C25639812   6.168   6.864   0.647 -0.1099  0.1993  0.6258
   59MOL   C25739813   6.060   6.947   0.611 -0.2703 -0.2701 -0.1752
   59MOL   C25839814   6.081   7.039   0.506  0.3204  0.1217 -0.5735
   59MOL   C25939815   6.202   7.039   0.436 -0.1940  0.3771  0.0958
   59MOL   C26039816   6.439   6.750   0.331  0.7154 -0.5011 -0.4559
   59MOL   C26139817   6.513   6.641   0.294  0.3696  0.3110  0.0172
   59MOL   H26239818   6.862   6.577   0.027  0.2313  1.7884 -0.4670
   59MOL   H26339819   7.105   6.575   0.002 -1.6831  0.7381  0.0140
   59MOL   H26439820   7.148   6.473   0.421 -0.5627 -1.2613 -0.4089
   59MOL   H26539821   6.900   6.457   0.431  0.5904  0.6910  0.7389
   59MOL   H26639822   6.827   6.753   0.397 -0.8496 -0.1218  3.1536
   59MOL   H26739823   6.676   6.938   0.472  2.1199 -1.1760  0.0156
   59MOL   H26839824   6.383   6.820   0.624  1.3739  0.8734 -1.7335
   59MOL   H26939825   6.163   6.786   0.721 -0.9748 -3.2553 -2.8720
   59MOL   H27039826   5.996   7.086   0.460 -0.0850 -0.3262 -0.2856
   59MOL   H27139827   6.212   7.114   0.359 -1.8292  0.6014  0.0979
   59MOL   H27239828   6.332   6.743   0.321  0.3940  2.0412  0.8876
   59MOL   H27339829   6.467   6.559   0.240  0.7197  0.2183 -0.1431
   59MOL   C27439830   5.716   6.788   0.425  0.4599 -0.5243  0.3255
   59MOL   C27539831   5.831   6.803   0.506 -0.2162 -0.5821  0.4354
   59MOL   C27639832   5.834   6.912   0.596  0.0617 -0.4978  0.1897
   59MOL   O27739833   5.940   6.931   0.673 -0.4305 -0.2197 -0.1742
   59MOL   C27839834   5.720   6.997   0.608 -0.4743 -0.1037  0.3021
   59MOL   C27939835   5.607   6.971   0.535  0.2554  0.0643  0.6536
   59MOL   C28039836   5.602   6.866   0.441  0.2588  0.7678 -0.0070
   59MOL   C28139837   5.480   6.847   0.348  0.5148  0.2272 -0.8248
   59MOL   O28239838   5.474   6.766   0.255 -0.1592  0.8286  0.1910
   59MOL   C28339839   5.365   6.938   0.367 -0.2860  0.1037  0.3959
   59MOL   C28439840   5.373   7.067   0.322 -0.4277  0.3324 -1.0539
   59MOL   C28539841   5.260   7.160   0.341 -0.9792  0.1868  0.3810
   59MOL   C28639842   5.147   7.117   0.409  0.1971  0.2621 -0.9859
   59MOL   O28739843   5.053   7.212   0.435  0.1340 -0.1627  0.3460
   59MOL   C28839844   4.957   7.201   0.532  0.6587 -0.0376 -0.1801
   59MOL   C28939845   4.994   7.227   0.670  0.1578 -0.2273  0.1100
   59MOL   C29039846   4.894   7.211   0.770  0.5190  0.4278  0.2210
   59MOL   C29139847   4.762   7.178   0.729 -0.1715  0.3058 -0.2709
   59MOL   C29239848   4.729   7.155   0.592 -0.3990 -0.0598 -0.8073
   59MOL   C29339849   4.831   7.153   0.499  0.3230 -0.5979  0.2349
   59MOL   C29439850   5.137   6.981   0.456 -0.3098 -0.7551  0.3137
   59MOL   C29539851   5.247   6.889   0.432 -0.1551 -0.6331  0.3269
   59MOL   H29639852   5.721   6.703   0.358 -1.6116 -1.1165  0.8939
   59MOL   H29739853   5.912   6.734   0.488  1.2898  1.3326 -0.2667
   59MOL   H29839854   5.726   7.080   0.676 -1.0591 -0.0046  0.2336
   59MOL   H29939855   5.525   7.038   0.553  0.4153  0.6769 -0.7903
   59MOL   H30039856   5.466   7.108   0.286  0.1215 -0.8113 -0.9609
   59MOL   H30139857   5.267   7.265   0.314  0.6082 -0.1858 -0.7911
   59MOL   H30239858   5.091   7.266   0.698  0.4595 -1.5304  0.9404
   59MOL   H30339859   4.914   7.223   0.876  0.6376 -1.0011  0.3691
   59MOL   H30439860   4.629   7.138   0.558 -1.1509  2.3057  0.0855
   59MOL   H30539861   4.810   7.124   0.396 -1.6768  0.3030  0.3682
   59MOL   H30639862   5.052   6.936   0.506  2.0034 -2.4484  2.8654
   59MOL   H30739863   5.234   6.786   0.459  1.7398 -1.1904 -0.7762
   59MOL   C30839864   4.459   7.342   1.070 -0.2193  0.0649 -0.0832
   59MOL   C30939865   4.535   7.241   1.008  0.1120  0.0404 -0.0769
   59MOL   C31039866   4.607   7.267   0.889  0.0380  0.3685  0.1153
   59MOL   O31139867   4.670   7.162   0.826  0.6236 -0.3549 -0.3232
   59MOL   C31239868   4.613   7.396   0.834 -0.1254 -0.4817 -1.3219
   59MOL   C31339869   4.528   7.498   0.891  0.0560  0.1735 -0.4688
   59MOL   C31439870   4.454   7.471   1.010 -0.3102 -0.6116 -0.4889
   59MOL   C31539871   4.377   7.580   1.072 -0.0874 -0.5726  0.3731
   59MOL   O31639872   4.279   7.559   1.142  0.3355 -0.2929  0.0021
   59MOL   C31739873   4.436   7.719   1.079 -0.3590  0.2832  0.2626
   59MOL   C31839874   4.350   7.831   1.083  0.4787 -0.3785 -0.1858
   59MOL   C31939875   4.400   7.960   1.093 -0.4894 -0.1265  0.6837
   59MOL   C32039876   4.539   7.976   1.112  0.6501  0.0860  0.8449
   59MOL   O32139877   4.587   8.104   1.129  0.2402 -0.2395 -0.5457
   59MOL   C32239878   4.540   8.168   1.250  0.4286  0.1203 -0.3541
   59MOL   C32339879   4.499   8.301   1.248 -0.9755 -0.1434  0.0727
   59MOL   C32439880   4.432   0.048   1.361 -0.4245 -0.3203 -0.2912
   59MOL   C32539881   4.404   8.286   1.477 -0.4823 -0.3693  0.3472
   59MOL   C32639882   4.450   8.147   1.481 -0.0230  0.1446  0.5981
   59MOL   C32739883   4.525   8.098   1.370 -0.1208  0.0004  0.3308
   59MOL   C32839884   4.627   7.870   1.114  0.0680 -0.5824 -0.0036
   59MOL   C32939885   4.578   7.741   1.102  0.6284 -0.2369  0.6550
   59MOL   H33039886   4.387   7.316   1.147  0.5358  2.3042  1.4289
   59MOL   H33139887   4.533   7.142   1.052 -3.2538 -1.0702 -2.5613
   59MOL   H33239888   4.656   7.412   0.737  0.1445 -1.2227 -1.3220
   59MOL   H33339889   4.513   7.592   0.840  0.7173  0.4517 -0.1573
   59MOL   H33439890   4.245   7.804   1.084  0.0406  1.2602  0.5075
   59MOL   H33539891   4.328   8.040   1.084  0.2686  0.4441 -0.3159
   59MOL   H33639892   4.520   0.040   1.155  1.3495 -2.5589 -0.7938
   59MOL   H33739893   4.394   0.148   1.344 -1.3792 -0.9316 -1.8418
   59MOL   H33839894   4.427   8.084   1.566  1.8189 -1.8460 -0.3364
   59MOL   H33939895   4.560   7.996   1.384  0.3956  0.6012  3.9858
   59MOL   H34039896   4.732   7.879   1.136  0.1370  0.6304 -0.7956
   59MOL   H34139897   4.654   7.665   1.111  2.8606  1.9833  1.0554
   59MOL   C34239898   4.513   8.285   1.903 -0.1749 -0.5764  0.4799
   59MOL   C34339899   4.423   8.265   1.797 -0.2623 -0.3003 -0.4339
   59MOL   C34439900   4.432   0.049   1.694  0.1499  0.5946 -0.1525
   59MOL   O34539901   4.347   0.027   1.585  0.2015  0.1510 -0.5713
   59MOL   C34639902   4.525   0.159   1.699 -0.3141 -0.8949  0.0827
   59MOL   C34739903   4.605   0.182   1.810 -0.3640  0.8768 -0.3449
   59MOL   C34839904   4.595   0.092   1.915 -0.1107 -0.2835  0.6025
   59MOL   C34939905   4.662   0.127   2.050  0.4136  0.5233  0.1160
   59MOL   O35039906   4.625   0.066   2.152 -0.3647  0.5616 -0.0294
   59MOL   C35139907   4.754   0.241   2.081  0.4346 -0.7137  0.0402
   59MOL   C35239908   4.860   0.272   1.994 -0.2464  0.3449  0.6501
   59MOL   C35339909   4.947   0.377   2.019 -0.0330  0.4433  0.5184
   59MOL   C35439910   4.931   0.460   2.129 -0.4046  0.1301 -0.0636
   59MOL   O35539911   5.013   0.567   2.147 -0.5541  0.1908 -0.3005
   59MOL   C35639912   5.133   0.536   2.204  0.2651 -0.2828 -0.8506
   59MOL   C35739913   5.247   0.498   2.124  0.7802  0.2806  0.1355
   59MOL   C35839914   5.374   0.474   2.183 -0.5921  0.6627  0.9247
   59MOL   C35939915   5.389   0.500   2.323 -0.7986  0.1293 -0.2830
   59MOL   C36039916   5.276   0.532   2.405 -0.2789  0.5522 -0.5808
   59MOL   C36139917   5.154   0.557   2.340  0.4789 -0.3337 -0.2433
   59MOL   C36239918   4.835   0.429   2.222  0.2546  0.2132 -0.2626
   59MOL   C36339919   4.742   0.325   2.196  0.6425 -0.7299 -0.6423
   59MOL   H36439920   4.518   8.215   1.986  0.5798 -0.3039  0.6707
   59MOL   H36539921   4.358   8.180   1.782  0.0414 -0.6260  0.0774
   59MOL   H36639922   4.526   0.223   1.613  0.2193 -0.3603  0.4807
   59MOL   H36739923   4.670   0.268   1.824  0.1553  0.4116  0.1020
   59MOL   H36839924   4.889   0.194   1.926 -0.1635 -0.9769  2.1591
   59MOL   H36939925   5.036   0.393   1.959 -0.2690 -1.1345 -0.2555
   59MOL   H37039926   5.240   0.483   2.018 -0.1119 -1.1323  0.3897
   59MOL   H37139927   5.456   0.441   2.121 -2.8405 -1.1957 -1.1644
   59MOL   H37239928   5.287   0.559   2.509 -0.9268 -0.4778 -0.2383
   59MOL   H37339929   5.073   0.585   2.405  0.1724 -0.6160 -0.5069
   59MOL   H37439930   4.808   0.493   2.305  1.9348 -0.9196  1.1789
   59MOL   H37539931   4.668   0.299   2.270  0.1556 -1.9182 -1.5253
   59MOL   C37639932   5.706   0.788   2.295  0.6914  0.1277  0.0996
   59MOL   C37739933   5.613   0.703   2.355 -0.1952 -0.9695  0.7542
   59MOL   C37839934   5.616   0.564   2.333 -0.5628 -0.4209  0.0805
   59MOL   O37939935   5.509   0.489   2.384 -0.0099 -0.2702 -0.1007
   59MOL   C38039936   5.710   0.510   2.239  0.1288 -0.0953 -0.4954
   59MOL   C38139937   5.798   0.601   2.172  0.3437 -0.3899 -0.1277
   59MOL   C38239938   5.796   0.742   2.197 -0.0778 -0.5949  0.0169
   59MOL   C38339939   5.886   0.835   2.136 -0.7823 -0.2445 -0.3856
   59MOL   O38439940   5.850   0.918   2.050  0.4495  0.0614  0.4194
   59MOL   C38539941   6.022   0.855   2.203  0.0630  0.1718  0.3913
   59MOL   C38639942   6.064   0.778   2.311 -0.1686  0.3707  0.3592
   59MOL   C38739943   6.190   0.799   2.376  0.3603 -0.7759  0.5756
   59MOL   C38839944   6.278   0.907   2.330  0.3679  0.3868  0.0064
   59MOL   O38939945   6.403   0.927   2.380  0.7616  0.5637  0.0622
   59MOL   C39039946   6.509   0.909   2.294  0.4797  0.8344 -0.2151
   59MOL   C39139947   6.543   0.775   2.256 -0.7580 -0.0711  0.3560
   59MOL   C39239948   6.662   0.755   2.191 -0.1281  0.4598 -0.2324
   59MOL   C39339949   6.748   0.855   2.148 -0.1412 -0.5849  0.0861
   59MOL   C39439950   6.716   0.988   2.185 -0.2135 -0.1020 -0.2355
   59MOL   C39539951   6.600   1.011   2.258 -0.4590 -0.2451 -0.5243
   59MOL   C39639952   6.236   0.989   2.220 -0.5517 -0.5509  0.3335
   59MOL   C39739953   6.112   0.956   2.162  0.7775 -0.5183  0.5205
   59MOL   H39839954   5.699   0.890   2.329 -0.7558 -0.2157  0.8934
   59MOL   H39939955   5.538   0.751   2.416  1.0146  1.4643  0.4031
   59MOL   H40039956   5.713   0.402   2.234  1.5856 -0.0992  0.1858
   59MOL   H40139957   5.880   0.562   2.115 -0.1209 -1.9882  0.2541
   59MOL   H40239958   6.004   0.691   2.334 -1.1649  0.9640  0.0401
   59MOL   H40339959   6.224   0.723   2.445 -0.2860  0.1455  1.9421
   59MOL   H40439960   6.487   0.689   2.289  0.2687 -0.1238  2.0135
   59MOL   H40539961   6.686   0.652   2.170 -3.7770 -0.0787 -2.2194
   59MOL   H40639962   6.782   1.067   2.152 -1.4464  0.7313 -0.7851
   59MOL   H40739963   6.557   1.105   2.288 -0.3948 -0.6632  0.9060
   59MOL   H40839964   6.296   1.072   2.186  0.7711 -1.4847  0.3584
   59MOL   H40939965   6.084   1.021   2.080 -0.8295 -1.3088  0.4377
   59MOL   C41039966   6.826   0.803   1.722 -0.1073 -0.5633  0.0062
   59MOL   C41139967   6.841   0.862   1.849  0.5669 -0.2109 -0.0668
   59MOL   C41239968   6.859   0.777   1.960 -0.3393 -0.2974  0.0700
   59MOL   O41339969   6.866   0.833   2.087  0.1394  0.0362 -0.6056
   59MOL   C41439970   6.869   0.639   1.948 -0.1711  0.2941 -0.1427
   59MOL   C41539971   6.852   0.580   1.824  0.1448  0.6628  0.5039
   59MOL   C41639972   6.819   0.661   1.713  0.3053 -0.5625 -0.3084
   59MOL   C41739973   6.789   0.587   1.591 -0.4070  0.3928  0.1437
   59MOL   O41839974   6.833   0.616   1.481  0.5619  0.4758 -0.0038
   59MOL   C41939975   6.684   0.479   1.602  0.1095 -0.1378  0.5042
   59MOL   C42039976   6.566   0.494   1.678 -0.5337 -0.1270 -0.8153
   59MOL   C42139977   6.464   0.395   1.682  0.9395  0.4362  0.8150
   59MOL   C42239978   6.482   0.278   1.605 -0.5030  0.4093 -0.2104
   59MOL   O42339979   6.384   0.184   1.592  0.1463 -0.3240 -0.1239
   59MOL   C42439980   6.273   0.213   1.515  0.2176 -0.4417 -0.1562
   59MOL   C42539981   6.286   0.234   1.381  0.5435  0.0284  0.2277
   59MOL   C42639982   6.170   0.264   1.304 -0.1567 -0.0899 -0.2689
   59MOL   C42739983   6.044   0.266   1.366  0.0690  0.4571  0.3203
   59MOL   C42839984   6.033   0.237   1.504 -0.3658 -0.0578 -0.0079
   59MOL   C42939985   6.151   0.204   1.577 -1.5138 -0.0231 -0.8440
   59MOL   C43039986   6.600   0.262   1.530  0.0486  0.0035  0.5742
   59MOL   C43139987   6.699   0.362   1.535  0.2743  0.0397 -0.4217
   59MOL   H43239988   6.802   0.860   1.634 -1.5427 -1.3381 -0.1202
   59MOL   H43339989   6.833   0.968   1.868  3.1484  0.0014 -0.0103
   59MOL   H43439990   6.888   0.577   2.034 -0.9461  0.0068 -0.1844
   59MOL   H43539991   6.872   0.474   1.819 -2.0985  0.1842  0.8341
   59MOL   H43639992   6.556   0.590   1.727  3.2120 -0.3879  0.5942
   59MOL   H43739993   6.378   0.402   1.748 -0.0019 -0.1144 -0.3229
   59MOL   H43839994   6.384   0.230   1.337  1.2786  0.0780  1.8042
   59MOL   H43939995   6.183   0.283   1.198 -0.1777 -2.4821 -0.7503
   59MOL   H44039996   5.940   0.229   1.558  0.1865 -1.4048  0.7680
   59MOL   H44139997   6.157   0.192   1.684  2.1359  2.6067 -0.6867
   59MOL   H44239998   6.615   0.171   1.474 -1.3704  1.0041 -1.4988
   59MOL   H44339999   6.786   0.324   1.482  1.0268  1.0889  0.0418
   59MOL   C44440000   5.804   0.127   0.986  0.1209  0.0939 -0.2593
   59MOL   C44540001   5.881   0.215   1.067  1.3843 -0.3793 -0.2976
   59MOL   C44640002   5.882   0.194   1.211 -0.4653 -0.6042 -0.0196
   59MOL   O44740003   5.925   0.289   1.299  0.0324  0.6260  0.8491
   59MOL   C44840004   5.806   0.090   1.263  0.6202  0.1142 -0.4949
   59MOL   C44940005   5.742   0.002   1.181  0.1116 -0.1912 -0.3958
   59MOL   C45040006   5.732   0.021   1.047  0.0308 -0.4175  0.1839
   59MOL   C45140007   5.647   8.243   0.960  0.6675 -0.4898  0.0896
   59MOL   O45240008   5.567   8.170   1.014 -0.4764 -0.4835 -0.3807
   59MOL   C45340009   5.674   8.238   0.816  0.0887 -0.3599  0.1612
   59MOL   C45440010   5.796   8.217   0.746  0.4367  0.9932  0.5084
   59MOL   C45540011   5.810   8.209   0.610  0.1309  0.4739  0.7965
   59MOL   C45640012   5.703   8.210   0.526  0.5162  0.0037  0.2924
   59MOL   O45740013   5.716   8.203   0.392 -0.2360 -0.5832  0.0500
   59MOL   C45840014   5.813   8.284   0.326 -0.1920  0.4238 -0.3199
   59MOL   C45940015   5.930   8.231   0.267  0.4673 -0.3200  0.2015
   59MOL   C46040016   6.013   8.305   0.187  0.0780 -0.2429 -0.9887
   59MOL   C46140017   5.982   0.128   0.156  0.1159 -0.6297  0.7490
   59MOL   C46240018   5.861   0.184   0.210  0.0393 -0.2478 -0.0394
   59MOL   C46340019   5.778   0.109   0.298  0.1104 -0.5164 -1.0672
   59MOL   C46440020   5.576   8.219   0.585  0.6939 -0.7919  0.2370
   59MOL   C46540021   5.564   8.234   0.724 -0.5919 -0.0370  0.3976
   59MOL   H46640022   5.799   0.140   0.879  0.6784 -0.6059 -0.3704
   59MOL   H46740023   5.935   0.295   1.020 -0.3087  1.1346  0.2594
   59MOL   H46840024   5.805   0.076   1.370  1.2526  1.5697 -0.2913
   59MOL   H46940025   5.683   8.243   1.238  0.2447  0.2959  0.3689
   59MOL   H47040026   5.891   8.211   0.797  0.8878  1.3237 -0.2828
   59MOL   H47140027   5.906   8.200   0.561 -0.7419 -0.9032 -0.7211
   59MOL   H47240028   5.945   8.124   0.276  0.4710 -0.1018  3.1012
   59MOL   H47340029   6.100   8.262   0.139  1.1360  0.6904  0.0677
   59MOL   H47440030   5.841   0.286   0.179 -2.3837 -0.3539  0.9915
   59MOL   H47540031   5.690   0.142   0.351 -0.1861 -2.9118 -0.0292
   59MOL   H47640032   5.493   8.220   0.516  2.1171  1.3311 -1.5189
   59MOL   H47740033   5.462   8.225   0.757 -0.5474 -1.9677  0.1006
   59MOL   C47840034   6.213   0.506   0.202  0.7163 -0.9989  0.5189
   59MOL   C47940035   6.172   0.372   0.189 -1.2864 -0.5393 -0.0652
   59MOL   C48040036   6.085   0.334   0.088  0.1063  0.3398  0.6978
   59MOL   O48140037   6.056   0.203   0.064 -0.0445  0.1434 -0.5913
   59MOL   C48240038   6.045   0.432   8.306 -0.1135  0.9063 -0.7399
   59MOL   C48340039   6.078   0.569   0.016  0.3043 -0.5162 -0.2646
   59MOL   C48440040   6.161   0.606   0.122 -0.1814 -0.0043 -0.3324
   59MOL   C48540041   6.200   0.747   0.137 -0.0338  0.0826  0.5206
   59MOL   O48640042   6.315   0.782   0.164 -0.2335  0.4016  0.7239
   59MOL   C48740043   6.096   0.852   0.112  0.3319  0.8380 -0.8341
   59MOL   C48840044   5.961   0.824   0.127  0.1717 -0.1144  0.4394
   59MOL   C48940045   5.870   0.930   0.104  1.0026 -0.4736 -1.0458
   59MOL   C49040046   5.916   1.061   0.084  0.7942 -0.2057 -0.4154
   59MOL   O49140047   5.827   1.156   0.063  0.1120 -0.8389 -0.5097
   59MOL   C49240048   5.733   1.199   0.160 -0.1042 -0.1555 -0.1247
   59MOL   C49340049   5.608   1.237   0.121 -0.1629 -0.1268 -0.4380
   59MOL   C49440050   5.513   1.282   0.210 -0.1780  0.1030 -0.1565
   59MOL   C49540051   5.543   1.288   0.350 -0.0672 -0.2311  0.2239
   59MOL   C49640052   5.673   1.247   0.396 -0.1511 -0.5010 -0.6399
   59MOL   C49740053   5.765   1.207   0.296  0.2415  0.9106  0.0280
   59MOL   C49840054   6.050   1.091   0.087  0.2493 -0.2850  0.1284
   59MOL   C49940055   6.141   0.984   0.104  0.8801  0.5581 -0.3692
   59MOL   H50040056   6.275   0.531   0.286  0.8285 -0.7044  0.3483
   59MOL   H50140057   6.194   0.299   0.265 -1.1887 -0.2039  0.2304
   59MOL   H50240058   5.993   0.402   8.216  1.3086 -0.1925 -1.2245
   59MOL   H50340059   6.032   0.644   8.266 -1.4730  0.4819  2.1831
   59MOL   H50440060   5.926   0.722   0.136  0.2966 -0.1425  0.6060
   59MOL   H50540061   5.763   0.916   0.098  0.8100  0.4897  0.0703
   59MOL   H50640062   5.576   1.244   0.018 -2.5992 -0.1558  0.2755
   59MOL   H50740063   5.416   1.322   0.182  0.0421  1.5262  1.0809
   59MOL   H50840064   5.700   1.265   0.499 -0.8115  2.6462 -0.9598
   59MOL   H50940065   5.869   1.192   0.321 -0.5931 -2.0238  2.0010
   59MOL   H51040066   6.092   1.190   0.085 -0.8382  0.2136  1.4239
   59MOL   H51140067   6.247   1.003   0.107  0.8415  0.7237 -0.0422
   59MOL   C51240068   5.256   1.651   0.452 -0.8484 -0.1292 -0.0149
   59MOL   C51340069   5.293   1.513   0.459 -0.5556  0.1353  0.2518
   59MOL   C51440070   5.423   1.471   0.441 -0.1712  0.1180 -0.2108
   59MOL   O51540071   5.445   1.337   0.436 -0.2129 -0.7436 -0.4454
   59MOL   C51640072   5.528   1.569   0.426 -0.5515 -0.2662 -0.3042
   59MOL   C51740073   5.495   1.707   0.427 -0.0643 -0.0215 -1.1143
   59MOL   C51840074   5.357   1.748   0.442  0.0181 -0.5668  0.1245
   59MOL   C51940075   5.320   1.896   0.427  0.2656 -0.1846  0.8072
   59MOL   O52040076   5.212   1.926   0.381  0.5921 -0.0958  0.4536
   59MOL   C52140077   5.421   2.003   0.456  0.0736 -0.2401  0.5877
   59MOL   C52240078   5.512   1.990   0.565 -0.1359 -0.0202  0.2984
   59MOL   C52340079   5.615   2.081   0.585 -0.1425  0.0709 -0.0692
   59MOL   C52440080   5.623   2.196   0.498  0.1101 -0.2032 -0.0450
   59MOL   O52540081   5.723   2.289   0.510  0.6329  0.5902 -1.0796
   59MOL   C52640082   5.819   2.286   0.413  0.2229 -0.3719 -0.2389
   59MOL   C52740083   5.824   2.391   0.316 -0.2271  0.1384  0.1258
   59MOL   C52840084   5.932   2.392   0.219  0.6343 -0.2166  0.2182
   59MOL   C52940085   6.024   2.289   0.217 -0.2407  0.6635 -0.0140
   59MOL   C53040086   6.009   2.178   0.305 -0.0397  0.0388  0.4057
   59MOL   C53140087   5.921   2.187   0.411 -0.0108 -0.0663 -0.0451
   59MOL   C53240088   5.522   2.213   0.395  0.0714 -0.2759  0.5055
   59MOL   C53340089   5.425   2.119   0.375  0.3852  0.0700 -0.2856
   59MOL   H53440090   5.153   1.680   0.468 -0.4958  1.8185 -1.0423
   59MOL   H53540091   5.220   1.435   0.470 -1.4977  0.5837 -2.5121
   59MOL   H53640092   5.632   1.544   0.412  0.6176  3.9264  0.1526
   59MOL   H53740093   5.568   1.785   0.414  1.5984 -1.1693  1.0454
   59MOL   H53840094   5.525   1.902   0.626  1.6024 -0.0070 -0.0169
   59MOL   H53940095   5.686   2.063   0.665 -0.7254  0.5612  0.5599
   59MOL   H54040096   5.747   2.466   0.322 -1.8732 -1.5956  1.4345
   59MOL   H54140097   5.933   2.470   0.144  1.3406 -1.5150 -1.1536
   59MOL   H54240098   6.074   2.092   0.296 -2.3569 -1.5674 -1.6013
   59MOL   H54340099   5.915   2.104   0.481  0.4140 -2.7852 -3.1111
   59MOL   H54440100   5.527   2.298   0.329  1.2647  0.3688  1.3986
   59MOL   H54540101   5.348   2.129   0.300 -1.1522  1.0982  1.3784
   59MOL   C54640102   6.146   2.287   8.069  0.5817  0.6338  0.3238
   59MOL   C54740103   6.152   2.336   8.201 -0.2664  0.0490  0.2156
   59MOL   C54840104   6.114   2.252   8.308 -0.1255 -0.1582 -0.3431
   59MOL   O54940105   6.132   2.287   0.128 -0.2411 -0.5703  0.0655
   59MOL   C55040106   6.063   2.128   8.275 -1.0343  0.8063 -0.6145
   59MOL   C55140107   6.067   2.076   8.144  0.2301  0.0128 -0.2358
   59MOL   C55240108   6.114   2.157   8.043  0.0519 -0.3059  0.0827
   59MOL   C55340109   6.134   2.114   7.897  0.3260 -0.5924  0.0019
   59MOL   O55440110   6.074   2.163   7.798  0.0865 -0.7063 -0.3336
   59MOL   C55540111   6.257   2.039   7.866 -0.2998  0.1433 -0.4442
   59MOL   C55640112   6.345   2.067   7.767  0.1222 -0.2374  0.0698
   59MOL   C55740113   6.465   1.995   7.741 -0.2529  0.1067  0.1099
   59MOL   C55840114   6.487   1.875   7.808  0.1454 -0.0267  0.3588
   59MOL   O55940115   6.611   1.824   7.791 -0.0181 -0.0548 -0.0782
   59MOL   C56040116   6.639   1.703   7.846 -0.5929 -0.4350  0.1170
   59MOL   C56140117   6.723   1.688   7.964  0.2814  0.0228 -0.2394
   59MOL   C56240118   6.756   1.555   8.009 -0.0096  0.0968  0.0518
   59MOL   C56340119   6.709   1.444   7.935  0.2097  0.7960  0.4341
   59MOL   C56440120   6.622   1.462   7.823  0.1964 -0.6493  0.1835
   59MOL   C56540121   6.591   1.591   7.778  0.6828 -0.1597  0.1859
   59MOL   C56640122   6.388   1.830   7.900 -1.1059 -0.1940 -0.2828
   59MOL   C56740123   6.281   1.919   7.930 -0.1850  0.0962  0.2561
   59MOL   H56840124   6.187   2.353   7.994 -1.4103  1.4969 -0.0445
   59MOL   H56940125   6.184   2.438   8.217  0.3449 -0.2002  0.6032
   59MOL   H57040126   6.033   2.064   0.045 -1.7800  1.4001 -0.4202
   59MOL   H57140127   6.029   1.975   8.133 -3.3066  1.3835 -0.9639
   59MOL   H57240128   6.333   2.163   7.719 -1.0603  0.0020  0.8340
   59MOL   H57340129   6.534   2.043   7.674 -1.5195 -0.7627 -1.8573
   59MOL   H57440130   6.763   1.777   8.012 -1.5715  1.1037 -0.6431
   59MOL   H57540131   6.822   1.541   8.093 -1.5031 -1.1612  1.0456
   59MOL   H57640132   6.588   1.372   7.775  0.6919 -1.9131  2.1026
   59MOL   H57740133   6.524   1.601   7.694  1.8798 -0.1786 -0.7807
   59MOL   H57840134   6.394   1.732   7.943  0.1098 -0.8046 -1.8160
   59MOL   H57940135   6.195   1.884   7.985 -1.4196  0.4686 -1.4080
   59MOL   C58040136   6.963   1.126   7.756  0.1847 -0.4486 -0.2912
   59MOL   C58140137   6.841   1.191   7.803  0.5589  0.3082  0.4608
   59MOL   C58240138   6.838   1.253   7.924  0.3486 -0.3862 -0.5303
   59MOL   O58340139   6.729   1.313   7.970  0.0484 -0.1364  0.2714
   59MOL   C58440140   6.949   1.267   8.000  0.0725 -0.3566 -0.2517
   59MOL   C58540141   7.073   1.220   7.954 -0.0360 -0.2450  0.2863
   59MOL   C58640142   7.077   1.145   7.837  0.1509  0.4238 -0.3148
   59MOL   C58740143   7.207   1.089   7.798  0.6498 -0.5236 -0.3472
   59MOL   O58840144   7.302   1.165   7.778 -0.3327  0.0078  0.1591
   59MOL   C58940145   7.227   0.947   7.791 -0.3345  0.4705 -0.3685
   59MOL   C59040146   7.329   0.894   7.705 -1.0715  0.5645 -0.2774
   59MOL   C59140147   7.338   0.753   7.681 -0.0064 -1.0207 -0.5256
   59MOL   C59240148   7.265   0.667   7.768 -0.2666 -0.1432  0.0564
   59MOL   O59340149   7.277   0.530   7.771  0.1711  0.3275  0.3762
   59MOL   C59440150   7.278   0.448   7.660  0.3229  0.1373  0.0412
   59MOL   C59540151   7.354   0.333   7.657  0.0320 -0.2434 -0.4321
   59MOL   C59640152   7.345   0.245   7.549 -0.0586 -0.0632 -0.1396
   59MOL   C59740153   7.254   0.272   7.442  0.1990 -0.0599 -0.3217
   59MOL   C59840154   7.167   0.388   7.448  0.0640  0.4232  0.2575
   59MOL   C59940155   7.193   0.476   7.555  0.0713 -0.4273  0.0492
   59MOL   C60040156   7.163   0.718   7.854 -0.2157  0.4173 -0.5022
   59MOL   C60140157   7.142   0.857   7.858  0.1536 -0.5732  0.2705
   59MOL   H60240158   6.963   1.082   7.657 -1.2528 -2.3476  0.5204
   59MOL   H60340159   6.756   1.190   7.736  1.4749 -0.8614 -0.7062
   59MOL   H60440160   6.949   1.309   8.099 -0.9422 -1.3472  0.1785
   59MOL   H60540161   7.153   1.231   8.025  0.3734 -1.9200  0.0841
   59MOL   H60640162   7.402   0.958   7.657  0.0782 -1.4085 -1.1879
   59MOL   H60740163   7.403   0.714   7.604 -1.2587 -0.0807 -2.0866
   59MOL   H60840164   7.410   0.298   7.742 -1.0194 -0.3589  0.2152
   59MOL   H60940165   7.408   0.157   7.547 -0.0872 -0.2008  3.0597
   59MOL   H61040166   7.087   0.408   7.379 -0.2612 -2.8918 -0.4249
   59MOL   H61140167   7.128   0.561   7.557  1.7955  0.9126  0.2616
   59MOL   H61240168   7.115   0.643   7.916  0.9412 -1.1734 -1.4727
   59MOL   H61340169   7.072   0.899   7.929 -0.5526 -2.1367  0.5249
   59MOL   C61440170   7.375   0.294   7.010  0.6393 -0.1098  0.8713
   59MOL   C61540171   7.366   0.278   7.149  0.5081 -1.4578 -0.4478
   59MOL   C61640172   7.250   0.213   7.208 -0.1379  0.2074 -0.5616
   59MOL   O61740173   7.251   0.178   7.341 -0.2600  0.2129 -0.1699
   59MOL   C61840174   7.148   0.160   7.123  0.1950 -0.0861 -0.4844
   59MOL   C61940175   7.162   0.173   6.986 -0.5604 -0.0847  0.0927
   59MOL   C62040176   7.274   0.242   6.927 -0.9453 -0.1221 -0.6138
   59MOL   C62140177   7.276   0.255   6.781 -0.4464 -0.2282  0.1385
   59MOL   O62240178   7.173   0.309   6.729  0.0150  0.3381 -0.1147
   59MOL   C62340179   7.392   0.195   6.699 -0.2334  0.5517  0.3377
   59MOL   C62440180   7.504   0.125   6.758  0.1547  0.0202 -0.4295
   59MOL   C62540181   7.598   0.062   6.667 -0.0351 -0.5479 -0.8763
   59MOL   C62640182   7.587   0.082   6.527 -0.2327  0.7803 -0.3310
   59MOL   O62740183   7.687   0.040   6.441  0.2667  0.4464  0.3606
   59MOL   C62840184   7.701   8.219   6.413 -0.7368 -0.3755 -0.0193
   59MOL   C62940185   7.788   8.140   6.490 -0.5405 -0.3734 -0.2602
   59MOL   C63040186   7.806   8.009   6.457  0.2836  0.5082 -0.1892
   59MOL   C63140187   7.740   7.950   6.350  0.3651  0.1615  0.7036
   59MOL   C63240188   7.651   8.029   6.272 -0.0776  0.2281  0.2980
   59MOL   C63340189   7.632   8.164   6.304  0.4135 -0.1245 -0.3384
   59MOL   C63440190   7.488   0.166   6.476  0.4795  0.0363 -0.0971
   59MOL   C63540191   7.389   0.219   6.561  0.8246  0.7156  0.3652
   59MOL   H63640192   7.457   0.349   6.966  2.3012 -2.6020  0.7299
   59MOL   H63740193   7.451   0.317   7.203  0.9252  0.3513 -2.3672
   59MOL   H63840194   7.069   0.106   7.173 -0.8249 -0.1884 -2.1739
   59MOL   H63940195   7.090   0.128   6.919 -0.1928  0.7332 -0.8734
   59MOL   H64040196   7.513   0.097   6.862  0.3699 -2.5317 -1.0978
   59MOL   H64140197   7.680   0.011   6.715 -1.6644 -2.3214  0.0894
   59MOL   H64240198   7.841   8.193   6.568 -1.1985 -1.5664  0.9981
   59MOL   H64340199   7.875   7.952   6.518  0.8354  0.9798 -0.3581
   59MOL   H64440200   7.594   7.985   6.192 -1.1879 -0.5535  1.5055
   59MOL   H64540201   7.561   8.221   6.247  2.2655  0.2410 -2.3668
   59MOL   H64640202   7.492   0.181   6.369  1.9788  0.3865 -0.0095
   59MOL   H64740203   7.300   0.271   6.529  1.1861  1.4291  0.4967
   59MOL   C64840204   7.661   7.499   6.499 -0.0875  0.2744 -0.2661
   59MOL   C64940205   7.736   7.607   6.448  0.4234 -0.4520 -0.3082
   59MOL   C65040206   7.679   7.727   6.396 -0.7559 -0.9655 -0.9642
   59MOL   O65140207   7.755   7.818   6.322  0.0936 -0.0613 -0.2027
   59MOL   C65240208   7.539   7.740   6.401 -0.3005  0.6162 -0.0370
   59MOL   C65340209   7.457   7.633   6.448  0.2500 -0.9228  0.2299
   59MOL   C65440210   7.521   7.515   6.494  0.0241  0.0580 -0.1036
   59MOL   C65540211   7.424   7.413   6.545  0.1509  0.4902  0.5530
   59MOL   O65640212   7.306   7.407   6.504  0.2834  0.5825  0.0673
   59MOL   C65740213   7.473   7.317   6.644  0.6808 -0.1317  0.0581
   59MOL   C65840214   7.432   7.180   6.634  0.0069 -0.7641  0.3224
   59MOL   C65940215   7.485   7.083   6.717  0.0623 -0.1422 -0.1076
   59MOL   C66040216   7.563   7.118   6.829 -0.0578  0.4308  0.0009
   59MOL   O66140217   7.629   7.029   6.903 -0.2244 -0.3894  0.7435
   59MOL   C66240218   7.586   6.980   7.021  0.6223 -0.0612 -0.2149
   59MOL   C66340219   7.473   6.900   7.018 -0.2328 -0.5966  0.0710
   59MOL   C66440220   7.425   6.855   7.145  0.3658  0.0684  0.5971
   59MOL   C66540221   7.501   6.877   7.267 -0.5214  0.5515 -0.4043
   59MOL   C66640222   7.621   6.948   7.264  0.4989 -0.5129 -1.3715
   59MOL   C66740223   7.664   6.999   7.138 -0.4847  0.2119  0.1268
   59MOL   C66840224   7.586   7.251   6.861 -0.2280  0.7862 -0.1796
   59MOL   C66940225   7.547   7.355   6.760 -0.3265  0.6144 -0.7565
   59MOL   H67040226   7.709   7.410   6.537  0.1688 -0.0558 -1.3715
   59MOL   H67140227   7.843   7.598   6.440  0.3993 -1.0413  0.0408
   59MOL   H67240228   7.485   7.826   6.362 -0.6315 -0.2978 -1.6078
   59MOL   H67340229   7.350   7.643   6.439  0.2116 -1.0897  0.4787
   59MOL   H67440230   7.364   7.149   6.556 -0.5719 -0.3231  0.6439
   59MOL   H67540231   7.466   6.979   6.695 -2.4046  0.5093 -1.2985
   59MOL   H67640232   7.423   6.874   6.926  1.7822 -0.7897 -0.9835
   59MOL   H67740233   7.343   6.785   7.134  0.8532 -0.5266  0.7226
   59MOL   H67840234   7.669   6.964   7.359 -0.0553  2.1115 -1.4934
   59MOL   H67940235   7.755   7.057   7.131 -1.2065  1.0744 -2.6329
   59MOL   H68040236   7.631   7.274   6.957  0.0871  0.3865 -0.2306
   59MOL   H68140237   7.558   7.459   6.787 -2.0354  1.0739 -1.7372
   59MOL   H68240238   7.466   6.839   7.361  0.8721 -0.3358 -0.2209
   60MOL     C140239   1.822   6.724   0.997  0.5743  0.6988  0.0023
   60MOL     C240240   1.867   6.857   0.984  0.2102 -0.1769 -0.7913
   60MOL     C340241   1.997   6.877   0.937 -0.0262  0.2878  0.6424
   60MOL     O440242   2.037   7.003   0.915 -0.3211  0.0496 -0.8227
   60MOL     C540243   2.082   6.767   0.903  0.1809  0.2765 -0.0969
   60MOL     C640244   2.040   6.637   0.919 -0.0364 -0.0088 -0.2697
   60MOL     C740245   1.905   6.615   0.961 -0.4804 -0.3832  0.8181
   60MOL     C840246   1.862   6.471   0.975 -0.2906  1.2422  0.4845
   60MOL     O940247   1.845   6.396   0.881 -0.2819  0.1107 -0.2197
   60MOL    C1040248   1.852   6.423   1.116  0.2285 -0.1598  0.2090
   60MOL    C1140249   1.821   6.285   1.142 -0.3121  0.2964  0.2688
   60MOL    C1240250   1.811   6.243   1.272 -0.0378 -0.4400  1.2862
   60MOL    C1340251   1.816   6.330   1.383 -0.2517  0.0481  0.2973
   60MOL    O1440252   1.795   6.287   1.513  0.5252 -0.1962  0.4518
   60MOL    C1540253   1.866   6.341   1.621  0.0136 -0.5204  0.2529
   60MOL    C1640254   2.005   6.339   1.626 -0.2392  0.2217  0.2515
   60MOL    C1740255   2.077   6.407   1.732  0.5874  0.1033  0.3018
   60MOL    C1840256   2.003   6.482   1.825  0.0449 -0.0229  0.3724
   60MOL    C1940257   1.861   6.480   1.822  0.3346  0.1458 -0.4699
   60MOL    C2040258   1.799   6.417   1.717 -0.0350 -0.4569  0.1294
   60MOL    C2140259   1.848   6.469   1.362 -0.2583  1.0539 -0.5381
   60MOL    C2240260   1.869   6.510   1.229 -0.1172 -0.2265 -0.1638
   60MOL    H2340261   1.728   6.697   1.042  1.9707 -0.3516  2.4458
   60MOL    H2440262   1.809   6.938   1.026 -0.6073  0.4329 -3.0550
   60MOL    H2540263   2.180   6.780   0.858  1.3860  1.0670  2.6555
   60MOL    H2640264   2.093   6.546   0.892  0.7037  0.9095 -2.0007
   60MOL    H2740265   1.797   6.219   1.060  2.4193 -0.3601 -0.0287
   60MOL    H2840266   1.788   6.137   1.279 -1.2065 -0.2527  0.4800
   60MOL    H2940267   2.066   6.274   1.566  0.3936 -1.2655  2.4511
   60MOL    H3040268   2.185   6.410   1.732  0.5482  2.4768  0.9172
   60MOL    H3140269   1.801   6.533   1.894  0.0557 -0.9112  0.0787
   60MOL    H3240270   1.691   6.423   1.718  0.0877  1.7738  1.1327
   60MOL    H3340271   1.858   6.541   1.442  1.1402  0.3009 -0.0367
   60MOL    H3440272   1.899   6.613   1.219  0.4158 -0.4534 -0.9654
   60MOL    H3540273   1.968   7.065   0.926 -0.3194 -0.2495  1.1000
   60MOL    C3640274   2.049   6.913   1.893 -0.5114 -0.1504 -0.4895
   60MOL    C3740275   2.006   6.779   1.901  1.3160 -0.2058  0.0640
   60MOL    C3840276   2.100   6.675   1.909 -0.0067  0.1348  0.2398
   60MOL    O3940277   2.065   6.542   1.931  0.1622  0.1918  0.2578
   60MOL    C4040278   2.236   6.706   1.886 -0.2624  0.8358 -0.8174
   60MOL    C4140279   2.286   6.839   1.872  0.2916  0.0819  0.2851
   60MOL    C4240280   2.190   6.943   1.878  0.6654  0.0289  1.6000
   60MOL    C4340281   2.236   7.075   1.863  0.6677  0.0767  0.1243
   60MOL    O4440282   2.188   7.148   1.774 -0.5452 -0.0636 -0.5154
   60MOL    C4540283   2.342   7.133   1.957  0.0446  0.1107  0.5780
   60MOL    C4640284   2.374   7.069   2.082  0.0409 -0.2412 -0.2764
   60MOL    C4740285   2.467   7.123   2.172 -0.3376 -0.4130  0.5029
   60MOL    C4840286   2.534   7.240   2.137 -0.2151 -0.2251 -0.0668
   60MOL    O4940287   2.625   7.301   2.228  0.0510  0.1530 -0.8050
   60MOL    C5040288   2.572   7.342   2.355 -0.3282  1.2831 -0.4113
   60MOL    C5140289   2.516   7.467   2.370 -0.0556  0.1940 -0.7870
   60MOL    C5240290   2.460   7.496   2.496 -0.2812 -0.1895  0.2456
   60MOL    C5340291   2.492   7.416   2.613 -0.0647  0.1244 -0.0565
   60MOL    C5440292   2.548   7.290   2.593  0.2494  0.9851 -0.1134
   60MOL    C5540293   2.591   7.251   2.463  0.5680 -0.4254  0.5438
   60MOL    C5640294   2.501   7.307   2.013  0.8537 -0.2891  0.1022
   60MOL    C5740295   2.404   7.256   1.923 -0.1098  0.3518 -0.0370
   60MOL    H5840296   1.975   6.991   1.896  0.0047  0.3154  0.6136
   60MOL    H5940297   1.900   6.760   1.908  1.2543  0.1221 -0.0171
   60MOL    H6040298   2.308   6.626   1.894 -0.9266  0.3159  0.0384
   60MOL    H6140299   2.389   6.870   1.868  0.6874 -1.2366 -0.2199
   60MOL    H6240300   2.316   6.982   2.109  0.0694  0.3661  1.8907
   60MOL    H6340301   2.491   7.071   2.264  0.6309 -0.1702  0.3930
   60MOL    H6440302   2.491   7.536   2.291 -0.0349  3.3876  1.8540
   60MOL    H6540303   2.409   7.590   2.511  0.2933  0.3467 -1.1325
   60MOL    H6640304   2.549   7.219   2.675 -0.0485  0.8170 -0.2526
   60MOL    H6740305   2.639   7.154   2.463  0.5137 -0.4580 -1.0800
   60MOL    H6840306   2.551   7.397   1.980 -1.4954  1.0081 -0.0789
   60MOL    H6940307   2.381   7.320   1.839  1.3732 -0.6940 -1.2812
   60MOL    C7040308   2.732   7.633   2.919  0.2305 -0.2559 -0.2606
   60MOL    C7140309   2.657   7.528   2.864  0.1107  0.0845  0.0170
   60MOL    C7240310   2.545   7.559   2.791 -0.3913  0.8818 -0.7226
   60MOL    O7340311   2.464   7.460   2.744  0.0624 -0.1905 -0.1099
   60MOL    C7440312   2.498   7.688   2.781 -0.4380 -0.2186 -0.6133
   60MOL    C7540313   2.575   7.795   2.827  0.0347  0.1470  0.3986
   60MOL    C7640314   2.692   7.770   2.898 -0.6008 -0.5927  0.4106
   60MOL    C7740315   2.787   7.873   2.964 -0.0663 -0.3550 -0.3043
   60MOL    O7840316   2.911   7.860   2.954 -0.6455 -0.3129 -0.0733
   60MOL    C7940317   2.728   7.995   3.024  0.4279 -0.9220  0.4311
   60MOL    C8040318   2.796   8.120   3.016  0.1741  0.2356  0.4999
   60MOL    C8140319   2.738   8.242   3.069  0.0638  0.9044  0.2712
   60MOL    C8240320   2.613   8.232   3.134  0.3553 -0.0520 -0.4922
   60MOL    O8340321   2.553   0.035   3.186  0.2030  0.5531  0.2722
   60MOL    C8440322   2.544   0.143   3.104  0.3149  0.1892 -0.7760
   60MOL    C8540323   2.650   0.232   3.102 -0.0047 -0.5157 -0.1055
   60MOL    C8640324   2.646   0.350   3.018  0.4568  0.8292  0.2415
   60MOL    C8740325   2.526   0.371   2.947 -0.2725 -0.7788 -0.2104
   60MOL    C8840326   2.409   0.284   2.955  0.4221  0.0633 -0.5394
   60MOL    C8940327   2.419   0.171   3.042 -0.3745  0.0415  0.3687
   60MOL    C9040328   2.549   8.104   3.150  0.4723 -0.8785  0.1977
   60MOL    C9140329   2.603   7.990   3.090 -0.6421  0.5639  0.6263
   60MOL    H9240330   2.825   7.604   2.967  1.1611 -0.6622 -2.2615
   60MOL    H9340331   2.681   7.425   2.884  0.6465  0.3219  0.5977
   60MOL    H9440332   2.406   7.700   2.725 -0.6417 -2.4150 -0.8131
   60MOL    H9540333   2.540   7.894   2.802 -1.6232  0.0459  2.2095
   60MOL    H9640334   2.888   8.113   2.960  0.3784 -2.6933  1.0927
   60MOL    H9740335   2.793   0.022   3.067  0.8435  0.4367 -1.8859
   60MOL    H9840336   2.740   0.218   3.159  0.1920  0.5746 -0.1243
   60MOL    H9940337   2.732   0.413   3.000  1.7719 -1.1158 -0.4434
   60MOL   H10040338   2.313   0.302   2.909 -1.1352 -1.2770  2.0204
   60MOL   H10140339   2.339   0.099   3.050 -0.6375  0.3891  0.8586
   60MOL   H10240340   2.451   8.107   3.194  0.4342  0.4878  0.0377
   60MOL   H10340341   2.533   7.908   3.096 -0.1116  0.2185  2.2935
   60MOL   C10440342   2.667   0.596   2.560  0.3523  0.7593  0.9687
   60MOL   C10540343   2.623   0.602   2.691  0.5672 -0.4006 -0.0265
   60MOL   C10640344   2.575   0.481   2.742  0.3629 -0.2045 -0.7404
   60MOL   O10740345   2.517   0.485   2.869 -0.3303  0.0624  0.2889
   60MOL   C10840346   2.581   0.365   2.668 -0.3567 -0.5897  0.9100
   60MOL   C10940347   2.639   0.359   2.536 -0.3406 -0.4829 -0.0047
   60MOL   C11040348   2.679   0.478   2.485  0.5836  0.0997  0.7115
   60MOL   C11140349   2.728   0.482   2.340 -0.1718  0.2190 -0.0329
   60MOL   O11240350   2.659   0.429   2.256 -0.4910 -0.1540  0.1692
   60MOL   C11340351   2.859   0.554   2.299  0.8236 -0.3167  0.3716
   60MOL   C11440352   2.963   0.564   2.399  0.0458 -0.1930 -0.5071
   60MOL   C11540353   3.085   0.620   2.363 -0.4691 -0.2832 -0.5410
   60MOL   C11640354   3.099   0.666   2.229 -0.0538 -0.5438 -0.2676
   60MOL   O11740355   3.215   0.726   2.192 -0.2436  0.2459  0.1838
   60MOL   C11840356   3.303   0.649   2.109 -0.9269 -0.5000 -0.2354
   60MOL   C11940357   3.348   0.527   2.154 -0.2419  0.4925 -0.1640
   60MOL   C12040358   3.454   0.453   2.093 -0.7812 -0.0023  0.1048
   60MOL   C12140359   3.503   0.506   1.974 -0.4020  0.0148 -0.0266
   60MOL   C12240360   3.446   0.627   1.918  0.2044  0.2428 -0.2999
   60MOL   C12340361   3.348   0.697   1.987  0.6857  0.0280 -0.5072
   60MOL   C12440362   2.995   0.659   2.132 -0.1061  0.5739 -0.8568
   60MOL   C12540363   2.874   0.599   2.167  0.7921 -0.0256 -0.1534
   60MOL   H12640364   2.698   0.686   2.509  0.4803 -0.3703 -1.0328
   60MOL   H12740365   2.616   0.700   2.737  0.0854  0.2521 -1.4774
   60MOL   H12840366   2.542   0.271   2.703  0.3835 -1.6493 -1.0077
   60MOL   H12940367   2.644   0.271   2.474 -0.0375 -0.6418  0.2411
   60MOL   H13040368   2.954   0.536   2.503 -0.6152 -0.5661 -0.6629
   60MOL   H13140369   3.164   0.625   2.436 -0.0341  1.5166 -1.1096
   60MOL   H13240370   3.322   0.482   2.248 -1.0832 -0.0789 -0.6619
   60MOL   H13340371   3.500   0.370   2.145  0.8519 -0.2346 -1.6751
   60MOL   H13440372   3.488   0.661   1.824 -1.2707  0.7049 -0.8074
   60MOL   H13540373   3.331   0.799   1.957 -0.8508 -0.0853 -0.0570
   60MOL   H13640374   3.001   0.679   2.026 -1.1687  0.8627 -0.8707
   60MOL   H13740375   2.807   0.579   2.085  2.1849 -0.9601 -1.0911
   60MOL   C13840376   3.421   0.164   1.713  0.4417  0.2258  0.3803
   60MOL   C13940377   3.459   0.250   1.823 -0.0704  0.2916  0.5028
   60MOL   C14040378   3.564   0.344   1.810  0.4275 -0.5958  0.1445
   60MOL   O14140379   3.603   0.433   1.913 -0.4813  0.3618  0.2376
   60MOL   C14240380   3.634   0.353   1.686 -0.9234  0.0646 -0.0600
   60MOL   C14340381   3.594   0.260   1.579 -0.3484  0.0792  0.3898
   60MOL   C14440382   3.487   0.169   1.589  0.0187 -0.7959 -0.0242
   60MOL   C14540383   3.463   0.068   1.482  0.7499 -0.6296 -0.3790
   60MOL   O14640384   3.558   0.026   1.413  0.0425 -0.5097  0.1016
   60MOL   C14740385   3.320   0.031   1.445  0.3351  0.1719 -1.0719
   60MOL   C14840386   3.212   0.120   1.455 -0.4595 -0.6799 -0.0478
   60MOL   C14940387   3.082   0.082   1.419 -0.4649 -0.5165 -0.3851
   60MOL   C15040388   3.059   8.271   1.363 -0.2905 -0.2180 -0.0292
   60MOL   O15140389   2.933   8.230   1.330  0.6731 -0.1875 -0.5014
   60MOL   C15240390   2.857   0.009   1.263 -0.5719  0.1124  0.6265
   60MOL   C15340391   2.719   0.017   1.297 -0.1152 -0.2591  0.2282
   60MOL   C15440392   2.640   0.121   1.241 -0.3434  0.0104 -0.5223
   60MOL   C15540393   2.702   0.223   1.162 -0.6445 -0.2579  0.4865
   60MOL   C15640394   2.843   0.223   1.133 -0.0112  0.4589  0.3611
   60MOL   C15740395   2.913   0.110   1.173 -0.0118  0.2568 -1.0507
   60MOL   C15840396   3.168   8.179   1.350  1.0415 -0.3522 -0.0930
   60MOL   C15940397   3.295   8.212   1.393  0.3773  0.7527 -0.2779
   60MOL   H16040398   3.347   0.087   1.731 -0.6307  1.0414 -0.5256
   60MOL   H16140399   3.410   0.244   1.920  0.0090  0.4026  0.5504
   60MOL   H16240400   3.725   0.408   1.673  0.2115 -1.3874  1.4862
   60MOL   H16340401   3.661   0.242   1.496  1.2653 -2.8301  2.2276
   60MOL   H16440402   3.231   0.217   1.499  2.7331 -0.5828 -1.5663
   60MOL   H16540403   2.996   0.146   1.433 -0.2283 -0.8222  2.6607
   60MOL   H16640404   2.678   8.255   1.362 -0.8818  0.2461  0.3287
   60MOL   H16740405   2.535   0.135   1.266  0.2198  0.4389  1.6781
   60MOL   H16840406   2.884   0.290   1.060  0.8080 -0.3698  0.0463
   60MOL   H16940407   3.011   0.119   1.128  0.2189  0.4383 -0.5193
   60MOL   H17040408   3.162   8.081   1.306 -1.7978 -0.1461 -0.2403
   60MOL   H17140409   3.382   8.149   1.388 -0.0656  0.1317 -0.2567
   60MOL   C17240410   2.407   0.368   0.823 -0.2533  0.1334 -0.7178
   60MOL   C17340411   2.458   0.383   0.952  0.1551 -0.2344  0.2510
   60MOL   C17440412   2.568   0.299   0.989 -0.0747 -0.2793  0.6411
   60MOL   O17540413   2.618   0.319   1.117 -0.2355 -0.4929  0.2466
   60MOL   C17640414   2.608   0.190   0.901 -0.0103 -0.0309 -0.2201
   60MOL   C17740415   2.552   0.181   0.773 -0.4123  0.3006  0.6790
   60MOL   C17840416   2.454   0.271   0.731 -0.4938 -0.4987 -0.0722
   60MOL   C17940417   2.397   0.282   0.591 -0.4032 -0.0216 -0.0416
   60MOL   O18040418   2.290   0.344   0.568 -0.4116 -0.2259 -0.2714
   60MOL   C18140419   2.447   0.175   0.502  0.8900 -0.5653  0.6943
   60MOL   C18240420   2.364   0.074   0.450  0.3716 -0.3462 -0.0694
   60MOL   C18340421   2.425   8.293   0.366 -0.0071  0.1211 -0.6807
   60MOL   C18440422   2.552   8.305   0.322  0.2532 -0.6361  0.1721
   60MOL   O18540423   2.606   8.220   0.231  0.2451  0.2955  0.3418
   60MOL   C18640424   2.656   8.268   0.115 -0.0316 -0.6092  0.1009
   60MOL   C18740425   2.718   8.165   0.036  0.4184  0.4548  0.3537
   60MOL   C18840426   2.765   8.192   8.220  0.4942 -0.4998 -0.6441
   60MOL   C18940427   2.737   0.003   8.153 -0.4147 -0.1805 -0.2718
   60MOL   C19040428   2.657   0.093   8.224  0.4711 -0.1268 -0.0105
   60MOL   C19140429   2.624   0.080   0.049  0.5776 -0.0306 -0.4390
   60MOL   C19240430   2.624   0.101   0.371 -0.5135 -0.0857  0.6374
   60MOL   C19340431   2.579   0.191   0.463  0.1010  0.0898 -0.4322
   60MOL   H19440432   2.343   0.453   0.803 -2.7091 -1.1447  1.3955
   60MOL   H19540433   2.425   0.460   1.019  0.6947 -1.3420  1.8368
   60MOL   H19640434   2.691   0.126   0.929  1.4119  1.9062  0.1459
   60MOL   H19740435   2.586   0.109   0.699 -1.0382  0.9501 -0.2405
   60MOL   H19840436   2.258   0.071   0.474  0.4893  0.2421  0.5543
   60MOL   H19940437   2.373   8.220   0.307  2.6782 -1.8326 -0.7221
   60MOL   H20040438   2.726   8.066   0.076  0.4077  0.5435  0.5736
   60MOL   H20140439   2.831   8.115   8.183  1.4024 -0.2211  0.3783
   60MOL   H20240440   2.630   0.180   8.167 -0.6415 -1.9433 -2.3099
   60MOL   H20340441   2.559   0.149   0.102 -0.1134 -1.0382  0.0505
   60MOL   H20440442   2.722   0.109   0.326 -0.1004 -3.1115  0.8692
   60MOL   H20540443   2.650   0.265   0.496 -0.7879  0.6176  0.3185
   60MOL   C20640444   2.545   0.056   7.745  0.4771 -0.4215  0.2228
   60MOL   C20740445   2.636   0.096   7.847 -0.1368 -0.0881 -0.0941
   60MOL   C20840446   2.705   8.307   7.922 -0.2185 -0.6280  0.0493
   60MOL   O20940447   2.789   0.031   8.028  0.4046 -0.9683 -0.1800
   60MOL   C21040448   2.675   8.168   7.898  0.4474 -0.4930  0.5433
   60MOL   C21140449   2.578   8.129   7.808  0.3299 -0.1357 -0.9719
   60MOL   C21240450   2.512   8.233   7.728 -0.4650 -0.3271  0.4894
   60MOL   C21340451   2.402   8.199   7.635  0.2677  0.0069 -0.1003
   60MOL   O21440452   2.296   8.268   7.632 -0.0476  0.1497 -0.1535
   60MOL   C21540453   2.418   8.086   7.540 -0.2375 -0.5223  0.1691
   60MOL   C21640454   2.304   8.032   7.481 -0.0015 -0.0768 -0.4232
   60MOL   C21740455   2.322   7.920   7.395 -0.1356  0.1713  0.8190
   60MOL   C21840456   2.447   7.869   7.361  0.1020 -0.2316 -0.1239
   60MOL   O21940457   2.462   7.761   7.276  0.1165 -0.3459 -0.3242
   60MOL   C22040458   2.381   7.654   7.287  0.0505  0.8389  0.2508
   60MOL   C22140459   2.412   7.530   7.344  0.0456  0.1953 -0.3737
   60MOL   C22240460   2.321   7.426   7.347 -0.5949  0.2647  0.2429
   60MOL   C22340461   2.200   7.439   7.283 -0.0591 -0.3805 -0.3442
   60MOL   C22440462   2.157   7.562   7.234 -0.2070  0.1236 -0.1880
   60MOL   C22540463   2.252   7.664   7.226 -0.1340 -0.2108 -0.1378
   60MOL   C22640464   2.559   7.929   7.414  0.4661 -0.0805  0.3901
   60MOL   C22740465   2.548   8.035   7.505 -0.1191 -0.1141  0.2568
   60MOL   H22840466   2.492   0.133   7.691 -1.3246 -0.4833  1.8580
   60MOL   H22940467   2.656   0.201   7.858  0.4653 -0.1585 -0.5054
   60MOL   H23040468   2.731   8.098   7.959  0.4774  0.4916  1.6784
   60MOL   H23140469   2.559   8.024   7.790 -2.7108  0.3687 -1.0268
   60MOL   H23240470   2.211   8.085   7.491  0.0303  0.1651 -1.3119
   60MOL   H23340471   2.237   7.885   7.338 -0.6965 -0.3893  1.9788
   60MOL   H23440472   2.510   7.532   7.390  0.6084  0.8848 -1.5708
   60MOL   H23540473   2.346   7.345   7.414  0.8554 -0.6020 -1.3177
   60MOL   H23640474   2.056   7.573   7.199 -0.2274 -0.5148 -0.3398
   60MOL   H23740475   2.222   7.757   7.180 -0.6577  0.1679  0.9578
   60MOL   H23840476   2.655   7.884   7.396  0.1719 -0.5691  0.0085
   60MOL   H23940477   2.634   8.084   7.547 -0.8066 -0.4945  2.1945
   60MOL   C24040478   1.919   7.167   7.005 -0.3723  0.1655  0.1003
   60MOL   C24140479   1.956   7.232   7.122  0.1484  0.2591 -0.5852
   60MOL   C24240480   2.083   7.280   7.148  0.3045 -0.0436 -0.2521
   60MOL   O24340481   2.117   7.329   7.275  0.0490  0.2837  0.0593
   60MOL   C24440482   2.175   7.274   7.036 -0.1164  0.6910  0.1139
   60MOL   C24540483   2.134   7.212   6.912 -0.2829 -0.9056 -0.0494
   60MOL   C24640484   2.006   7.165   6.893 -0.0879 -0.3210 -0.3230
   60MOL   C24740485   1.970   7.104   6.756  0.9767  0.0560 -1.1311
   60MOL   O24840486   1.956   6.985   6.744  0.1238  0.3125 -1.1515
   60MOL   C24940487   1.938   7.199   6.647 -0.2083 -0.0243 -0.5385
   60MOL   C25040488   1.918   7.149   6.520 -0.3970 -0.1070  0.6462
   60MOL   C25140489   1.869   7.241   6.422 -0.7396  0.4082 -0.4906
   60MOL   C25240490   1.859   7.376   6.449 -0.4270 -1.0049  0.2537
   60MOL   O25340491   1.817   7.465   6.352  0.2049 -0.5039 -0.0115
   60MOL   C25440492   1.903   7.481   6.247 -0.2570 -0.4228  0.1666
   60MOL   C25540493   1.983   7.597   6.239 -0.3659 -0.3426  0.3325
   60MOL   C25640494   2.091   7.608   6.145  0.0667  0.2746 -0.1186
   60MOL   C25740495   2.100   7.510   6.041  0.2381  0.4878  0.6943
   60MOL   C25840496   2.007   7.409   6.038  0.0996 -0.0216  0.5729
   60MOL   C25940497   1.914   7.392   6.141 -0.4545 -0.6355 -0.2540
   60MOL   C26040498   1.897   7.427   6.575 -0.4692 -0.5052 -0.3985
   60MOL   C26140499   1.939   7.338   6.673 -0.2588 -0.0701 -0.3571
   60MOL   H26240500   1.819   7.126   7.002 -0.2409 -0.1035 -1.0347
   60MOL   H26340501   1.886   7.244   7.204 -0.2067  0.2079 -0.8797
   60MOL   H26440502   2.267   7.329   7.047 -0.4227  1.0220  1.1082
   60MOL   H26540503   2.200   7.213   6.826  3.2685 -0.8742  2.6027
   60MOL   H26640504   1.930   7.043   6.502  1.2698 -0.0930  1.6297
   60MOL   H26740505   1.831   7.194   6.333  1.5331 -1.1328 -0.6856
   60MOL   H26840506   1.970   7.665   6.321 -1.1791 -3.4518  2.8976
   60MOL   H26940507   2.158   7.692   6.139  0.8013 -0.3361 -0.6080
   60MOL   H27040508   2.012   7.342   5.952 -1.1116 -0.2491  0.6655
   60MOL   H27140509   1.852   7.304   6.140 -4.3972  1.9488  2.1602
   60MOL   H27240510   1.893   7.534   6.583 -1.0672 -0.4782 -0.9999
   60MOL   H27340511   1.967   7.380   6.768 -0.3774  0.2704 -0.4700
   60MOL   C27440512   2.560   7.528   6.048 -0.3017  0.1406 -0.0302
   60MOL   C27540513   2.433   7.483   6.003  0.5976  0.0838 -0.6061
   60MOL   C27640514   2.327   7.567   5.977 -0.3951  0.0410  0.1773
   60MOL   O27740515   2.203   7.518   5.947  0.1122  0.4907 -0.5008
   60MOL   C27840516   2.352   7.712   5.980  0.5183  0.1172 -0.4014
   60MOL   C27940517   2.483   7.752   6.017  0.4867  0.0106 -0.3030
   60MOL   C28040518   2.588   7.665   6.058  0.5978  0.1665 -0.0791
   60MOL   C28140519   2.727   7.719   6.083 -0.0521 -0.1388  0.5811
   60MOL   O28240520   2.749   7.839   6.057 -0.9668  0.0141  0.2451
   60MOL   C28340521   2.834   7.640   6.138  0.0126  0.2316  0.1148
   60MOL   C28440522   2.808   7.541   6.234 -0.6362 -0.2772  0.3445
   60MOL   C28540523   2.909   7.475   6.301 -0.1124  0.3664 -0.4132
   60MOL   C28640524   3.042   7.491   6.260 -0.0817  0.5177  0.6853
   60MOL   O28740525   3.133   7.394   6.304 -0.2750 -0.2502  0.3504
   60MOL   C28840526   3.201   7.408   6.425  0.3113 -0.0498  0.1845
   60MOL   C28940527   3.214   7.533   6.483  0.1037 -0.5925 -0.3795
   60MOL   C29040528   3.280   7.548   6.608  0.6070  0.3512  0.6042
   60MOL   C29140529   3.322   7.433   6.681  0.0642 -0.7005  0.3522
   60MOL   C29240530   3.303   7.313   6.618  0.3799  0.9907  0.1063
   60MOL   C29340531   3.244   7.297   6.494 -0.6110  0.1679 -0.0351
   60MOL   C29440532   3.076   7.588   6.160 -0.6414  0.0600 -0.8914
   60MOL   C29540533   2.970   7.663   6.110 -0.3233 -1.0389 -0.0052
   60MOL   H29640534   2.627   7.445   6.066 -1.3522 -1.2550 -2.3209
   60MOL   H29740535   2.419   7.377   5.992 -0.7551  0.3039 -1.0928
   60MOL   H29840536   2.294   7.798   5.950  1.1991 -0.3934 -3.3466
   60MOL   H29940537   2.505   7.858   6.015  2.6910 -0.4240 -1.8477
   60MOL   H30040538   2.708   7.516   6.267 -0.0646 -0.4608  1.9881
   60MOL   H30140539   2.883   7.405   6.379  1.3849 -0.2431 -0.4493
   60MOL   H30240540   3.174   7.623   6.438  1.2216 -0.3960 -1.0121
   60MOL   H30340541   3.303   7.645   6.651  2.2197 -0.3218  1.3039
   60MOL   H30440542   3.328   7.227   6.678  0.0010  0.6087 -0.2757
   60MOL   H30540543   3.239   7.202   6.443 -0.9459  0.2115 -0.0881
   60MOL   H30640544   3.182   7.604   6.147 -0.5372  0.5651  0.4230
   60MOL   H30740545   2.994   7.747   6.047  1.9581  0.0515  2.2368
   60MOL   C30840546   3.145   7.347   7.065 -0.2429  0.8695  1.0152
   60MOL   C30940547   3.237   7.340   6.960  0.8401  0.2264 -0.2189
   60MOL   C31040548   3.299   7.453   6.907  0.3174  0.1582 -0.4629
   60MOL   O31140549   3.383   7.439   6.799  0.3924  0.0111  0.1056
   60MOL   C31240550   3.262   7.577   6.959  0.1472 -0.3090  0.2020
   60MOL   C31340551   3.167   7.589   7.065  0.3531  0.6025  0.4844
   60MOL   C31440552   3.116   7.471   7.124  0.1740  0.6012  0.4772
   60MOL   C31540553   3.019   7.476   7.242  0.6670  0.2312  0.3294
   60MOL   O31640554   3.020   7.576   7.313  0.1934 -0.7691 -0.3557
   60MOL   C31740555   2.927   7.361   7.263  0.0459 -0.0614 -0.1435
   60MOL   C31840556   2.800   7.355   7.193 -1.4913 -0.5482 -0.6184
   60MOL   C31940557   2.715   7.248   7.213 -0.2849  0.9866  0.6259
   60MOL   C32040558   2.752   7.136   7.297  0.1240  0.8513  0.5925
   60MOL   O32140559   2.671   7.025   7.319 -0.2869 -0.0736  0.2136
   60MOL   C32240560   2.551   7.050   7.381 -0.2969  0.0979 -0.5250
   60MOL   C32340561   2.554   7.089   7.521  0.0332 -0.0215 -0.3707
   60MOL   C32440562   2.420   7.098   7.588  0.6085  0.0996  0.0422
   60MOL   C32540563   2.305   7.096   7.510  0.1688  0.5080  0.5359
   60MOL   C32640564   2.309   7.067   7.369 -0.7959  0.1949 -0.0094
   60MOL   C32740565   2.437   7.037   7.309  0.3405  0.1294  0.0042
   60MOL   C32840566   2.874   7.150   7.363  0.2888  0.6505  0.1317
   60MOL   C32940567   2.966   7.258   7.349 -0.7538  0.1724 -0.1967
   60MOL   H33040568   3.086   7.261   7.094 -1.4267  0.9886 -0.9836
   60MOL   H33140569   3.256   7.239   6.924 -0.6810 -0.4689  0.8685
   60MOL   H33240570   3.312   7.665   6.924  2.0058 -1.9526 -1.3814
   60MOL   H33340571   3.145   7.688   7.104  0.2099 -0.2745  2.6738
   60MOL   H33440572   2.776   7.429   7.118 -0.0382  1.5811  0.9838
   60MOL   H33540573   2.627   7.247   7.151 -1.8007 -0.3252  2.7322
   60MOL   H33640574   2.647   7.099   7.576  0.9638 -0.5655 -1.8306
   60MOL   H33740575   2.415   7.120   7.694  0.3508 -1.1541  0.3089
   60MOL   H33840576   2.224   7.056   7.303 -0.8056 -0.1762  0.0617
   60MOL   H33940577   2.441   7.010   7.205  1.7682  2.6607 -0.6511
   60MOL   H34040578   2.892   7.072   7.435 -1.1235 -0.0305 -0.2388
   60MOL   H34140579   3.046   7.259   7.422  0.3358 -0.1910 -1.3688
   60MOL   C34240580   1.827   7.115   7.469  0.0049 -0.5483 -0.9178
   60MOL   C34340581   1.960   7.165   7.495 -0.2779  0.7693  0.3498
   60MOL   C34440582   2.064   7.074   7.529  0.0538 -0.1811 -0.5853
   60MOL   O34540583   2.187   7.118   7.576 -0.5641 -0.2002 -0.5421
   60MOL   C34640584   2.039   6.936   7.530 -0.3232 -0.0568 -0.2696
   60MOL   C34740585   1.911   6.892   7.497 -0.4047 -0.3952 -0.2103
   60MOL   C34840586   1.799   6.974   7.472  0.3152  0.5015  0.3373
   60MOL   C34940587   1.660   6.932   7.463  0.8164 -0.3281 -0.1543
   60MOL   O35040588   1.572   7.011   7.435  0.1534 -0.3402 -0.1810
   60MOL   C35140589   1.623   6.791   7.480 -0.1348 -0.1049  0.6439
   60MOL   C35240590   1.629   6.737   7.606  0.5571  0.3134  0.3198
   60MOL   C35340591   1.591   6.609   7.626  1.4769  0.9520  0.2463
   60MOL   C35440592   1.532   6.531   7.525 -0.3109  0.2971 -0.2682
   60MOL   O35540593   1.492   6.405   7.562  0.2810  0.4849 -0.6397
   60MOL   C35640594   1.359   6.396   7.604  0.7324  0.6210 -0.4594
   60MOL   C35740595   1.312   6.443   7.729  0.0663 -0.0090  0.6396
   60MOL   C35840596   1.190   6.413   7.785 -0.1366  0.4417  0.5842
   60MOL   C35940597   1.106   6.327   7.711 -0.4326  0.1533 -0.4546
   60MOL   C36040598   1.149   6.280   7.584  0.3519 -0.7183 -0.1619
   60MOL   C36140599   1.274   6.314   7.532  0.4637  0.0172  0.1285
   60MOL   C36240600   1.541   6.580   7.390 -0.2076 -0.1649  0.1946
   60MOL   C36340601   1.581   6.711   7.368 -1.0791 -0.5358  0.0256
   60MOL   H36440602   1.748   7.187   7.454  0.6270  0.3081 -0.1938
   60MOL   H36540603   1.974   7.271   7.483 -0.1425  0.4868 -2.2553
   60MOL   H36640604   2.117   6.868   7.561 -0.6191 -0.5257 -0.5571
   60MOL   H36740605   1.898   6.785   7.499  0.8428 -0.5512 -0.4850
   60MOL   H36840606   1.657   6.804   7.686 -1.2511 -0.8850  1.9957
   60MOL   H36940607   1.587   6.574   7.728 -1.0331  2.2043  0.6279
   60MOL   H37040608   1.385   6.489   7.795  1.0638 -0.1654 -0.3312
   60MOL   H37140609   1.166   6.453   7.882 -0.4654  0.8596  0.3310
   60MOL   H37240610   1.091   6.212   7.523 -2.8988 -0.5761  2.5580
   60MOL   H37340611   1.312   6.260   7.447 -1.4989  0.4066 -1.0304
   60MOL   H37440612   1.510   6.510   7.314  0.0933 -0.8674  0.7054
   60MOL   H37540613   1.585   6.760   7.272  1.3903  2.3360  1.5268
   60MOL   C37640614   0.774   6.573   7.636  0.2064  0.1504  0.2590
   60MOL   C37740615   0.886   6.501   7.682 -0.4694  0.1871  0.4259
   60MOL   C37840616   0.873   6.371   7.729  0.1443  1.0270 -0.1133
   60MOL   O37940617   0.982   6.297   7.765  0.1935  0.2916  0.4816
   60MOL   C38040618   0.745   6.310   7.730  0.5095 -0.2177 -0.8506
   60MOL   C38140619   0.631   6.381   7.683 -0.5067  0.5533  0.4964
   60MOL   C38240620   0.642   6.514   7.632 -0.2259 -0.1922 -0.1757
   60MOL   C38340621   0.524   6.587   7.587 -0.1345 -0.5782  0.5759
   60MOL   O38440622   0.410   6.550   7.627  0.2037 -0.1724 -0.4593
   60MOL   C38540623   0.550   6.701   7.494 -0.0761  0.4943 -0.0502
   60MOL   C38640624   0.455   6.799   7.493  0.2822 -0.3174  0.6855
   60MOL   C38740625   0.451   6.900   7.390  0.4531 -0.0130 -0.6945
   60MOL   C38840626   0.542   6.898   7.285  0.3139 -0.7740  0.1671
   60MOL   O38940627   0.545   6.995   7.188 -0.3338  0.0415 -0.1172
   60MOL   C39040628   0.516   6.955   7.057  0.3811  0.4737  0.2302
   60MOL   C39140629   0.619   6.930   6.970  0.0469  0.4203 -0.3736
   60MOL   C39240630   0.594   6.865   6.840  0.6821 -0.1802 -0.2808
   60MOL   C39340631   0.460   6.845   6.796 -0.2077  1.1192 -0.0515
   60MOL   C39440632   0.354   6.891   6.886  0.2746  0.0383  0.6114
   60MOL   C39540633   0.381   6.931   7.015  0.3305 -0.7263 -0.6030
   60MOL   C39640634   0.638   6.794   7.282  0.6934  0.0418 -0.2315
   60MOL   C39740635   0.645   6.702   7.387  0.5315 -0.3962 -0.4185
   60MOL   H39840636   0.771   6.677   7.607 -0.0789  0.1300  0.2151
   60MOL   H39940637   0.978   6.559   7.678 -0.5021  0.2234  0.1195
   60MOL   H40040638   0.736   6.208   7.765  1.7582 -0.4252 -1.1304
   60MOL   H40140639   0.535   6.338   7.704 -1.1696  1.0593 -1.3695
   60MOL   H40240640   0.391   6.802   7.579 -1.9984 -0.3282 -0.9785
   60MOL   H40340641   0.381   6.976   7.420 -0.6845 -1.5597  0.6961
   60MOL   H40440642   0.722   6.950   6.998 -0.1110 -0.5147  0.8855
   60MOL   H40540643   0.679   6.838   6.778  0.4840  0.1045 -0.6782
   60MOL   H40640644   0.249   6.890   6.859  0.2686 -0.2993  0.6394
   60MOL   H40740645   0.296   6.966   7.072  0.2610  0.0238 -1.1574
   60MOL   H40840646   0.709   6.780   7.202 -1.2500 -1.1079 -1.7829
   60MOL   H40940647   0.706   6.615   7.366  2.6960  1.0722 -0.3299
   60MOL   C41040648   0.539   6.433   6.767  0.9525 -0.0380  0.0779
   60MOL   C41140649   0.483   6.557   6.774 -0.0607 -0.5286  0.2836
   60MOL   C41240650   0.493   6.654   6.667  0.3145  0.8229  0.6957
   60MOL   O41340651   0.437   6.781   6.676  0.3222 -1.2682  0.0929
   60MOL   C41440652   0.547   6.608   6.547  0.1028  0.1453  0.2239
   60MOL   C41540653   0.598   6.475   6.533  0.0436 -0.8120 -0.1685
   60MOL   C41640654   0.589   6.387   6.642 -0.2496 -0.3473 -0.6218
   60MOL   C41740655   0.638   6.253   6.633 -0.2166 -0.4389 -0.3760
   60MOL   O41840656   0.614   6.183   6.540 -0.5390  0.2435 -0.0208
   60MOL   C41940657   0.731   6.217   6.736 -0.7289 -0.6223  0.6101
   60MOL   C42040658   0.742   6.083   6.772 -0.6888 -0.3422  0.2478
   60MOL   C42140659   0.814   6.046   6.883  0.5397  0.0958 -0.3161
   60MOL   C42240660   0.890   6.147   6.947  0.1350  0.5288  0.1511
   60MOL   O42340661   0.964   6.109   7.060  0.1542 -0.2495 -0.3336
   60MOL   C42440662   0.911   6.091   7.179 -0.0645  0.3075 -0.0913
   60MOL   C42540663   0.875   5.960   7.224 -0.0477  0.1430 -0.3960
   60MOL   C42640664   0.814   5.936   7.352  0.5999  0.4820 -0.3757
   60MOL   C42740665   0.790   6.044   7.432 -0.8122 -0.7404 -0.5550
   60MOL   C42840666   0.823   6.178   7.390  0.7292 -0.3667  0.3124
   60MOL   C42940667   0.882   6.201   7.262 -0.0393  0.6477  0.1829
   60MOL   C43040668   0.882   6.285   6.914  0.3511 -0.0299  0.2011
   60MOL   C43140669   0.805   6.322   6.802 -0.6097 -0.4176  0.4423
   60MOL   H43240670   0.541   6.368   6.853 -1.5761 -1.7241 -1.0592
   60MOL   H43340671   0.424   6.588   6.859 -1.5432 -1.4381 -0.3881
   60MOL   H43440672   0.542   6.679   6.466 -1.7394  0.5685  0.6856
   60MOL   H43540673   0.639   6.448   6.437  0.1873 -3.4850  0.6039
   60MOL   H43640674   0.671   6.008   6.739  0.0975 -1.0013  0.0459
   60MOL   H43740675   0.806   5.946   6.925 -1.0344  0.7671  1.0223
   60MOL   H43840676   0.891   5.872   7.164 -1.8427  0.1035 -0.8457
   60MOL   H43940677   0.797   5.835   7.387  2.0071  0.2546 -0.2811
   60MOL   H44040678   0.788   6.263   7.448 -0.7213 -0.9618  0.3284
   60MOL   H44140679   0.898   6.303   7.231 -5.0256  0.7171 -2.7004
   60MOL   H44240680   0.923   6.358   6.982 -0.8926  0.8997 -0.0358
   60MOL   H44340681   0.791   6.428   6.785  1.2604 -0.0606  1.0450
   60MOL   C44440682   0.389   6.149   7.483 -0.3952 -0.4669 -0.4890
   60MOL   C44540683   0.518   6.106   7.459 -0.1546  0.3659  0.5704
   60MOL   C44640684   0.586   6.049   7.566 -0.1821 -1.2471 -0.1164
   60MOL   O44740685   0.724   6.014   7.554  0.2731  0.4004  0.2615
   60MOL   C44840686   0.532   6.035   7.701 -0.5979  0.0570  0.6303
   60MOL   C44940687   0.401   6.087   7.725  0.6822 -0.1533  0.0361
   60MOL   C45040688   0.328   6.142   7.614  0.8213  0.1794  0.3336
   60MOL   C45140689   0.197   6.210   7.645 -0.0363 -0.0016 -0.2039
   60MOL   O45240690   0.185   6.272   7.747 -0.5776  0.6847 -0.5420
   60MOL   C45340691   0.083   6.204   7.546 -0.5647  0.4203  0.6105
   60MOL   C45440692   8.297   6.296   7.554 -0.6139  0.2552 -0.3430
   60MOL   C45540693   8.177   6.282   7.488 -0.0438  0.1843  0.3656
   60MOL   C45640694   8.166   6.181   7.391  0.2027 -0.0042 -0.5414
   60MOL   O45740695   8.062   6.172   7.305  0.2806 -0.4616 -0.3894
   60MOL   C45840696   8.079   6.230   7.184 -0.5840  0.6197  0.1042
   60MOL   C45940697   8.188   6.319   7.152 -0.3308  0.0315 -0.6144
   60MOL   C46040698   8.194   6.373   7.028  0.5605 -0.3290  0.2507
   60MOL   C46140699   8.096   6.341   6.928 -0.0835  0.1366  0.6565
   60MOL   C46240700   7.985   6.255   6.960  0.3682 -0.2905  0.5374
   60MOL   C46340701   7.974   6.207   7.094 -0.0242 -0.2530  0.2714
   60MOL   C46440702   8.272   6.088   7.369 -0.0653  0.6244  0.7284
   60MOL   C46540703   0.074   6.094   7.455 -0.0117 -0.9028  0.1433
   60MOL   H46640704   0.334   6.188   7.399 -0.5267  1.9078  0.6718
   60MOL   H46740705   0.553   6.090   7.359 -1.4946  1.0009 -0.0147
   60MOL   H46840706   0.600   6.004   7.779  1.1378  0.8188 -0.5457
   60MOL   H46940707   0.361   6.073   7.824  3.1767  0.4836  1.1562
   60MOL   H47040708   8.306   6.369   7.632  1.0699  1.0970 -1.3140
   60MOL   H47140709   8.093   6.349   7.492 -0.4416 -0.3082  0.2025
   60MOL   H47240710   8.259   6.353   7.225  0.3588 -0.7797 -0.8972
   60MOL   H47340711   8.269   6.445   6.999 -0.1525 -0.2080 -1.3742
   60MOL   H47440712   7.910   6.227   6.888 -0.6819  1.3878  0.9747
   60MOL   H47540713   7.890   6.146   7.124 -0.6380  0.2564 -0.4039
   60MOL   H47640714   8.264   6.015   7.290  4.3224  3.0854 -2.1476
   60MOL   H47740715   0.154   6.024   7.440 -1.2736 -2.2010 -0.6598
   60MOL   C47840716   8.005   6.249   6.467 -0.0816 -0.0113 -0.5261
   60MOL   C47940717   7.990   6.315   6.589 -0.5548 -0.1394  0.0433
   60MOL   C48040718   8.095   6.313   6.688  0.8308 -0.0328  0.1162
   60MOL   O48140719   8.089   6.400   6.802 -0.6618 -0.2717  0.1356
   60MOL   C48240720   8.215   6.241   6.668 -0.4389  0.5761 -0.0797
   60MOL   C48340721   8.234   6.178   6.547 -0.5645  0.5681  0.7942
   60MOL   C48440722   8.130   6.179   6.447 -0.6345  0.8380 -0.1414
   60MOL   C48540723   8.168   6.117   6.319  0.8021 -0.0167 -0.0188
   60MOL   O48640724   8.277   6.138   6.267  0.5242  0.4794 -0.0403
   60MOL   C48740725   8.064   6.032   6.253 -0.3442  0.4623 -0.3175
   60MOL   C48840726   7.981   5.942   6.326 -0.1976  0.1952  0.8485
   60MOL   C48940727   7.873   5.876   6.261  0.2659 -0.2630 -0.4864
   60MOL   C49040728   7.861   5.888   6.126 -0.1997 -0.2240  0.0690
   60MOL   O49140729   7.756   5.828   6.056  0.4386 -0.5488 -0.0398
   60MOL   C49240730   7.727   5.690   6.078 -0.5718 -0.5326 -0.1919
   60MOL   C49340731   7.760   5.591   5.991  0.1333 -0.3389 -0.4282
   60MOL   C49440732   7.712   5.462   6.004 -0.5770 -0.2628  0.3603
   60MOL   C49540733   7.632   5.432   6.112  0.7306  0.5337  0.0964
   60MOL   C49640734   7.588   5.531   6.199  0.6745  0.3839  0.3685
   60MOL   C49740735   7.640   5.665   6.181  0.1344 -0.2224 -0.5311
   60MOL   C49840736   7.943   5.972   6.050  0.0053 -0.4558  0.5605
   60MOL   C49940737   8.046   6.041   6.113 -0.0124  0.4207 -0.2180
   60MOL   H50040738   7.930   6.272   6.392  0.5858 -2.8273 -2.1345
   60MOL   H50140739   7.893   6.356   6.613  0.6308  1.4749  2.3952
   60MOL   H50240740   8.292   6.245   6.744  0.5897  0.3612 -1.0941
   60MOL   H50340741   0.017   6.129   6.536 -2.0173 -1.8080 -2.0008
   60MOL   H50440742   7.995   5.940   6.433 -0.6534  0.5214  0.9145
   60MOL   H50540743   7.805   5.810   6.312 -0.0792  1.3361  1.1819
   60MOL   H50640744   7.828   5.628   5.915 -1.3115  1.8183 -0.6899
   60MOL   H50740745   7.741   5.392   5.927  2.1002  2.0505 -0.8018
   60MOL   H50840746   7.521   5.499   6.277 -0.2451 -2.6232 -1.5981
   60MOL   H50940747   7.608   5.743   6.247  4.0942  1.4482 -0.4502
   60MOL   H51040748   7.927   5.990   5.945  0.2223  1.1226  0.7858
   60MOL   H51140749   8.116   6.096   6.053 -0.4856 -1.2859 -2.4323
   60MOL   C51240750   7.614   4.971   6.274  0.0117 -0.4962 -0.3519
   60MOL   C51340751   7.567   5.082   6.201  0.2526  0.0621 -0.4676
   60MOL   C51440752   7.634   5.205   6.196 -0.3136  0.2626 -0.6502
   60MOL   O51540753   7.576   5.308   6.119  0.0400  0.7706 -0.2318
   60MOL   C51640754   7.758   5.211   6.263  0.1242 -0.2044  0.1239
   60MOL   C51740755   7.812   5.097   6.330 -0.8013  0.2738 -0.1146
   60MOL   C51840756   7.745   4.975   6.331  0.2197  0.2752  0.5558
   60MOL   C51940757   7.798   4.841   6.375  0.0092 -0.4233  0.1988
   60MOL   O52040758   7.720   4.769   6.439 -0.5204 -1.0381  0.7103
   60MOL   C52140759   7.926   4.789   6.325  0.2964 -0.3897  0.3027
   60MOL   C52240760   8.046   4.858   6.352  0.4781 -0.4758  0.0780
   60MOL   C52340761   8.174   4.803   6.333 -0.0906  0.2823 -0.5448
   60MOL   C52440762   8.181   4.671   6.278  0.0779  0.2045  0.0019
   60MOL   O52540763   8.298   4.606   6.256  0.4822  0.0155 -0.6737
   60MOL   C52640764   0.062   4.570   6.361 -0.2201  0.2520 -0.4953
   60MOL   C52740765   0.014   4.499   6.477 -0.4717  0.8046 -0.9753
   60MOL   C52840766   0.102   4.467   6.579 -0.4608  0.3368  0.5471
   60MOL   C52940767   0.238   4.510   6.583  0.0454 -0.2986  0.3897
   60MOL   C53040768   0.286   4.584   6.472  0.4478 -0.0382  0.6401
   60MOL   C53140769   0.198   4.614   6.361  0.0349 -0.4220 -0.9747
   60MOL   C53240770   8.063   4.606   6.249 -0.1973 -0.3432  0.6649
   60MOL   C53340771   7.937   4.655   6.279 -0.2920  0.1401  0.0819
   60MOL   H53440772   7.563   4.876   6.277  0.3199 -0.7032 -1.4863
   60MOL   H53540773   7.477   5.070   6.142  0.4366 -0.0990 -0.7217
   60MOL   H53640774   7.803   5.308   6.271  0.0233 -0.2086  0.8088
   60MOL   H53740775   7.907   5.112   6.379 -1.7479 -0.1498  1.9223
   60MOL   H53840776   8.053   4.955   6.398 -0.5220 -1.6399  2.7870
   60MOL   H53940777   8.265   4.856   6.359 -1.4218  1.3123  2.1766
   60MOL   H54040778   8.220   4.481   6.477 -0.0934 -1.6092 -0.2591
   60MOL   H54140779   0.053   4.434   6.670 -1.6959 -0.6411 -0.4464
   60MOL   H54240780   0.386   4.623   6.468  1.1360 -1.5689  2.4920
   60MOL   H54340781   0.237   4.664   6.274  3.0208 -1.6885 -0.4516
   60MOL   H54440782   8.070   4.505   6.212  0.3101 -0.6704  1.6572
   60MOL   H54540783   7.854   4.590   6.254 -0.8473  0.4718  1.0303
   60MOL   C54640784   0.531   4.228   6.793  0.4279 -0.0584  0.0022
   60MOL   C54740785   0.487   4.353   6.738 -0.8139  0.6647  0.2938
   60MOL   C54840786   0.352   4.371   6.730 -0.6221  0.0965 -0.2344
   60MOL   O54940787   0.317   4.496   6.693 -0.3741 -0.0040 -0.4787
   60MOL   C55040788   0.257   4.271   6.766  0.2143  0.4881 -0.0118
   60MOL   C55140789   0.306   4.146   6.812  0.3185  0.3572  0.2046
   60MOL   C55240790   0.443   4.127   6.835 -0.5793  0.0940  0.4642
   60MOL   C55340791   0.507   4.001   6.903  0.5570  0.1790 -0.8530
   60MOL   O55440792   0.627   3.979   6.906  0.5610 -0.5040  0.1638
   60MOL   C55540793   0.402   3.904   6.954 -0.4044  0.5863  0.2616
   60MOL   C55640794   0.306   3.936   7.058  0.1960  0.5194 -0.3155
   60MOL   C55740795   0.223   3.836   7.113 -0.0231 -0.8887  0.6455
   60MOL   C55840796   0.232   3.706   7.066  0.2649 -0.1484  0.0521
   60MOL   O55940797   0.167   3.600   7.131 -0.0991 -0.4565  0.5215
   60MOL   C56040798   0.210   3.567   7.253 -0.3148 -0.2514  0.3965
   60MOL   C56140799   0.313   3.472   7.257 -0.0080  0.2528 -0.0738
   60MOL   C56240800   0.351   3.420   7.385  0.0590  0.1682 -0.1566
   60MOL   C56340801   0.302   3.480   7.503 -0.3961  0.3634 -0.2965
   60MOL   C56440802   0.215   3.590   7.497  0.3734 -0.4435 -0.7825
   60MOL   C56540803   0.167   3.633   7.373  1.2464  0.0659  0.5909
   60MOL   C56640804   0.319   3.673   6.961 -0.6728 -0.2761 -0.3076
   60MOL   C56740805   0.405   3.772   6.908 -0.5554  0.0877 -0.2447
   60MOL   H56840806   0.636   4.206   6.805  0.2010 -1.1250  0.0342
   60MOL   H56940807   0.555   4.432   6.711 -0.6479 -0.1413 -1.7224
   60MOL   H57040808   0.150   4.288   6.764  0.6007  3.3928  1.0313
   60MOL   H57140809   0.233   4.069   6.830  3.8335 -2.5802  2.6349
   60MOL   H57240810   0.297   4.037   7.094  0.5478  0.4317  0.0290
   60MOL   H57340811   0.148   3.865   7.185 -0.1956 -1.0630  0.5326
   60MOL   H57440812   0.348   3.423   7.168  1.0885  0.6384  0.1442
   60MOL   H57540813   0.416   3.334   7.394  0.0208  0.0609 -0.8825
   60MOL   H57640814   0.172   3.625   7.590  2.4233 -0.8495  0.3403
   60MOL   H57740815   0.089   3.708   7.377  1.8629  0.6560  2.1155
   60MOL   H57840816   0.324   3.570   6.930  1.0868 -0.3892  0.3029
   60MOL   H57940817   0.480   3.738   6.838  1.4248 -1.2943  2.4807
   60MOL   C58040818   0.079   3.175   7.685  0.3125  0.0998  0.2768
   60MOL   C58140819   0.143   3.297   7.667  0.5895  0.0870 -0.2763
   60MOL   C58240820   0.282   3.307   7.654 -0.3566 -0.1123  1.2104
   60MOL   O58340821   0.336   3.427   7.625  0.4737 -0.2332  0.5564
   60MOL   C58440822   0.358   3.187   7.662 -0.1395 -0.3536 -0.2907
   60MOL   C58540823   0.292   3.068   7.692 -0.2804  0.4088  0.0855
   60MOL   C58640824   0.156   3.059   7.710 -0.0054 -0.3998 -0.1160
   60MOL   C58740825   0.093   2.927   7.737  0.1086  0.8142 -0.3526
   60MOL   O58840826   0.125   2.822   7.680  0.0497  0.2194  0.0538
   60MOL   C58940827   8.308   2.918   7.849 -0.0667 -0.4830 -0.0280
   60MOL   C59040828   0.021   2.973   7.976  0.5250  0.0247  0.0355
   60MOL   C59140829   8.236   2.974   8.074 -0.0422 -0.3275 -0.5442
   60MOL   C59240830   8.113   2.910   8.048 -0.0270 -0.4487  1.0987
   60MOL   O59340831   8.005   2.904   8.134  0.2356 -0.0032 -0.3087
   60MOL   C59440832   7.952   3.016   8.192 -0.8236 -0.2912  0.0894
   60MOL   C59540833   7.957   3.035   0.017 -0.3974 -0.1502 -0.0670
   60MOL   C59640834   7.893   3.146   0.078 -0.0037 -0.0058  0.4235
   60MOL   C59740835   7.819   3.237   8.307 -0.4531  0.6082 -0.7045
   60MOL   C59840836   7.819   3.222   8.163 -0.0309 -0.1529  0.3506
   60MOL   C59940837   7.887   3.112   8.109 -0.8379 -0.2035  0.2485
   60MOL   C60040838   8.091   2.839   7.926 -0.6583 -0.1958 -0.1687
   60MOL   C60140839   8.189   2.848   7.824 -1.0162 -0.6436 -0.3360
   60MOL   H60240840   8.285   3.169   7.701  0.5761 -0.7575  1.8948
   60MOL   H60340841   0.081   3.383   7.653  1.8522  0.8846 -1.0721
   60MOL   H60440842   0.464   3.201   7.643 -0.3695  0.7302 -0.8095
   60MOL   H60540843   0.356   2.982   7.703  0.2624  0.7558 -0.3476
   60MOL   H60640844   0.121   3.009   7.991  0.5492  1.0379 -2.2810
   60MOL   H60740845   8.249   3.022   8.170 -0.8928 -0.1384 -0.5220
   60MOL   H60840846   8.019   2.971   0.078 -0.3686  0.2008  0.2741
   60MOL   H60940847   7.902   3.166   0.184 -2.1904 -0.5258  0.7363
   60MOL   H61040848   7.771   3.301   8.107  0.1609  0.4702  1.0437
   60MOL   H61140849   7.885   3.095   8.002 -1.3452  1.3876 -0.0177
   60MOL   H61240850   8.002   2.781   7.905 -0.1097 -1.1431  0.0589
   60MOL   H61340851   8.180   2.801   7.727 -0.2375  1.2611 -1.3613
   60MOL   C61440852   7.921   3.652   0.062  0.7935 -0.5323 -0.5168
   60MOL   C61540853   7.890   3.512   0.037  0.0029  0.3651  0.4014
   60MOL   C61640854   7.758   3.461   0.053 -0.8699  0.9292  0.4028
   60MOL   O61740855   7.733   3.332   0.053 -0.2854  0.0550 -0.4532
   60MOL   C61840856   7.653   3.553   0.079  0.2751 -0.0106  0.1141
   60MOL   C61940857   7.679   3.691   0.081  0.6925  0.0529  0.2227
   60MOL   C62040858   7.813   3.739   0.074 -0.0075 -0.2291 -0.3260
   60MOL   C62140859   7.853   3.878   0.091 -0.4909 -0.7217  0.6561
   60MOL   O62240860   7.943   3.936   0.028 -0.1900  0.3365  0.6299
   60MOL   C62340861   7.789   3.952   0.201  0.7179 -0.1238  0.1332
   60MOL   C62440862   7.858   3.976   0.321 -0.2105 -0.3812 -0.3143
   60MOL   C62540863   7.797   4.044   0.428 -0.3171  0.1627  0.2541
   60MOL   C62640864   7.670   4.112   0.409 -0.0195 -0.4981 -0.4736
   60MOL   O62740865   7.641   4.196   0.513  0.1235  1.0193 -0.4647
   60MOL   C62840866   7.537   4.274   0.498 -0.0725 -0.5287  0.0775
   60MOL   C62940867   7.410   4.253   0.560 -0.5963  0.1254  0.3362
   60MOL   C63040868   7.303   4.338   0.537  0.1304 -0.8983 -0.3807
   60MOL   C63140869   7.326   4.465   0.472 -0.1149 -0.0240 -1.4134
   60MOL   C63240870   7.452   4.487   0.409  0.3084  0.2289 -0.6676
   60MOL   C63340871   7.555   4.387   0.418  0.1190 -0.1937  0.4884
   60MOL   C63440872   7.597   4.089   0.293  0.6801 -0.3095  0.2645
   60MOL   C63540873   7.658   4.012   0.190 -0.3631  0.7449  0.0511
   60MOL   H63640874   8.022   3.688   0.072 -0.2019  2.0601  0.8385
   60MOL   H63740875   7.975   3.449   0.014  0.0871  0.1493  1.2580
   60MOL   H63840876   7.553   3.512   0.082  0.2313  0.0831 -0.0651
   60MOL   H63940877   7.592   3.752   0.099  1.9580  1.4814  1.6732
   60MOL   H64040878   7.960   3.943   0.338 -0.9393 -3.0600 -0.9696
   60MOL   H64140879   7.850   4.061   0.521 -0.1518 -2.1298  0.6239
   60MOL   H64240880   7.415   4.167   0.625  1.9271 -0.4050 -0.5078
   60MOL   H64340881   7.208   4.308   0.579 -0.0831  1.1705  0.6910
   60MOL   H64440882   7.472   4.584   0.367  1.3775 -0.1989 -1.1625
   60MOL   H64540883   7.651   4.412   0.374  0.0914 -0.4468  0.2843
   60MOL   H64640884   7.507   4.143   0.267  0.9041  0.4329  1.0193
   60MOL   H64740885   7.599   4.001   0.100 -1.3450  2.0837  0.5144
   60MOL   C64840886   6.932   4.464   0.288 -0.4286 -0.0645  0.4293
   60MOL   C64940887   7.021   4.473   0.397  0.6718 -0.4335  0.4094
   60MOL   C65040888   7.137   4.549   0.377  0.6538  0.2579  0.7080
   60MOL   O65140889   7.233   4.558   0.475  0.3603 -0.5041  1.1848
   60MOL   C65240890   7.167   4.605   0.252 -0.0105  0.4122  0.4578
   60MOL   C65340891   7.079   4.589   0.144  0.5671 -0.2122  0.3606
   60MOL   C65440892   6.951   4.525   0.159 -0.1705  0.4186  0.3099
   60MOL   C65540893   6.838   4.519   0.056  0.3239 -0.4180  0.4129
   60MOL   O65640894   6.725   4.489   0.094 -0.3596 -0.2984  0.3264
   60MOL   C65740895   6.863   4.550   8.224 -0.5770 -0.3273  0.5007
   60MOL   C65840896   6.987   4.535   8.163  0.0867  0.3056  0.6634
   60MOL   C65940897   7.014   4.577   8.033  0.0892 -0.2155  0.0077
   60MOL   C66040898   6.918   4.656   7.965  0.4192  0.4449 -0.2050
   60MOL   O66140899   6.956   4.703   7.845  0.1798  0.5592  0.4737
   60MOL   C66240900   6.988   4.837   7.837  0.5200 -0.2305 -0.5164
   60MOL   C66340901   7.111   4.881   7.890  0.3402 -0.1600 -0.0498
   60MOL   C66440902   7.139   5.017   7.889  0.2474 -0.0741 -0.2166
   60MOL   C66540903   7.049   5.104   7.827 -0.3069 -0.7660  0.1241
   60MOL   C66640904   6.921   5.060   7.782  0.0516  0.0783  0.4541
   60MOL   C66740905   6.893   4.926   7.787  0.2138 -0.4920  0.7488
   60MOL   C66840906   6.793   4.677   8.029  0.1176  0.1075  0.2955
   60MOL   C66940907   6.756   4.619   8.155 -0.1140 -0.9802  0.4731
   60MOL   H67040908   6.840   4.409   0.306  1.5762 -2.9581  2.3557
   60MOL   H67140909   6.997   4.425   0.490 -2.9071 -1.6965 -1.0527
   60MOL   H67240910   7.253   4.666   0.231 -0.6461  1.2185  0.1688
   60MOL   H67340911   7.104   4.649   0.058 -2.1789 -1.7293 -1.5802
   60MOL   H67440912   7.069   4.477   8.203  0.0385  0.2411  0.6690
   60MOL   H67540913   7.100   4.542   7.978  0.2296 -0.6014  0.4765
   60MOL   H67640914   7.189   4.813   7.921  0.3264  0.3538  1.1225
   60MOL   H67740915   7.237   5.046   7.923 -0.6075  1.1833  1.2225
   60MOL   H67840916   6.850   5.129   7.738  0.3252 -0.4407 -0.8298
   60MOL   H67940917   6.799   4.882   7.756 -0.3291  0.5221  0.9305
   60MOL   H68040918   6.713   4.720   7.969  1.7267  1.9432 -0.5827
   60MOL   H68140919   6.658   4.641   8.195  0.0645 -0.1699  0.4711
   60MOL   H68240920   7.076   5.207   7.806 -0.8928 -0.3204  1.5235
   61MOL     C140921   7.670   3.471   1.831  0.6743  0.2955  0.0271
   61MOL     C240922   7.684   3.549   1.945 -0.1726 -0.1513 -0.6873
   61MOL     C340923   7.773   3.661   1.935  0.2609 -0.1874  0.5659
   61MOL     O440924   7.798   3.730   2.046  0.4585  0.1020 -0.0331
   61MOL     C540925   7.834   3.693   1.817  0.2079 -0.3793 -0.1828
   61MOL     C640926   7.809   3.617   1.701  0.2725 -0.1054  0.2353
   61MOL     C740927   7.727   3.501   1.702  0.1616 -0.4790  1.0317
   61MOL     C840928   7.701   3.437   1.567  0.0230  0.1740  0.0231
   61MOL     O940929   7.788   3.389   1.493  0.4109 -0.0317  0.0806
   61MOL    C1040930   7.558   3.425   1.521 -0.1106 -0.6220  0.2465
   61MOL    C1140931   7.520   3.338   1.415 -0.1635 -0.4831 -0.4334
   61MOL    C1240932   7.386   3.326   1.381  0.3104  0.3889  0.2781
   61MOL    C1340933   7.291   3.405   1.440 -0.1152 -0.6211  0.4450
   61MOL    O1440934   7.165   3.388   1.394  0.2425  0.4359 -0.3092
   61MOL    C1540935   7.082   3.322   1.485  0.2887  0.5637  1.1074
   61MOL    C1640936   7.106   3.182   1.497  0.0768 -0.3295 -0.1474
   61MOL    C1740937   7.018   3.109   1.578  0.0437 -0.0642  0.1689
   61MOL    C1840938   6.916   3.176   1.650 -0.2603 -0.4526  0.1207
   61MOL    C1940939   6.887   3.311   1.624 -0.2244  0.3783 -0.2382
   61MOL    C2040940   6.978   3.382   1.560  0.1883 -0.8369  0.4411
   61MOL    C2140941   7.329   3.504   1.537 -0.1947 -0.6432 -0.0483
   61MOL    C2240942   7.460   3.505   1.584 -0.4635  0.6231 -0.4294
   61MOL    H2340943   7.591   3.398   1.831 -0.4238  1.4177 -2.5667
   61MOL    H2440944   7.626   3.536   2.035 -0.2444 -2.6987 -1.0727
   61MOL    H2540945   7.893   3.783   1.812 -0.6553  0.2558  0.7979
   61MOL    H2640946   7.840   3.662   1.608 -3.4433  1.9537 -0.1204
   61MOL    H2740947   7.586   3.270   1.363  0.4996 -0.5703  0.5011
   61MOL    H2840948   7.353   3.263   1.299  1.5117  0.2480 -0.1040
   61MOL    H2940949   7.178   3.128   1.438 -0.5767 -0.9096 -0.4309
   61MOL    H3040950   7.042   3.004   1.580 -1.3727 -0.4014 -0.1109
   61MOL    H3140951   6.805   3.357   1.676  1.0857  1.8797  0.5394
   61MOL    H3240952   6.955   3.488   1.554  1.6311 -0.3749  2.4672
   61MOL    H3340953   7.255   3.573   1.573 -1.0945 -0.1661 -2.7414
   61MOL    H3440954   7.476   3.566   1.672  0.6381 -0.9409  0.4635
   61MOL    H3540955   7.862   3.798   2.030 -0.0169  0.9077  1.4048
   61MOL    C3640956   7.066   3.113   2.043  0.4341  0.2812 -0.4917
   61MOL    C3740957   7.020   3.089   1.907  0.8770 -0.2947 -0.3730
   61MOL    C3840958   6.887   3.106   1.871  0.3762  0.7222  0.2746
   61MOL    O3940959   6.844   3.103   1.745  0.7595  0.4810 -0.6464
   61MOL    C4040960   6.795   3.134   1.972 -0.2581  0.7114  0.0602
   61MOL    C4140961   6.842   3.151   2.106 -0.7023  0.3091  0.4073
   61MOL    C4240962   6.976   3.140   2.146 -1.0932 -0.2018 -0.4202
   61MOL    C4340963   7.031   3.183   2.279 -0.6053 -0.3852 -0.3539
   61MOL    O4440964   7.147   3.223   2.291 -0.5054  0.5152 -0.3147
   61MOL    C4540965   6.942   3.172   2.398  0.2057 -0.2538  0.2807
   61MOL    C4640966   6.844   3.068   2.415  0.2289 -0.0156  0.2578
   61MOL    C4740967   6.764   3.068   2.533 -0.3380 -0.1078 -0.1531
   61MOL    C4840968   6.778   3.168   2.629  0.4358 -0.4658 -0.3221
   61MOL    O4940969   6.709   3.164   2.749  0.5722  0.4999 -0.4487
   61MOL    C5040970   6.570   3.154   2.747  0.4009  0.5254  0.5719
   61MOL    C5140971   6.489   3.267   2.720 -0.5017 -0.3202 -0.2547
   61MOL    C5240972   6.349   3.259   2.726  0.5527 -0.0607  0.4184
   61MOL    C5340973   6.284   3.140   2.746 -0.0833  0.8476 -0.5597
   61MOL    C5440974   6.365   3.022   2.764 -0.1564 -0.2067 -0.5384
   61MOL    C5540975   6.509   3.029   2.770  0.2581  0.3652 -0.2537
   61MOL    C5640976   6.876   3.271   2.609  0.5985 -0.2667 -0.3389
   61MOL    C5740977   6.959   3.268   2.494  0.1197  0.3258  0.4479
   61MOL    H5840978   7.170   3.106   2.071 -0.0952  1.0634  1.8128
   61MOL    H5940979   7.094   3.071   1.830 -1.8158  0.0931 -3.1265
   61MOL    H6040980   6.689   3.142   1.958 -0.0077  0.6853 -1.9552
   61MOL    H6140981   6.771   3.185   2.180 -2.1635 -0.9263 -0.4086
   61MOL    H6240982   6.840   2.979   2.354  0.7915 -0.4943  0.9167
   61MOL    H6340983   6.702   2.981   2.552 -0.3168 -0.2855 -0.8725
   61MOL    H6440984   6.540   3.361   2.705  0.4167 -1.2397 -3.1336
   61MOL    H6540985   6.279   3.341   2.714 -0.5082 -1.1694 -1.1884
   61MOL    H6640986   6.323   2.922   2.766  0.1373 -0.3370 -0.8656
   61MOL    H6740987   6.565   2.938   2.782  1.4066  0.7234 -2.6719
   61MOL    H6840988   6.883   3.345   2.688 -2.5935 -1.1463  0.8630
   61MOL    H6940989   7.045   3.334   2.492  0.5810 -0.2233  1.4967
   61MOL    C7040990   5.974   2.838   2.895  0.6642 -0.2433 -0.2837
   61MOL    C7140991   6.025   2.927   2.804 -0.7321  0.6259  0.6440
   61MOL    C7240992   6.092   3.040   2.839  0.5112 -0.2033 -1.1082
   61MOL    O7340993   6.146   3.128   2.748 -0.5487 -0.1807  0.0509
   61MOL    C7440994   6.100   3.069   2.976 -0.0556  0.5800 -0.0958
   61MOL    C7540995   6.050   2.981   3.074 -0.6276  0.3933  0.7931
   61MOL    C7640996   5.981   2.864   3.036 -0.2190  0.6941  0.3351
   61MOL    C7740997   5.941   2.766   3.133 -0.2101  0.7692  0.6636
   61MOL    O7840998   5.855   2.679   3.100 -0.2751  0.2094 -0.0311
   61MOL    C7940999   6.005   2.764   3.270  0.3641  0.7304 -0.0728
   61MOL    C8041000   5.926   2.778   3.383 -0.5282 -0.8977 -0.4175
   61MOL    C8141001   5.989   2.790   3.508 -0.3357  0.3190 -0.3147
   61MOL    C8241002   6.134   2.781   3.523 -0.4312  0.3292 -0.7248
   61MOL    O8341003   6.181   2.794   3.647 -0.0549  0.5308  0.0336
   61MOL    C8441004   6.251   2.905   3.680  0.5402  0.2002 -0.2760
   61MOL    C8541005   6.189   3.022   3.713  0.9564  0.3854 -0.3855
   61MOL    C8641006   6.262   3.134   3.762  0.2737  0.0128 -0.3842
   61MOL    C8741007   6.404   3.123   3.777 -0.1410 -1.2717 -0.3977
   61MOL    C8841008   6.468   3.003   3.744  0.7654  0.1469 -0.3843
   61MOL    C8941009   6.392   2.896   3.701 -0.5005  0.3361  0.4977
   61MOL    C9041010   6.218   2.771   3.411 -0.6114 -0.7398 -0.1080
   61MOL    C9141011   6.147   2.769   3.287 -0.8899  0.1145 -0.2005
   61MOL    H9241012   5.921   2.756   2.849  0.1707  0.0715 -0.2776
   61MOL    H9341013   6.020   2.908   2.698  2.3818  2.0115  0.1826
   61MOL    H9441014   6.147   3.160   3.011 -0.0783  1.1476 -1.5449
   61MOL    H9541015   6.064   3.007   3.178  1.1149 -0.5865  0.8259
   61MOL    H9641016   5.819   2.780   3.369 -0.8034 -3.5008  0.7608
   61MOL    H9741017   5.936   2.794   3.602 -0.7746  0.1415 -0.5528
   61MOL    H9841018   6.081   3.028   3.715  1.0446  2.3216  1.7952
   61MOL    H9941019   6.208   3.222   3.793  1.8420  1.4352 -1.5938
   61MOL   H10041020   6.573   2.999   3.768  0.4348  0.8796  1.2559
   61MOL   H10141021   6.441   2.802   3.682 -0.6756  0.6681 -1.8193
   61MOL   H10241022   6.326   2.775   3.410 -0.6699  1.7211 -0.1756
   61MOL   H10341023   6.209   2.759   3.199 -0.7901 -1.3530  0.0204
   61MOL   C10441024   6.777   3.367   3.640 -0.4303  0.1497 -0.3989
   61MOL   C10541025   6.697   3.311   3.741 -0.3687  0.0003  0.6768
   61MOL   C10641026   6.561   3.297   3.724  0.2894 -0.0786  0.3157
   61MOL   O10741027   6.486   3.230   3.818  0.4274  0.4517 -0.1539
   61MOL   C10841028   6.508   3.335   3.599  0.5609  0.0017 -0.4497
   61MOL   C10941029   6.584   3.395   3.498  0.7324  0.6400  1.1565
   61MOL   C11041030   6.721   3.417   3.521 -0.9480 -0.2134  0.4334
   61MOL   C11141031   6.804   3.479   3.410 -0.2061 -0.3292 -0.3966
   61MOL   O11241032   6.772   3.448   3.295 -0.2679  0.2820 -0.7907
   61MOL   C11341033   6.912   3.572   3.448 -0.4166 -0.4966 -0.5720
   61MOL   C11441034   6.918   3.644   3.574 -0.3742  0.6685  0.1930
   61MOL   C11541035   7.031   3.724   3.608  0.2682 -0.0096  0.7372
   61MOL   C11641036   7.140   3.732   3.520 -0.3398 -0.0162 -0.4042
   61MOL   O11741037   7.250   3.807   3.541 -0.2731  0.1698  0.3137
   61MOL   C11841038   7.373   3.745   3.525  0.8899  0.2873 -0.1995
   61MOL   C11941039   7.423   3.649   3.615 -0.0167  0.3491 -0.4155
   61MOL   C12041040   7.544   3.586   3.578 -0.4418  0.2356  0.1306
   61MOL   C12141041   7.614   3.614   3.460  0.1882 -0.8953  0.3098
   61MOL   C12241042   7.564   3.719   3.382 -0.0984 -1.2298 -0.2926
   61MOL   C12341043   7.451   3.787   3.421  0.2723  0.5590  0.1264
   61MOL   C12441044   7.127   3.673   3.390  0.1835 -0.5051 -0.3297
   61MOL   C12541045   7.021   3.583   3.362  0.5283 -0.3139  0.6807
   61MOL   H12641046   6.883   3.374   3.659 -0.4851 -0.1157 -0.0043
   61MOL   H12741047   6.736   3.268   3.832 -1.3228 -2.9454 -0.2735
   61MOL   H12841048   6.403   3.321   3.581  0.8429 -1.9825 -0.6931
   61MOL   H12941049   6.550   3.415   3.397  2.3430 -0.1678  0.4158
   61MOL   H13041050   6.834   3.625   3.639 -0.6212  2.7377  0.5312
   61MOL   H13141051   7.037   3.767   3.707 -0.5646  1.5686  0.1097
   61MOL   H13241052   7.371   3.612   3.702 -1.7207  1.0092 -1.1480
   61MOL   H13341053   7.591   3.515   3.645 -0.7815 -1.7013 -1.6425
   61MOL   H13441054   7.620   3.765   3.301 -0.9342  0.1446 -0.1006
   61MOL   H13541055   7.418   3.876   3.369  0.8464  1.5741  1.4652
   61MOL   H13641056   7.206   3.680   3.317 -0.6322  0.5831 -1.1314
   61MOL   H13741057   7.017   3.521   3.273  1.1691  2.4937 -1.3738
   61MOL   C13841058   7.870   3.539   3.086  1.0096  0.3039 -0.1294
   61MOL   C13941059   7.851   3.579   3.216  0.6660  0.3550 -0.4694
   61MOL   C14041060   7.747   3.520   3.296  0.0036 -0.2507  0.0507
   61MOL   O14141061   7.737   3.549   3.428  0.0617 -0.4407  0.3148
   61MOL   C14241062   7.658   3.429   3.240  0.1255 -0.2517  0.0105
   61MOL   C14341063   7.688   3.380   3.106 -0.4070  0.0096 -1.3869
   61MOL   C14441064   7.786   3.440   3.030  0.1524  0.1020  0.8455
   61MOL   C14541065   7.812   3.399   2.885  0.1815  0.0177 -0.4497
   61MOL   O14641066   7.805   3.485   2.798 -0.4128 -0.0092  0.2998
   61MOL   C14741067   7.849   3.258   2.857  0.8016  0.8624 -0.3474
   61MOL   C14841068   7.828   3.208   2.729 -0.1486 -0.4835 -0.1103
   61MOL   C14941069   7.847   3.073   2.700  0.0311 -0.6737 -0.5346
   61MOL   C15041070   7.915   2.994   2.786 -0.3819 -0.1029  0.0234
   61MOL   O15141071   7.948   2.860   2.754 -0.5404  0.1898 -0.2725
   61MOL   C15241072   7.944   2.817   2.625  0.8188 -0.0586 -0.2537
   61MOL   C15341073   8.034   2.869   2.535  0.0587  0.1947 -0.4604
   61MOL   C15441074   8.042   2.823   2.401 -0.8621 -0.1808 -0.0948
   61MOL   C15541075   7.935   2.746   2.348  0.0794  0.6041 -0.3029
   61MOL   C15641076   7.840   2.698   2.446 -0.1908 -0.3390 -0.8007
   61MOL   C15741077   7.848   2.725   2.582  0.2568 -0.2908 -0.1976
   61MOL   C15841078   7.957   3.047   2.915  0.1678 -0.1756 -0.2460
   61MOL   C15941079   7.924   3.181   2.952  0.8919  0.6095  0.9169
   61MOL   H16041080   7.938   3.596   3.025  1.3029 -2.1431 -2.1465
   61MOL   H16141081   7.911   3.654   3.265 -1.0632  1.9324 -0.7248
   61MOL   H16241082   7.575   3.387   3.294 -1.8143  1.9247 -1.1822
   61MOL   H16341083   7.635   3.293   3.071  0.8233 -2.5466  2.7216
   61MOL   H16441084   7.788   3.275   2.655  1.2468 -0.6579 -1.0280
   61MOL   H16541085   7.818   3.056   2.597 -1.7453 -1.0303 -0.0038
   61MOL   H16641086   8.120   2.924   2.571  1.1896 -2.5982  1.2565
   61MOL   H16741087   8.123   2.850   2.336 -1.8257 -2.6594 -2.3940
   61MOL   H16841088   7.757   2.635   2.418  0.5430 -1.0923 -1.2570
   61MOL   H16941089   7.775   2.672   2.641 -0.5782  0.5764 -0.4308
   61MOL   H17041090   7.998   2.977   2.985 -1.3981 -0.4066  0.4666
   61MOL   H17141091   7.937   3.209   3.056 -1.2604 -0.4401  1.4965
   61MOL   C17241092   8.227   2.683   2.029  0.4797 -0.0339 -0.1906
   61MOL   C17341093   8.112   2.739   2.082 -0.7004  0.0558  0.8961
   61MOL   C17441094   8.029   2.659   2.159 -0.1288 -0.1609 -0.1886
   61MOL   O17541095   7.920   2.711   2.218 -0.3879 -0.5200  0.2642
   61MOL   C17641096   8.063   2.525   2.183 -0.2719  0.4071 -0.7687
   61MOL   C17741097   8.173   2.468   2.123 -0.3758 -0.4817  0.4506
   61MOL   C17841098   8.258   2.548   2.049  0.0987 -0.5271 -0.2576
   61MOL   C17941099   0.059   2.494   1.980 -0.4381 -0.4263  0.1215
   61MOL   O18041100   0.174   2.530   2.003 -0.3327  0.3416 -0.2981
   61MOL   C18141101   0.031   2.387   1.880  0.4741  0.7907 -0.3721
   61MOL   C18241102   0.110   2.266   1.872  0.1764  0.4363 -0.5258
   61MOL   C18341103   0.080   2.173   1.768 -0.7993  0.0622  0.3878
   61MOL   C18441104   8.298   2.202   1.668 -0.0486  0.4913  0.1832
   61MOL   O18541105   8.282   2.115   1.565 -0.1969 -0.0184  0.0057
   61MOL   C18641106   0.020   2.158   1.445 -0.1746  0.4163  0.7996
   61MOL   C18741107   8.248   2.186   1.335 -0.3395 -0.0357  0.0291
   61MOL   C18841108   8.305   2.218   1.210 -0.6389  0.1924 -0.1106
   61MOL   C18941109   0.132   2.236   1.190 -0.3633  1.0072 -0.2179
   61MOL   C19041110   0.220   2.210   1.302  0.2808 -0.4660 -0.1270
   61MOL   C19141111   0.162   2.174   1.428  0.1528 -0.1420 -0.4088
   61MOL   C19241112   8.225   2.322   1.679  0.0102  0.0974  0.9410
   61MOL   C19341113   8.241   2.412   1.780 -0.6369 -0.5748  0.4006
   61MOL   H19441114   8.295   2.744   1.970 -1.1761  1.8544 -0.2052
   61MOL   H19541115   8.084   2.841   2.060  0.5819  0.1310 -0.4527
   61MOL   H19641116   8.010   2.451   2.240  2.2063 -1.5167 -0.8785
   61MOL   H19741117   8.180   2.362   2.142 -0.9660 -0.2596  1.8931
   61MOL   H19841118   0.204   2.250   1.922 -0.5253 -0.6463  0.4729
   61MOL   H19941119   0.140   2.084   1.756 -0.0708  0.5751  0.2147
   61MOL   H20041120   8.142   2.166   1.342 -0.6127  1.5640  0.6150
   61MOL   H20141121   8.233   2.232   1.130 -1.0204  0.1489  0.2205
   61MOL   H20241122   0.325   2.213   1.277 -0.6009 -0.6983 -4.2675
   61MOL   H20341123   0.217   2.157   1.520  0.6005 -1.2714 -0.8836
   61MOL   H20441124   8.156   2.343   1.598  1.4957  1.8424  0.0979
   61MOL   H20541125   8.183   2.503   1.781  0.7988  0.3588  1.0940
   61MOL   C20641126   0.536   2.220   0.957 -0.3668 -0.9109 -0.6378
   61MOL   C20741127   0.406   2.195   0.998  0.2062  0.1205 -0.5650
   61MOL   C20841128   0.315   2.297   1.043 -0.3507  0.6290 -0.3287
   61MOL   O20941129   0.181   2.268   1.065  0.2648  0.2180 -0.1491
   61MOL   C21041130   0.368   2.428   1.047  0.3118  0.3569  0.1501
   61MOL   C21141131   0.505   2.455   1.022  0.6942 -0.0613 -0.1592
   61MOL   C21241132   0.581   2.351   0.966  0.2831 -0.4787  0.3399
   61MOL   C21341133   0.716   2.380   0.918  0.4137 -0.2143 -0.2153
   61MOL   O21441134   0.759   2.331   0.815 -0.2471  0.2217  0.0863
   61MOL   C21541135   0.796   2.484   0.991  0.5144  0.2148  0.0745
   61MOL   C21641136   0.788   2.505   1.124  0.0097  0.4315 -0.1064
   61MOL   C21741137   0.878   2.592   1.186 -1.0855  0.3338 -0.2484
   61MOL   C21841138   0.978   2.658   1.114  0.4480  0.0205 -0.2280
   61MOL   O21941139   1.069   2.751   1.167 -0.4839  0.1733  0.1820
   61MOL   C22041140   1.015   2.859   1.224 -0.0258  0.3290  0.0387
   61MOL   C22141141   0.919   2.935   1.160  0.6634 -0.3845  0.2661
   61MOL   C22241142   0.861   3.045   1.225 -0.0158 -0.0647  0.0933
   61MOL   C22341143   0.919   3.089   1.350 -0.2427  0.0420  0.4139
   61MOL   C22441144   1.025   3.018   1.410 -0.2256 -0.7408  0.1107
   61MOL   C22541145   1.070   2.905   1.346 -0.1358  0.1865 -0.1065
   61MOL   C22641146   0.985   2.641   0.975  0.0429  0.7810  0.2119
   61MOL   C22741147   0.895   2.551   0.913  0.0180  0.1420 -0.2385
   61MOL   H22841148   0.593   2.139   0.914 -0.9362 -1.9754  0.5754
   61MOL   H22941149   0.361   2.096   0.998 -0.3265  0.3468  1.2311
   61MOL   H23041150   0.310   2.513   1.078  0.1556  0.9042 -1.5927
   61MOL   H23141151   0.535   2.558   1.011  1.9636 -0.0737  2.6977
   61MOL   H23241152   0.717   2.456   1.189  1.8966 -3.1271 -0.5864
   61MOL   H23341153   0.882   2.598   1.294 -0.7922 -1.7663 -0.1181
   61MOL   H23441154   0.904   2.906   1.057  2.6075 -1.8690  0.3824
   61MOL   H23541155   0.785   3.108   1.180  1.9418  0.3822 -2.7388
   61MOL   H23641156   1.064   3.059   1.502 -1.5753  0.6569  0.0875
   61MOL   H23741157   1.149   2.847   1.392 -2.9027 -0.7323  3.8325
   61MOL   H23841158   1.063   2.691   0.920  0.2981 -1.4785 -1.5522
   61MOL   H23941159   0.911   2.533   0.808  0.6884  1.5543 -0.3939
   61MOL   C24041160   0.520   3.285   1.485  0.1354 -0.1031  0.3499
   61MOL   C24141161   0.648   3.291   1.425 -0.4643 -0.1569 -0.1627
   61MOL   C24241162   0.754   3.203   1.466 -0.1177 -0.0904  0.7198
   61MOL   O24341163   0.871   3.205   1.404  0.6439  0.3417  0.3937
   61MOL   C24441164   0.726   3.123   1.577  0.7911 -0.1327 -0.5429
   61MOL   C24541165   0.598   3.134   1.650 -0.3054  0.7524  0.5382
   61MOL   C24641166   0.492   3.207   1.594  0.2341  0.3655 -0.5503
   61MOL   C24741167   0.360   3.224   1.662 -0.0514  0.4671 -0.5143
   61MOL   O24841168   0.284   3.317   1.631 -0.2108 -0.4427 -0.4302
   61MOL   C24941169   0.330   3.127   1.773 -0.0459 -0.3531 -0.8007
   61MOL   C25041170   0.372   2.991   1.777  0.0847  0.0494 -0.5398
   61MOL   C25141171   0.336   2.907   1.880  0.5571  0.0787  0.0517
   61MOL   C25241172   0.245   2.949   1.981 -0.9956  0.3315  0.5459
   61MOL   O25341173   0.211   2.858   2.080  0.4836 -0.0236  0.2888
   61MOL   C25441174   0.188   2.902   2.214 -0.0491 -1.2146  1.0976
   61MOL   C25541175   0.247   3.014   2.275  0.1784 -0.2911  0.3693
   61MOL   C25641176   0.217   3.045   2.409 -0.1800  0.1183  0.0636
   61MOL   C25741177   0.123   2.974   2.482  0.1917 -0.0408 -0.0122
   61MOL   C25841178   0.084   2.848   2.423 -0.2601 -1.0393 -0.1384
   61MOL   C25941179   0.106   2.818   2.288  0.3054 -0.3568 -0.7198
   61MOL   C26041180   0.193   3.080   1.980  0.7055  0.1584  0.2267
   61MOL   C26141181   0.232   3.169   1.875 -0.1965  0.0005  0.0056
   61MOL   H26241182   0.444   3.340   1.432  0.3675 -1.2878 -1.2589
   61MOL   H26341183   0.671   3.359   1.345  1.8694 -1.3308 -0.5195
   61MOL   H26441184   0.808   3.066   1.618 -0.3984 -0.9948  0.7178
   61MOL   H26541185   0.596   3.083   1.745 -1.2690  2.1287  1.2744
   61MOL   H26641186   0.431   2.950   1.696 -2.4245 -0.3395 -2.2125
   61MOL   H26741187   0.382   2.810   1.871  0.3733  0.0888 -1.0915
   61MOL   H26841188   0.318   3.074   2.221 -0.3850 -1.3198 -1.5366
   61MOL   H26941189   0.273   3.124   2.457 -0.0769 -0.6272  1.1956
   61MOL   H27041190   0.012   2.791   2.478 -2.0797  0.6129 -0.7532
   61MOL   H27141191   0.068   2.727   2.245  2.2395 -0.2905 -2.6245
   61MOL   H27241192   0.116   3.110   2.050  1.2677 -1.3540  1.5427
   61MOL   H27341193   0.186   3.265   1.859  0.3888  0.4413  0.9183
   61MOL   C27441194   8.203   3.303   2.651  0.3936 -0.0044 -0.6132
   61MOL   C27541195   8.255   3.190   2.581 -0.0457  0.2509 -0.3617
   61MOL   C27641196   0.041   3.115   2.657  0.1229  0.6752  0.9604
   61MOL   O27741197   0.091   2.997   2.613  0.9197  0.4191 -0.2320
   61MOL   C27841198   0.092   3.156   2.783 -0.1660  0.3637 -0.1625
   61MOL   C27941199   0.049   3.277   2.837 -0.3881 -0.4183 -0.1846
   61MOL   C28041200   8.258   3.348   2.770 -0.0095  0.1778 -0.1291
   61MOL   C28141201   8.213   3.477   2.826  0.0297 -0.4108 -1.1157
   61MOL   O28241202   8.101   3.519   2.798 -0.5773 -0.1113  0.3656
   61MOL   C28341203   8.296   3.551   2.915 -0.3092 -0.4752  0.5081
   61MOL   C28441204   0.122   3.580   2.889  0.3107  0.8305  0.6148
   61MOL   C28541205   0.198   3.645   2.983  0.3118 -0.0953  0.2762
   61MOL   C28641206   0.141   3.675   3.109 -0.1632  0.1398 -0.5379
   61MOL   O28741207   0.218   3.750   3.199  0.5692  0.6061  0.3528
   61MOL   C28841208   0.280   3.683   3.303 -0.0953 -0.4452 -0.3972
   61MOL   C28941209   0.419   3.685   3.306 -0.3325  0.0325 -0.1910
   61MOL   C29041210   0.484   3.616   3.411 -0.3099  0.3863 -0.7694
   61MOL   C29141211   0.415   3.555   3.521  0.6341  0.3762  0.5688
   61MOL   C29241212   0.276   3.556   3.510  0.4545  0.2281 -0.5608
   61MOL   C29341213   0.210   3.619   3.405  1.0178 -0.2089  0.0808
   61MOL   C29441214   0.004   3.653   3.132 -0.6210  0.3179  0.6357
   61MOL   C29541215   8.234   3.591   3.034 -0.4929  0.4103 -0.1479
   61MOL   H29641216   8.134   3.374   2.608  1.1867  1.2696  0.1603
   61MOL   H29741217   8.227   3.154   2.483  0.2959 -1.1409  0.0438
   61MOL   H29841218   0.168   3.104   2.840  0.8081  0.4624 -1.3680
   61MOL   H29941219   0.095   3.307   2.930  2.0617  0.3280 -1.5840
   61MOL   H30041220   0.169   3.547   2.798  0.4065 -0.1427  1.0117
   61MOL   H30141221   0.299   3.679   2.967  1.0203 -3.4218 -3.3858
   61MOL   H30241222   0.471   3.727   3.221 -0.5004 -0.3738 -0.4977
   61MOL   H30341223   0.591   3.623   3.424 -0.1415 -2.2270 -0.3946
   61MOL   H30441224   0.219   3.519   3.594  1.7106 -1.4657 -0.4277
   61MOL   H30541225   0.102   3.617   3.398  0.9176 -0.3827  1.4923
   61MOL   H30641226   8.263   3.672   3.224 -1.7437 -0.3843  0.1228
   61MOL   H30741227   8.133   3.571   3.065 -0.5518 -0.0835 -0.6509
   61MOL   C30841228   0.677   3.741   3.831 -0.0663 -0.9392  0.0224
   61MOL   C30941229   0.566   3.673   3.788 -0.3693 -0.2006 -0.0798
   61MOL   C31041230   0.582   3.575   3.683 -0.8866  0.2860 -0.1555
   61MOL   O31141231   0.477   3.501   3.631 -0.3490  0.4083  0.0048
   61MOL   C31241232   0.709   3.539   3.645 -0.1890  0.3219  0.1669
   61MOL   C31341233   0.824   3.604   3.694  0.1218 -1.2883  0.0363
   61MOL   C31441234   0.805   3.706   3.791  0.2261  0.3446  0.4733
   61MOL   C31541235   0.926   3.778   3.841  0.1419  0.3941  0.1488
   61MOL   O31641236   1.029   3.768   3.777 -0.0889 -0.4314 -0.1321
   61MOL   C31741237   0.926   3.845   3.971 -1.0772 -0.3332  0.4307
   61MOL   C31841238   0.845   3.959   3.993 -0.0508 -0.8541 -0.9346
   61MOL   C31941239   0.829   4.011   4.123 -0.0011  0.0376 -0.5774
   61MOL   C32041240   0.907   3.968   4.228  0.2857  0.1644 -0.0298
   61MOL   O32141241   0.897   4.012   4.358 -0.0784 -0.2369 -0.2900
   61MOL   C32241242   1.001   4.086   4.412 -0.6051  0.7022  0.1654
   61MOL   C32341243   1.091   4.013   4.495  0.2221 -0.3101  0.3383
   61MOL   C32441244   1.186   4.083   4.576  0.7624 -0.7046 -0.6888
   61MOL   C32541245   1.184   4.225   4.581  0.3103 -0.3060 -0.3327
   61MOL   C32641246   1.090   4.300   4.498 -0.2676 -0.2998 -0.1608
   61MOL   C32741247   0.997   4.229   4.419  0.2439  1.1438 -0.6807
   61MOL   C32841248   1.004   3.863   4.201 -0.4920  0.2834  0.2620
   61MOL   C32941249   1.018   3.809   4.074 -0.0822 -0.4485  0.2991
   61MOL   H33041250   0.657   3.822   3.899 -0.1812  1.1718 -2.4583
   61MOL   H33141251   0.468   3.691   3.830 -0.6612  2.7351 -1.8771
   61MOL   H33241252   0.724   3.466   3.567  0.9579  2.0306 -1.2494
   61MOL   H33341253   0.920   3.576   3.652  1.0323 -1.5327  2.2327
   61MOL   H33441254   0.783   4.004   3.917  2.1457 -0.0290 -2.2662
   61MOL   H33541255   0.762   4.092   4.149 -0.9923 -0.8399 -0.3435
   61MOL   H33641256   1.093   3.905   4.502  0.9050 -0.4859 -2.1605
   61MOL   H33741257   1.261   4.030   4.633  0.1541 -0.8125  0.0172
   61MOL   H33841258   1.095   4.407   4.486  3.5146 -0.4840 -0.8305
   61MOL   H33941259   0.923   4.282   4.361 -2.0464  0.8694  1.9064
   61MOL   H34041260   1.070   3.827   4.278  0.8568  1.3211 -0.3764
   61MOL   H34141261   1.087   3.727   4.057 -0.7805 -0.9694 -0.0560
   61MOL   C34241262   1.292   4.144   4.995 -0.2609 -0.1012 -0.5332
   61MOL   C34341263   1.237   4.203   4.880  0.9160 -0.2440  0.8841
   61MOL   C34441264   1.322   4.228   4.772  0.3300  0.0433 -0.1460
   61MOL   O34541265   1.281   4.290   4.658  0.0356  0.5460 -0.1189
   61MOL   C34641266   1.459   4.202   4.783  0.0637 -0.7036 -0.2042
   61MOL   C34741267   1.516   4.155   4.899 -0.1090 -0.1950  0.0829
   61MOL   C34841268   1.429   4.120   5.010  0.1287 -0.0417  0.1994
   61MOL   C34941269   1.474   4.042   5.131 -0.2946 -0.1874 -0.1511
   61MOL   O35041270   1.417   3.948   5.181 -0.6047  0.5700  0.5229
   61MOL   C35141271   1.604   4.081   5.184  0.0388  0.6702  0.3845
   61MOL   C35241272   1.678   3.986   5.268  0.0359 -0.7582  0.5268
   61MOL   C35341273   1.809   4.021   5.320 -0.4877  0.3377 -0.1727
   61MOL   C35441274   1.857   4.153   5.292 -0.6323 -1.2213 -0.0560
   61MOL   O35541275   1.981   4.186   5.342  0.1748  0.3974  0.5551
   61MOL   C35641276   1.998   4.309   5.393 -0.3832  0.2017 -0.1871
   61MOL   C35741277   1.938   4.325   5.517  0.5202  0.0669  0.2306
   61MOL   C35841278   1.948   4.449   5.581 -0.0065  0.0126  0.7669
   61MOL   C35941279   2.032   4.546   5.518  0.0986 -0.4294 -0.3845
   61MOL   C36041280   2.093   4.527   5.394  0.0175 -0.2045 -0.0842
   61MOL   C36141281   2.078   4.408   5.332  0.0837  0.6839 -0.2375
   61MOL   C36241282   1.785   4.248   5.219  0.8705  0.6293 -0.4605
   61MOL   C36341283   1.661   4.210   5.166  0.2683  0.0656 -0.0140
   61MOL   H36441284   1.224   4.113   5.072 -0.2477  2.2827  0.4676
   61MOL   H36541285   1.133   4.234   4.874  0.2127 -2.3610  1.6054
   61MOL   H36641286   1.526   4.237   4.706 -1.2262  1.8019 -0.2457
   61MOL   H36741287   1.624   4.148   4.907  0.2297  2.7364 -1.1283
   61MOL   H36841288   1.633   3.889   5.283  0.0193 -0.6950  0.9040
   61MOL   H36941289   1.873   3.952   5.373  1.7684  1.4930 -1.3454
   61MOL   H37041290   1.884   4.242   5.561  1.9296 -1.3020 -0.6009
   61MOL   H37141291   1.899   4.473   5.674 -0.6606  1.1593  0.1324
   61MOL   H37241292   2.152   4.609   5.355  2.8239 -0.9807  2.3154
   61MOL   H37341293   2.115   4.379   5.235 -0.2430 -1.7864  0.3393
   61MOL   H37441294   1.815   4.348   5.193 -1.4785  2.0840  2.1245
   61MOL   H37541295   1.607   4.287   5.114  0.2959 -0.1208 -0.3182
   61MOL   C37641296   1.767   4.873   5.689  0.4879 -0.1713  0.0434
   61MOL   C37741297   1.889   4.803   5.686 -0.3803  0.2196  0.0662
   61MOL   C37841298   1.944   4.753   5.563 -1.1561  0.4550 -0.2060
   61MOL   O37941299   2.052   4.670   5.575 -0.0268  0.1002  0.1157
   61MOL   C38041300   1.879   4.783   5.439 -0.5628  0.1321 -0.3645
   61MOL   C38141301   1.762   4.868   5.437 -0.1938 -0.0593  0.1606
   61MOL   C38241302   1.703   4.902   5.564  0.5061 -0.1079  0.1521
   61MOL   C38341303   1.563   4.966   5.560 -0.0349 -0.2187 -0.0097
   61MOL   O38441304   1.480   4.931   5.645  0.4330  0.8393  0.5252
   61MOL   C38541305   1.529   5.076   5.460 -0.2424 -0.2921 -0.1906
   61MOL   C38641306   1.626   5.159   5.405 -0.8578 -0.2777 -0.5592
   61MOL   C38741307   1.591   5.258   5.305  0.2145  0.4149 -0.0175
   61MOL   C38841308   1.458   5.272   5.266 -0.1923  0.7190 -0.1924
   61MOL   O38941309   1.419   5.370   5.184  0.3161  0.8722  0.5626
   61MOL   C39041310   1.405   5.501   5.218 -0.1224  0.5207 -0.1538
   61MOL   C39141311   1.394   5.544   5.347  0.1357 -0.1188  0.5348
   61MOL   C39241312   1.360   5.677   5.378 -0.0608  0.0931  0.2338
   61MOL   C39341313   1.344   5.766   5.271  1.1076  0.5340  0.2829
   61MOL   C39441314   1.367   5.726   5.138  0.3208  0.2172  0.3361
   61MOL   C39541315   1.394   5.592   5.109  0.3286 -0.4964 -0.1192
   61MOL   C39641316   1.360   5.192   5.327  0.0176  0.2579 -0.4049
   61MOL   C39741317   1.395   5.096   5.421  0.0453  0.1405 -0.1276
   61MOL   H39841318   1.716   4.910   5.777 -0.1189 -0.5922 -0.1286
   61MOL   H39941319   1.950   4.794   5.775 -0.1480  1.0821 -0.0021
   61MOL   H40041320   1.915   4.750   5.343  2.7965 -1.0546  1.1886
   61MOL   H40141321   1.708   4.880   5.344 -2.6907  0.7074  1.6679
   61MOL   H40241322   1.730   5.142   5.430 -1.2939 -1.5396  0.4763
   61MOL   H40341323   1.669   5.304   5.246 -1.5406  1.8792 -1.2555
   61MOL   H40441324   1.397   5.475   5.431  0.2853 -0.0388  0.5950
   61MOL   H40541325   1.367   5.702   5.483  3.1508  1.8773 -0.3496
   61MOL   H40641326   1.362   5.795   5.056  0.1352  1.0549  1.0405
   61MOL   H40741327   1.398   5.560   5.005  1.6046  0.6824 -0.4387
   61MOL   H40841328   1.254   5.200   5.307  0.0140 -0.5736 -0.7224
   61MOL   H40941329   1.316   5.032   5.457  0.6166 -0.6524 -0.2869
   61MOL   C41041330   1.010   5.943   5.501 -0.4835  0.1164  0.4236
   61MOL   C41141331   1.141   5.897   5.459 -0.2296 -0.5421 -0.0069
   61MOL   C41241332   1.186   5.934   5.325  0.7682  0.2013 -0.4881
   61MOL   O41341333   1.312   5.901   5.281  0.6878 -0.2729 -0.3134
   61MOL   C41441334   1.101   6.005   5.241 -0.4409 -0.6952 -0.5159
   61MOL   C41541335   0.968   6.041   5.281 -0.4475 -0.8321  0.3230
   61MOL   C41641336   0.921   6.011   5.415 -0.4248 -0.0922  0.1262
   61MOL   C41741337   0.783   6.043   5.455  0.5930  0.2769 -0.2404
   61MOL   O41841338   0.705   6.078   5.367 -0.0149  0.5293  0.3996
   61MOL   C41941339   0.738   6.029   5.599 -0.7274  0.1759 -0.3831
   61MOL   C42041340   0.806   6.072   5.718 -0.5452  0.4854 -0.2619
   61MOL   C42141341   0.748   6.062   5.843 -0.0539 -0.4282  0.1742
   61MOL   C42241342   0.621   5.998   5.859 -0.1611 -0.6249 -0.0931
   61MOL   O42341343   0.580   5.979   5.988  0.3771  0.0658  0.1837
   61MOL   C42441344   0.500   6.084   6.020  0.0750  0.2348 -0.4059
   61MOL   C42541345   0.554   6.203   6.071 -0.2105  0.7557 -1.1347
   61MOL   C42641346   0.470   6.307   6.116  0.5146 -0.1544  0.2419
   61MOL   C42741347   0.329   6.291   6.108 -0.1548  0.7791 -0.1148
   61MOL   C42841348   0.276   6.162   6.076  0.1077 -0.1390  0.4171
   61MOL   C42941349   0.364   6.066   6.028  0.0461 -0.4517 -0.1008
   61MOL   C43041350   0.550   5.954   5.746  0.0229  0.1536 -0.5436
   61MOL   C43141351   0.611   5.971   5.618 -0.5210  0.2314 -0.2465
   61MOL   H43241352   0.999   5.926   5.606  1.4949 -0.5965  0.5323
   61MOL   H43341353   1.203   5.846   5.531  2.2454  0.7284 -1.1624
   61MOL   H43441354   1.138   6.035   5.144 -0.3437  0.5542 -0.1007
   61MOL   H43541355   0.894   6.078   5.212 -0.3283 -0.4178  0.4197
   61MOL   H43641356   0.901   6.120   5.698 -0.8164  0.2389 -2.2740
   61MOL   H43741357   0.810   6.085   5.929 -0.7821 -2.7220  1.3547
   61MOL   H43841358   0.661   6.211   6.082 -0.2102 -1.6117  1.1862
   61MOL   H43941359   0.507   6.401   6.155 -0.4676  0.1834  0.3591
   61MOL   H44041360   0.168   6.155   6.082  0.0709 -0.4368 -0.4615
   61MOL   H44141361   0.324   5.970   5.999  1.0440 -0.2662 -2.1220
   61MOL   H44241362   0.452   5.908   5.750  1.1286 -2.3154 -0.8633
   61MOL   H44341363   0.544   5.953   5.535 -2.4686  0.0575  1.3295
   61MOL   C44441364   0.065   6.528   6.447  0.1223 -0.4919 -0.0095
   61MOL   C44541365   0.089   6.483   6.320 -0.0258  0.1067  0.4718
   61MOL   C44641366   0.205   6.404   6.289  0.2691 -0.3875 -0.5787
   61MOL   O44741367   0.246   6.397   6.157  0.0119 -0.1257  0.2319
   61MOL   C44841368   0.285   6.352   6.396  0.4556  0.6141 -0.1568
   61MOL   C44941369   0.255   6.392   6.528  0.2680  0.2386 -0.2720
   61MOL   C45041370   0.151   6.482   6.556  1.1293  0.7189  0.0020
   61MOL   C45141371   0.130   6.525   6.695 -0.3303 -0.3479  0.4945
   61MOL   O45241372   0.156   6.448   6.792  0.0303  0.0193 -0.3695
   61MOL   C45341373   0.076   6.667   6.723  0.2394  0.1137  0.6626
   61MOL   C45441374   0.104   6.768   6.629  0.0236  0.1471  1.1146
   61MOL   C45541375   0.053   6.902   6.648  0.2550  0.9332  0.1414
   61MOL   C45641376   8.291   6.930   6.754 -0.1626 -0.5575  0.0541
   61MOL   O45741377   8.240   7.058   6.776  0.0812 -0.5022  0.2470
   61MOL   C45841378   0.023   7.160   6.783  0.9834 -0.5426  0.0414
   61MOL   C45941379   0.112   7.164   6.892  0.5613  0.6204  0.7844
   61MOL   C46041380   0.203   7.273   6.899 -0.2188 -0.2307  0.5090
   61MOL   C46141381   0.206   7.377   6.801 -0.4423 -0.3976 -0.6870
   61MOL   C46241382   0.116   7.365   6.690  0.1454  0.6315 -0.3603
   61MOL   C46341383   0.028   7.255   6.684 -0.1216 -0.3642 -1.3434
   61MOL   C46441384   8.261   6.837   6.851 -0.1178  0.2581 -0.0060
   61MOL   C46541385   0.001   6.704   6.839  0.2710 -0.1323 -0.2865
   61MOL   H46641386   8.295   6.598   6.455 -1.1329 -2.0913  1.4543
   61MOL   H46741387   0.025   6.527   6.244 -0.4623 -1.9967 -0.4219
   61MOL   H46841388   0.373   6.292   6.375 -1.7188 -2.9002  0.4322
   61MOL   H46941389   0.319   6.358   6.608  1.4208  0.7784 -0.9573
   61MOL   H47041390   0.174   6.750   6.549 -2.4768  0.8279 -1.3157
   61MOL   H47141391   0.072   6.976   6.572  1.0863 -1.5037 -2.0627
   61MOL   H47241392   0.104   7.093   6.973 -1.8086  0.0215  0.0620
   61MOL   H47341393   0.270   7.279   6.983 -0.3943  0.5417  0.5938
   61MOL   H47441394   0.098   7.450   6.626  1.2052  1.8502  0.9087
   61MOL   H47541395   8.272   7.246   6.602 -0.4370  1.5025 -1.3085
   61MOL   H47641396   8.203   6.874   6.935  0.0938  0.0251  0.2438
   61MOL   H47741397   8.287   6.633   6.915 -1.3773  0.1381 -0.6080
   61MOL   C47841398   0.467   7.657   6.555 -0.5891 -0.4592 -0.2182
   61MOL   C47941399   0.369   7.615   6.639  0.2175 -0.3512 -0.0345
   61MOL   C48041400   0.388   7.509   6.727 -0.2394  0.0650 -0.0052
   61MOL   O48141401   0.288   7.491   6.816  0.2298 -0.1266  1.0421
   61MOL   C48241402   0.505   7.430   6.729 -0.2065  0.0001 -1.0518
   61MOL   C48341403   0.610   7.473   6.643  0.5588 -0.4545 -0.3110
   61MOL   C48441404   0.590   7.590   6.564  0.0948  0.4613 -0.4837
   61MOL   C48541405   0.706   7.642   6.488 -0.8134  0.9256 -0.9243
   61MOL   O48641406   0.789   7.719   6.540 -0.4252 -0.3585  0.3244
   61MOL   C48741407   0.723   7.602   6.343  0.0332 -0.2612 -0.6395
   61MOL   C48841408   0.839   7.645   6.274  0.2932 -0.8876  0.2284
   61MOL   C48941409   0.863   7.625   6.137  0.1197  0.2885 -0.1008
   61MOL   C49041410   0.768   7.552   6.062  0.2627  0.0071 -0.0338
   61MOL   O49141411   0.781   7.525   5.928 -0.5250 -0.5608 -0.1816
   61MOL   C49241412   0.729   7.622   5.845 -0.5122  0.3594  0.1021
   61MOL   C49341413   0.632   7.583   5.751  1.2141  0.2253 -0.2496
   61MOL   C49441414   0.567   7.672   5.661  0.5138  0.2490 -0.4970
   61MOL   C49541415   0.601   7.813   5.672  0.3400  0.5199  0.1721
   61MOL   C49641416   0.691   7.854   5.774  0.3409 -0.3094  0.5768
   61MOL   C49741417   0.750   7.760   5.865  0.6279 -0.1130  0.2891
   61MOL   C49841418   0.660   7.497   6.129 -0.6367 -0.2328  0.0863
   61MOL   C49941419   0.638   7.518   6.270 -0.9819 -0.0993 -0.1642
   61MOL   H50041420   0.458   7.749   6.499  0.1930 -0.4672 -0.3639
   61MOL   H50141421   0.279   7.673   6.642  0.3084 -0.2187  0.1229
   61MOL   H50241422   0.527   7.355   6.803 -2.1215  0.1469 -0.2965
   61MOL   H50341423   0.709   7.430   6.645  0.1609 -1.3400  1.8487
   61MOL   H50441424   0.915   7.695   6.332 -1.0661  0.0995  1.1976
   61MOL   H50541425   0.947   7.669   6.085 -0.8602  4.0449  1.3517
   61MOL   H50641426   0.598   7.480   5.748 -0.3655  0.7875 -2.1417
   61MOL   H50741427   0.498   7.638   5.585  1.2171 -1.3284 -0.4611
   61MOL   H50841428   0.710   7.959   5.786 -1.3833  0.1934 -0.7495
   61MOL   H50941429   0.819   7.808   5.933 -1.1311  0.7515  1.4985
   61MOL   H51041430   0.590   7.437   6.073 -3.5489 -0.8968  4.2517
   61MOL   H51141431   0.549   7.483   6.320 -1.6026  0.3326 -0.9507
   61MOL   C51241432   0.224   7.950   5.425  0.4859 -0.4232 -0.1383
   61MOL   C51341433   0.364   7.941   5.443  0.3394 -0.7119  0.2677
   61MOL   C51441434   0.413   7.914   5.572 -0.6772 -0.0597 -0.2217
   61MOL   O51541435   0.549   7.909   5.587 -0.0315 -0.2078 -0.1330
   61MOL   C51641436   0.322   7.890   5.679 -0.3091 -0.1787 -0.5494
   61MOL   C51741437   0.180   7.897   5.656  0.4653 -0.3899 -0.4189
   61MOL   C51841438   0.130   7.921   5.524  0.3604  0.0801  0.4063
   61MOL   C51941439   8.290   7.914   5.493 -0.4060 -0.4288 -0.5166
   61MOL   O52041440   8.240   8.004   5.434  0.2033  0.1346  0.2583
   61MOL   C52141441   8.206   7.806   5.560  0.0579  0.6121 -0.0425
   61MOL   C52241442   8.064   7.816   5.571 -0.1732  0.0968 -0.6003
   61MOL   C52341443   7.988   7.710   5.633  0.3353  0.0298  0.3389
   61MOL   C52441444   8.050   7.596   5.684  0.0783 -0.2007  0.1825
   61MOL   O52541445   7.974   7.507   5.754 -0.3451  0.2099  0.3627
   61MOL   C52641446   8.003   7.368   5.756 -0.0182 -0.9720 -0.2775
   61MOL   C52741447   7.968   7.299   5.870  0.9041  0.0433 -0.3085
   61MOL   C52841448   7.996   7.157   5.876  0.0478 -0.4505 -1.1732
   61MOL   C52941449   8.047   7.093   5.765  0.5669  0.0994  0.0326
   61MOL   C53041450   8.086   7.162   5.650 -0.8471 -0.2324 -0.0866
   61MOL   C53141451   8.061   7.302   5.643  0.2398 -0.5506 -0.0602
   61MOL   C53241452   8.191   7.590   5.672 -0.3938 -0.2096 -0.4310
   61MOL   C53341453   8.269   7.688   5.604  0.0734  0.3167  0.2905
   61MOL   H53441454   0.180   7.968   5.328 -0.2111 -1.5524 -0.0473
   61MOL   H53541455   0.420   7.962   5.353 -1.9463 -1.8398 -1.5011
   61MOL   H53641456   0.362   7.863   5.775 -1.0357 -1.0345 -0.4794
   61MOL   H53741457   0.102   7.878   5.727 -0.1516 -1.3465 -1.3392
   61MOL   H53841458   8.021   7.907   5.531 -1.2170  0.2562  0.8386
   61MOL   H53941459   7.880   7.715   5.642  0.0882  1.5239 -2.7559
   61MOL   H54041460   7.930   7.359   5.951  0.4083 -0.9926  0.2395
   61MOL   H54141461   7.965   7.110   5.968  1.5725  2.7369  1.0889
   61MOL   H54241462   8.135   7.111   5.569 -1.3450 -0.1565 -0.4411
   61MOL   H54341463   8.074   7.349   5.547  0.0008  0.2169  0.2797
   61MOL   H54441464   8.237   7.501   5.712  2.0210  1.1587 -0.1156
   61MOL   H54541465   0.063   7.675   5.594 -0.1474 -0.8037 -0.5930
   61MOL   C54641466   0.082   6.930   5.933 -0.0041  0.3320 -0.0175
   61MOL   C54741467   8.299   6.964   5.836 -0.1312 -0.0411  0.8970
   61MOL   C54841468   8.164   6.922   5.853  0.0421 -0.0150 -0.4314
   61MOL   O54941469   8.068   6.956   5.769  1.1822  0.1504  0.9712
   61MOL   C55041470   8.136   6.834   5.958  0.0093  0.1442  0.5321
   61MOL   C55141471   8.232   6.792   6.052 -0.3732  0.3950  0.3857
   61MOL   C55241472   0.051   6.847   6.042  0.1667 -0.3321  0.0969
   61MOL   C55341473   0.152   6.813   6.143  0.2174 -0.2218  0.1990
   61MOL   O55441474   0.134   6.816   6.271 -0.2614 -0.0150 -0.2388
   61MOL   C55541475   0.286   6.756   6.099 -0.2510  0.1490  0.5111
   61MOL   C55641476   0.316   6.725   5.968 -0.1418  0.9404 -0.4573
   61MOL   C55741477   0.437   6.660   5.936  0.4225 -0.6792  0.9171
   61MOL   C55841478   0.534   6.637   6.034  0.7278 -0.6335  0.3015
   61MOL   O55941479   0.660   6.584   6.011 -0.1971 -0.6619 -0.1921
   61MOL   C56041480   0.693   6.540   5.886 -0.7322  0.2896  0.1225
   61MOL   C56141481   0.810   6.589   5.825 -0.3351 -0.0765  0.2330
   61MOL   C56241482   0.849   6.539   5.703  0.1004  0.4714  0.1803
   61MOL   C56341483   0.788   6.423   5.645 -0.9504  0.2875  0.6316
   61MOL   C56441484   0.667   6.384   5.704  0.1716 -0.4341  0.1932
   61MOL   C56541485   0.625   6.437   5.830  0.0130 -0.0981  0.5525
   61MOL   C56641486   0.509   6.669   6.166 -0.9662  0.0847  1.1406
   61MOL   C56741487   0.388   6.730   6.196  0.4840 -0.0309  0.0047
   61MOL   H56841488   0.183   6.962   5.912 -0.5967  3.0039  1.0147
   61MOL   H56941489   0.018   7.029   5.756  0.2128 -0.7410  0.4690
   61MOL   H57041490   8.040   6.786   5.972 -0.1332  0.5925  1.1380
   61MOL   H57141491   8.219   6.713   6.124  2.8998 -2.0803 -1.6117
   61MOL   H57241492   0.239   6.733   5.893 -0.3728 -0.1804 -0.3361
   61MOL   H57341493   0.455   6.637   5.832 -1.9098  0.8641  0.1490
   61MOL   H57441494   0.860   6.674   5.870  1.2419 -0.3211 -1.0204
   61MOL   H57541495   0.940   6.577   5.660  0.1719  1.5928  1.3017
   61MOL   H57641496   0.610   6.303   5.660  1.0760 -0.4993 -0.8674
   61MOL   H57741497   0.530   6.397   5.863 -0.3327  1.3515  1.3857
   61MOL   H57841498   0.587   6.647   6.238 -1.2062 -0.6209  1.1895
   61MOL   H57941499   0.371   6.765   6.297 -0.4916  2.8177 -1.0955
   61MOL   C58041500   1.179   6.344   5.443 -0.5491  0.3380 -0.0923
   61MOL   C58141501   1.057   6.321   5.507  0.1061  0.0618 -0.2037
   61MOL   C58241502   0.940   6.384   5.468  0.2378  0.5927  0.0337
   61MOL   O58341503   0.824   6.360   5.531 -0.3587 -0.3017 -0.7832
   61MOL   C58441504   0.945   6.474   5.357 -0.4008  0.2121  0.3204
   61MOL   C58541505   1.067   6.497   5.291  0.5153 -0.2916 -0.0605
   61MOL   C58641506   1.187   6.432   5.334 -0.3937  0.3061  0.0673
   61MOL   C58741507   1.318   6.462   5.266  0.1587  0.1940 -0.0385
   61MOL   O58841508   1.349   6.575   5.234 -0.1730 -0.1005  0.0028
   61MOL   C58941509   1.415   6.344   5.239  0.0026 -0.0914 -0.2085
   61MOL   C59041510   1.552   6.358   5.263  0.2739 -0.1957 -0.2303
   61MOL   C59141511   1.644   6.253   5.235 -0.4063  0.0445  0.4363
   61MOL   C59241512   1.589   6.135   5.175  0.4615  0.5563  1.0513
   61MOL   O59341513   1.668   6.024   5.139 -0.1283  0.6246 -0.3497
   61MOL   C59441514   1.795   6.015   5.184  0.2091  0.1697 -1.2328
   61MOL   C59541515   1.901   6.044   5.094  0.4720 -0.1826 -0.1781
   61MOL   C59641516   2.035   6.042   5.148  0.8394  0.0327  0.0381
   61MOL   C59741517   2.060   6.014   5.284 -0.0901  0.2889 -0.3120
   61MOL   C59841518   1.954   5.979   5.364  0.1725  0.1037 -0.5977
   61MOL   C59941519   1.823   5.976   5.312 -0.2427 -0.8766  0.2908
   61MOL   C60041520   1.455   6.124   5.154  0.0936  0.1414  0.3084
   61MOL   C60141521   1.364   6.224   5.184 -0.3870  0.4168 -0.8006
   61MOL   H60241522   1.270   6.298   5.479 -0.5049  1.4664  1.2956
   61MOL   H60341523   1.065   6.252   5.591 -1.0502  0.6362  0.3834
   61MOL   H60441524   0.855   6.520   5.320 -0.7731 -1.0324 -0.3510
   61MOL   H60541525   1.061   6.564   5.207  1.2224  0.0444  0.1551
   61MOL   H60641526   1.589   6.454   5.293 -1.2521  0.7769 -1.3973
   61MOL   H60741527   1.752   6.258   5.245 -0.2191 -1.7594 -0.4034
   61MOL   H60841528   1.904   6.085   4.994  1.2281  0.2213  0.0041
   61MOL   H60941529   2.114   6.061   5.078  1.3849  1.3429  0.9941
   61MOL   H61041530   1.978   5.984   5.470 -0.7948  2.0365 -0.4411
   61MOL   H61141531   1.736   5.950   5.371 -1.4421  1.0154 -0.5753
   61MOL   H61241532   1.420   6.036   5.103 -0.3293  0.8214 -0.5874
   61MOL   H61341533   1.257   6.215   5.175 -0.4708  1.1922 -0.6491
   61MOL   C61441534   2.454   5.828   5.194 -0.6295  0.0464 -0.4019
   61MOL   C61541535   2.339   5.859   5.264  0.3804  0.3921 -0.5141
   61MOL   C61641536   2.301   5.991   5.285  0.2297 -0.4788  0.3216
   61MOL   O61741537   2.183   6.035   5.343  0.0391  1.1374 -0.4789
   61MOL   C61841538   2.387   6.093   5.226  0.9292  0.4941  0.1412
   61MOL   C61941539   2.508   6.060   5.164  0.2679  0.5448  0.3902
   61MOL   C62041540   2.545   5.925   5.156 -0.1150  0.4334  0.6716
   61MOL   C62141541   2.681   5.893   5.110 -0.4158 -0.5416 -0.6137
   61MOL   O62241542   2.755   5.971   5.051 -1.0792  0.1483  0.5979
   61MOL   C62341543   2.732   5.769   5.163  0.4710  0.3165  0.5728
   61MOL   C62441544   2.747   5.742   5.301  0.1627  0.0303 -0.4277
   61MOL   C62541545   2.825   5.638   5.344  0.7217  0.2144 -0.1045
   61MOL   C62641546   2.873   5.542   5.255  0.6090 -0.0898  0.2595
   61MOL   O62741547   2.964   5.446   5.294  0.3539 -0.2754 -0.0630
   61MOL   C62841548   2.925   5.323   5.336  1.2391  0.2841  0.0179
   61MOL   C62941549   2.805   5.294   5.405  0.1920  0.0745 -0.0335
   61MOL   C63041550   2.775   5.164   5.442  0.3567 -0.2049 -0.9572
   61MOL   C63141551   2.869   5.063   5.428 -0.0489  0.3077  0.0442
   61MOL   C63241552   2.981   5.080   5.347  0.1026 -0.2170  0.7650
   61MOL   C63341553   3.006   5.210   5.302 -0.1229 -0.4978 -0.0058
   61MOL   C63441554   2.852   5.561   5.118  0.7110 -0.3905  0.3029
   61MOL   C63541555   2.786   5.672   5.072 -0.4859  0.7151 -0.2156
   61MOL   H63641556   2.478   5.723   5.183 -0.3307  0.3218 -2.6293
   61MOL   H63741557   2.271   5.781   5.295  0.9685 -1.2894 -3.3062
   61MOL   H63841558   2.352   6.195   5.225  1.4810  0.6771 -0.3384
   61MOL   H63941559   2.571   6.138   5.125  0.1866  1.0982  1.3401
   61MOL   H64041560   2.707   5.808   5.376  1.1557  0.8288 -0.5788
   61MOL   H64141561   2.852   5.641   5.448 -1.9858 -0.6953  0.6699
   61MOL   H64241562   2.737   5.375   5.427 -0.3306 -1.0435  2.7773
   61MOL   H64341563   2.685   5.136   5.496  0.5926  1.2484  0.2112
   61MOL   H64441564   3.052   5.002   5.324 -3.5587 -2.6800 -2.6220
   61MOL   H64541565   3.091   5.231   5.240 -0.8294  4.2048  0.4362
   61MOL   H64641566   2.896   5.499   5.042 -0.1216  0.7818 -1.1680
   61MOL   H64741567   2.780   5.704   4.969 -0.6066  0.3195 -0.3337
   61MOL   C64841568   2.870   4.907   5.857 -0.1966  0.2159 -0.4864
   61MOL   C64941569   2.824   4.940   5.731  0.7036 -0.7066 -0.1237
   61MOL   C65041570   2.895   4.914   5.612 -0.4101  0.1286  0.9001
   61MOL   O65141571   2.845   4.942   5.484 -0.3623 -0.5095  0.4340
   61MOL   C65241572   3.027   4.864   5.630 -0.6099 -0.6401  0.3255
   61MOL   C65341573   3.078   4.824   5.758 -0.1526 -0.2128 -0.2235
   61MOL   C65441574   3.001   4.841   5.876  0.3517 -1.0141  0.6469
   61MOL   C65541575   3.061   4.802   6.003  0.5625  0.0319 -0.0600
   61MOL   O65641576   3.124   4.695   6.010  0.5377 -0.0754  0.1209
   61MOL   C65741577   3.034   4.892   6.119  0.1151 -0.1317  0.2867
   61MOL   C65841578   3.041   5.032   6.117  0.3125  0.5420  0.2378
   61MOL   C65941579   3.022   5.102   6.239 -0.0579 -0.0097 -0.1556
   61MOL   C66041580   2.994   5.035   6.359 -0.0766 -0.1990  0.7398
   61MOL   O66141581   2.975   5.108   6.473  0.3563  0.7849 -0.2552
   61MOL   C66241582   3.039   5.089   6.587 -0.9479  0.4649  0.4461
   61MOL   C66341583   3.182   5.090   6.583  0.7002 -0.1299  0.3736
   61MOL   C66441584   3.258   5.069   6.701 -0.5730  0.5311 -0.0089
   61MOL   C66541585   3.194   5.048   6.824 -0.5649 -0.3428  0.6664
   61MOL   C66641586   3.053   5.055   6.828 -0.2618  0.2886 -0.0088
   61MOL   C66741587   2.976   5.071   6.712 -0.4538 -0.1421  1.5848
   61MOL   C66841588   2.993   4.895   6.364 -0.0250 -0.6955 -0.5712
   61MOL   C66941589   3.019   4.827   6.243 -0.4735 -0.0307 -0.0239
   61MOL   H67041590   2.812   4.933   5.944  0.0493  1.7579 -0.7708
   61MOL   H67141591   2.725   4.980   5.715  2.3476  2.0397 -3.8428
   61MOL   H67241592   3.097   4.852   5.548 -1.0917  1.2221 -0.3983
   61MOL   H67341593   3.173   4.774   5.765 -0.2298 -0.4765 -0.9837
   61MOL   H67441594   3.059   5.080   6.022  0.2400  0.3556  0.1299
   61MOL   H67541595   3.022   5.210   6.246  0.3885  0.1004 -1.7847
   61MOL   H67641596   3.237   5.112   6.493  2.1310 -1.3216  0.9576
   61MOL   H67741597   3.365   5.065   6.702 -0.6222 -1.1970  1.5149
   61MOL   H67841598   2.995   5.041   6.918 -2.7889 -0.6265 -1.7146
   61MOL   H67941599   2.869   5.075   6.719 -0.6031  0.2899 -0.5201
   61MOL   H68041600   2.972   4.838   6.452 -0.9966 -2.2552 -1.7853
   61MOL   H68141601   3.031   4.720   6.249 -0.9372 -0.2140 -2.1210
   61MOL   H68241602   3.254   5.025   6.911  2.8607  1.5058 -1.0994
   62MOL     C141603   3.536   6.079   7.347 -1.1821 -0.1446  0.3411
   62MOL     C241604   3.642   5.990   7.344 -0.6353 -0.1626 -0.3001
   62MOL     C341605   3.623   5.851   7.342 -0.1307  0.3530  0.6004
   62MOL     O441606   3.733   5.764   7.322 -0.3631 -0.2878  0.3074
   62MOL     C541607   3.495   5.802   7.333  0.5730  0.2198 -0.0261
   62MOL     C641608   3.386   5.884   7.329 -0.4952  0.2023  0.6377
   62MOL     C741609   3.405   6.025   7.341  0.3611 -0.4540  0.1749
   62MOL     C841610   3.287   6.114   7.328  0.4815 -0.3608 -0.2946
   62MOL     O941611   3.219   6.136   7.429  0.1331  0.2238 -0.5040
   62MOL    C1041612   3.255   6.169   7.193 -0.4045  0.0403  0.3586
   62MOL    C1141613   3.262   6.092   7.075 -0.0489 -0.1046  0.5885
   62MOL    C1241614   3.219   6.149   6.952  0.1383 -0.4856 -0.0255
   62MOL    C1341615   3.161   6.279   6.950  0.7118  0.4391  0.9655
   62MOL    O1441616   3.118   6.340   6.834 -0.1956  0.0364 -0.3836
   62MOL    C1541617   3.166   6.459   6.791  0.5549  0.1690  0.1451
   62MOL    C1641618   3.095   6.577   6.799 -0.1233 -0.4238  0.0384
   62MOL    C1741619   3.160   6.697   6.774 -0.5159  0.2939 -0.5391
   62MOL    C1841620   3.296   6.701   6.736  0.5518  0.3901 -0.8212
   62MOL    C1941621   3.367   6.583   6.718  0.5380  0.3240  0.5147
   62MOL    C2041622   3.297   6.457   6.740  0.4608 -0.2578 -0.3471
   62MOL    C2141623   3.145   6.350   7.069  0.2781  0.6176 -0.2549
   62MOL    C2241624   3.195   6.296   7.186  0.0694  0.1009 -0.2508
   62MOL    H2341625   3.555   6.185   7.349 -0.0086 -0.3184 -0.9241
   62MOL    H2441626   3.746   6.020   7.338 -0.5514 -0.4450 -0.2614
   62MOL    H2541627   3.480   5.695   7.327  2.3934 -0.1009  0.8340
   62MOL    H2641628   3.288   5.840   7.321 -0.9029  1.5031 -1.9575
   62MOL    H2741629   3.302   5.992   7.076 -0.2345 -0.1920 -0.6782
   62MOL    H2841630   3.230   6.096   6.858  1.9748 -0.1720 -0.0085
   62MOL    H2941631   2.999   6.577   6.848  0.3834  1.6182  1.1197
   62MOL    H3041632   3.103   6.789   6.781 -2.2728 -0.8497  0.6750
   62MOL    H3141633   3.473   6.585   6.695  1.2396 -1.9224  3.2886
   62MOL    H3241634   3.362   6.371   6.731  2.8735  1.2601  1.6744
   62MOL    H3341635   3.098   6.446   7.060  0.8424  0.8364 -0.9582
   62MOL    H3441636   3.181   6.350   7.279 -2.2490 -0.2823 -0.3545
   62MOL    H3541637   3.818   5.799   7.342 -1.4451  1.5280  1.8629
   62MOL    C3641638   3.461   6.953   7.044  0.1688  0.4734  0.3752
   62MOL    C3741639   3.376   6.902   6.944 -0.2827  0.4137  0.1495
   62MOL    C3841640   3.427   6.870   6.815 -0.3094  0.3855 -0.1391
   62MOL    O3941641   3.351   6.821   6.710  0.0529 -0.3735 -0.1026
   62MOL    C4041642   3.563   6.882   6.792  0.1584 -0.1104 -0.2216
   62MOL    C4141643   3.648   6.937   6.889  0.1534 -0.1149 -0.5800
   62MOL    C4241644   3.596   6.975   7.014 -0.3133 -0.0452 -0.4572
   62MOL    C4341645   3.688   7.021   7.123 -0.4635  0.1895  0.2972
   62MOL    O4441646   3.755   7.123   7.124  0.4266 -0.3850 -0.5448
   62MOL    C4541647   3.712   6.917   7.222  0.7491  0.0004 -0.4653
   62MOL    C4641648   3.727   6.782   7.191 -0.0357 -0.2407 -0.0173
   62MOL    C4741649   3.732   6.682   7.286  0.2250 -0.7799 -0.5648
   62MOL    C4841650   3.709   6.717   7.420 -0.2109 -0.4022 -0.2587
   62MOL    O4941651   3.715   6.625   7.519  0.1386 -0.4003 -0.3257
   62MOL    C5041652   3.604   6.617   7.598  0.3146 -0.1623 -0.1320
   62MOL    C5141653   3.611   6.677   7.724  0.1755  0.4594  0.1163
   62MOL    C5241654   3.498   6.680   7.809 -0.8175  0.1902 -0.1378
   62MOL    C5341655   3.384   6.606   7.781 -0.8891  0.3748 -0.4014
   62MOL    C5441656   3.386   6.530   7.662  0.1899  0.5115  0.5921
   62MOL    C5541657   3.489   6.541   7.568  0.3572  0.1732  0.8581
   62MOL    C5641658   3.698   6.857   7.453  0.1881  0.0175 -0.2200
   62MOL    C5741659   3.701   6.954   7.353 -0.1469  0.1611  0.0441
   62MOL    H5841660   3.418   6.977   7.140 -0.6774  1.7062 -0.3118
   62MOL    H5941661   3.268   6.895   6.944 -0.4035  1.3733  3.3313
   62MOL    H6041662   3.611   6.844   6.703  0.5309 -0.4540  0.1242
   62MOL    H6141663   3.754   6.933   6.868  0.2960  0.1201  0.0686
   62MOL    H6241664   3.746   6.754   7.089 -1.6443  0.7601 -0.6190
   62MOL    H6341665   3.747   6.580   7.252 -1.3674 -1.1306 -0.2522
   62MOL    H6441666   3.691   6.737   7.764 -1.0516  1.4889  1.0798
   62MOL    H6541667   3.511   6.735   7.901 -0.8980  0.7022 -0.4308
   62MOL    H6641668   3.304   6.460   7.650  0.6814 -0.4896  2.7963
   62MOL    H6741669   3.495   6.488   7.474 -0.5256  0.8815  0.4013
   62MOL    H6841670   3.674   6.891   7.553  1.7120 -1.5766  0.7061
   62MOL    H6941671   3.692   7.059   7.378 -2.0611  0.6557 -2.5617
   62MOL    C7041672   3.213   6.255   7.954  0.7961 -0.5461  0.2269
   62MOL    C7141673   3.272   6.377   7.920 -0.5014 -0.2106  0.2912
   62MOL    C7241674   3.210   6.498   7.893  0.2303 -0.3278 -0.8204
   62MOL    O7341675   3.283   6.615   7.864 -0.1403  0.6054  0.6270
   62MOL    C7441676   3.071   6.507   7.900 -0.0504 -0.7387  0.0763
   62MOL    C7541677   3.002   6.388   7.943  0.5004  0.9167  0.4322
   62MOL    C7641678   3.073   6.266   7.974  0.6182 -0.0653 -0.0352
   62MOL    C7741679   2.999   6.152   8.012 -0.3291 -0.2336  0.1405
   62MOL    O7841680   2.909   6.110   7.944 -0.2002  0.2093 -0.1447
   62MOL    C7941681   3.034   6.099   8.148  0.1262  0.3433 -0.7726
   62MOL    C8041682   3.124   6.164   8.233  0.3833 -0.3617  0.3220
   62MOL    C8141683   3.168   6.115   0.046  0.5267  0.7005 -0.0578
   62MOL    C8241684   3.121   5.986   0.085  0.4542  0.4915 -0.9393
   62MOL    O8341685   3.191   5.908   0.179 -0.1555 -0.2036  0.4109
   62MOL    C8441686   3.124   5.861   0.284  0.1026  0.2246  0.1379
   62MOL    C8541687   3.056   5.948   0.376 -0.3706  0.3777 -0.0142
   62MOL    C8641688   3.006   5.895   0.494  0.0208  0.3255  0.0401
   62MOL    C8741689   3.023   5.760   0.526 -0.9391 -0.4109 -0.3414
   62MOL    C8841690   3.085   5.670   0.434  0.0996 -0.0762  0.4163
   62MOL    C8941691   3.143   5.727   0.316 -0.5422  0.3498 -0.0879
   62MOL    C9041692   3.011   5.928   0.016 -0.4497 -0.1840 -0.0609
   62MOL    C9141693   2.972   5.982   8.201 -0.3926  0.0785 -0.4709
   62MOL    H9241694   3.271   6.166   7.973  1.2775  0.1501  2.1576
   62MOL    H9341695   3.379   6.380   7.910 -0.4879  0.7927  0.6984
   62MOL    H9441696   3.023   6.594   7.858  0.7436 -1.3506 -2.1788
   62MOL    H9541697   2.895   6.377   7.933  0.7079 -0.4246 -0.3998
   62MOL    H9641698   3.173   6.256   8.203  1.0761 -1.2646 -1.3785
   62MOL    H9741699   3.233   6.168   0.114  2.1273 -0.0538 -0.9834
   62MOL    H9841700   3.044   6.055   0.364  2.1290  0.5963 -0.7819
   62MOL    H9941701   2.954   5.964   0.559  1.7165  0.6522  1.0876
   62MOL   H10041702   3.081   5.564   0.454  2.4090 -0.3342 -0.3523
   62MOL   H10141703   3.205   5.664   0.255  1.5361  0.6629  1.6188
   62MOL   H10241704   2.982   5.828   0.043  0.4286 -0.8743 -1.5895
   62MOL   H10341705   2.897   5.926   8.148  0.1402 -1.3138  0.2206
   62MOL   C10441706   3.070   5.790   0.999 -0.2443  0.8699 -0.0927
   62MOL   C10541707   2.991   5.774   0.879  0.5765 -0.3022 -0.5857
   62MOL   C10641708   3.052   5.730   0.760 -1.4496  0.5770  0.8479
   62MOL   O10741709   2.970   5.718   0.648  0.0967 -0.7924 -0.2693
   62MOL   C10841710   3.186   5.689   0.761  1.2403 -0.3915  0.6006
   62MOL   C10941711   3.259   5.687   0.877  0.7818  0.5517  0.4753
   62MOL   C11041712   3.202   5.735   0.997  0.7383  0.2005 -0.0399
   62MOL   C11141713   3.282   5.767   1.115  0.1422 -0.1444 -0.0690
   62MOL   O11241714   3.240   5.855   1.189  0.3395 -0.2670 -0.0125
   62MOL   C11341715   3.407   5.695   1.148  0.8855 -1.5152 -1.0487
   62MOL   C11441716   3.527   5.767   1.177  0.5790 -0.9274  0.4373
   62MOL   C11541717   3.643   5.696   1.213  0.0599  0.0831 -0.0366
   62MOL   C11641718   3.642   5.557   1.219  0.0414  0.4034  0.4868
   62MOL   O11741719   3.755   5.486   1.248 -0.2882 -0.1748  0.2566
   62MOL   C11841720   3.790   5.481   1.382 -0.1312  0.4134  0.8033
   62MOL   C11941721   3.693   5.459   1.484 -0.2376 -0.3322  0.4346
   62MOL   C12041722   3.726   5.472   1.621 -0.8379 -0.2433  0.8467
   62MOL   C12141723   3.859   5.503   1.655  0.1990 -0.2068 -0.1732
   62MOL   C12241724   3.958   5.519   1.561  0.2346 -1.4012 -0.5275
   62MOL   C12341725   3.922   5.515   1.422 -0.4906  0.3352 -0.1028
   62MOL   C12441726   3.524   5.487   1.179 -0.6153  0.5009  0.1466
   62MOL   C12541727   3.410   5.557   1.152 -0.1538 -0.3976  0.3867
   62MOL   H12641728   3.022   5.837   1.084 -0.7158 -1.7757  1.1463
   62MOL   H12741729   2.889   5.808   0.885  0.6240 -0.0475 -1.1497
   62MOL   H12841730   3.236   5.665   0.668  0.7687  1.1160 -0.0560
   62MOL   H12941731   3.363   5.658   0.884  0.5077 -0.1305  2.0579
   62MOL   H13041732   3.526   5.875   1.186  0.8158 -1.1674  3.8332
   62MOL   H13141733   3.736   5.744   1.238 -1.0308  2.0269  0.4637
   62MOL   H13241734   3.594   5.429   1.453 -1.0342  0.5521  2.0372
   62MOL   H13341735   3.651   5.443   1.693 -2.7257 -0.4837 -1.1582
   62MOL   H13441736   4.060   5.537   1.591  0.1271 -0.0138 -0.9736
   62MOL   H13541737   3.996   5.523   1.343  0.2096 -0.1265  0.5045
   62MOL   H13641738   3.515   5.379   1.187 -1.8310  0.4272 -2.1069
   62MOL   H13741739   3.319   5.504   1.131 -1.2970  1.3225  0.8714
   62MOL   C13841740   3.794   5.845   1.892 -0.0576  0.7670  0.2820
   62MOL   C13941741   3.829   5.737   1.808  0.0401 -0.2498 -0.0462
   62MOL   C14041742   3.865   5.607   1.863 -0.1936 -1.0693 -0.0886
   62MOL   O14141743   3.893   5.501   1.790  0.4335  0.1327 -0.4183
   62MOL   C14241744   3.864   5.593   2.005 -0.2518 -0.7907  0.1986
   62MOL   C14341745   3.846   5.711   2.088  0.3501 -0.0913 -0.2906
   62MOL   C14441746   3.802   5.836   2.029  0.3236  0.5018 -0.5504
   62MOL   C14541747   3.752   5.945   2.114  0.8682 -0.1563 -0.6286
   62MOL   O14641748   3.799   6.055   2.112  0.2480  0.6513  0.2703
   62MOL   C14741749   3.638   5.916   2.207  0.2465 -0.2102 -0.1727
   62MOL   C14841750   3.629   5.976   2.332  0.1526  0.0714  0.1410
   62MOL   C14941751   3.527   5.946   2.423  0.1722 -0.0065  0.0837
   62MOL   C15041752   3.420   5.860   2.381  0.3285 -0.1896  0.1045
   62MOL   O15141753   3.309   5.842   2.458  0.3732 -0.1257 -0.1057
   62MOL   C15241754   3.262   5.720   2.481 -0.1681 -0.2020  0.3490
   62MOL   C15341755   3.162   5.674   2.395 -0.1589  0.2125 -0.0482
   62MOL   C15441756   3.107   5.545   2.400  0.2221  0.3019 -0.4558
   62MOL   C15541757   3.157   5.462   2.507  0.0582 -0.0745  0.3750
   62MOL   C15641758   3.248   5.506   2.602 -0.2236 -0.4148  0.1814
   62MOL   C15741759   3.311   5.632   2.581  0.5474 -0.1302 -1.3055
   62MOL   C15841760   3.427   5.803   2.255  0.3617 -0.5434 -0.0922
   62MOL   C15941761   3.531   5.835   2.160 -0.1489 -0.1986 -0.8170
   62MOL   H16041762   3.774   5.939   1.842 -1.2997  0.8331  0.9094
   62MOL   H16141763   3.830   5.763   1.703  2.7806  1.1586  0.2802
   62MOL   H16241764   3.883   5.494   2.045  1.1708 -0.9948 -0.9582
   62MOL   H16341765   3.840   5.697   2.195  0.5159 -0.5408 -0.3353
   62MOL   H16441766   3.701   6.050   2.362 -1.2748  1.6971 -0.3772
   62MOL   H16541767   3.509   6.001   2.514  1.7050  0.7776 -0.0705
   62MOL   H16641768   3.136   5.747   2.320  3.3916  1.4915 -0.0829
   62MOL   H16741769   3.029   5.507   2.335  0.5183 -1.9578  0.4750
   62MOL   H16841770   3.284   5.443   2.682  0.6200  0.5959  0.6144
   62MOL   H16941771   3.380   5.665   2.658  0.0087  0.8437 -1.2302
   62MOL   H17041772   3.340   5.745   2.229 -1.3004  2.3259 -1.1316
   62MOL   H17141773   3.527   5.797   2.059  0.5563  0.5486 -1.1336
   62MOL   C17241774   2.830   5.402   2.763 -0.6605  0.1742  0.0852
   62MOL   C17341775   2.957   5.403   2.700 -0.1728  0.1967  0.1346
   62MOL   C17441776   2.980   5.328   2.584 -0.0304 -0.6138 -0.1528
   62MOL   O17541777   3.101   5.336   2.516  0.4101 -0.5962 -0.0996
   62MOL   C17641778   2.869   5.266   2.523 -0.5446  0.0820 -0.4874
   62MOL   C17741779   2.748   5.251   2.597 -0.2279 -0.0375 -0.6364
   62MOL   C17841780   2.724   5.330   2.715 -0.5678  0.3587  0.3044
   62MOL   C17941781   2.594   5.307   2.784 -0.2000 -0.3220 -0.0286
   62MOL   O18041782   2.495   5.271   2.727  0.4742 -0.4200 -0.2230
   62MOL   C18141783   2.600   5.322   2.928 -0.1276 -0.1806 -0.1233
   62MOL   C18241784   2.514   5.414   2.989  0.3524  0.4946 -0.1750
   62MOL   C18341785   2.499   5.417   3.128 -0.3000 -0.3497 -0.2066
   62MOL   C18441786   2.586   5.341   3.203  0.1124 -0.8476 -0.1361
   62MOL   O18541787   2.573   5.322   3.339  0.2076 -0.5464 -0.3297
   62MOL   C18641788   2.632   5.406   3.431 -0.3964  0.6101  0.4427
   62MOL   C18741789   2.633   5.547   3.433  0.7753 -0.3845 -0.1499
   62MOL   C18841790   2.677   5.619   3.548  0.3594  0.5382  0.1321
   62MOL   C18941791   2.737   5.555   3.653  0.4243  0.0641 -0.0879
   62MOL   C19041792   2.745   5.416   3.648  0.0532  0.2841 -0.7191
   62MOL   C19141793   2.690   5.341   3.539  0.8393 -0.4528  0.3831
   62MOL   C19241794   2.680   5.254   3.144 -0.6221 -0.2115  0.5596
   62MOL   C19341795   2.681   5.240   3.002  0.5643 -0.3024 -0.7411
   62MOL   H19441796   2.818   5.475   2.841 -1.7588  1.2421 -1.0630
   62MOL   H19541797   3.030   5.462   2.753 -0.8078 -0.1655  1.4390
   62MOL   H19641798   2.886   5.219   2.427 -0.1253  0.8601 -0.7975
   62MOL   H19741799   2.675   5.186   2.549 -3.5911  1.9338  1.5984
   62MOL   H19841800   2.442   5.479   2.940 -0.5418  0.2313  0.7684
   62MOL   H19941801   2.425   5.483   3.170  0.2912 -0.1209  0.4809
   62MOL   H20041802   2.582   5.600   3.355  2.7012 -0.8794 -1.7976
   62MOL   H20141803   2.658   5.725   3.553  0.9515  0.6103  1.0807
   62MOL   H20241804   2.792   5.361   3.729 -2.6639  0.6099  1.1698
   62MOL   H20341805   2.689   5.234   3.551  2.3149 -0.4100  0.9768
   62MOL   H20441806   2.741   5.189   3.204 -1.0754  0.2464  1.5295
   62MOL   H20541807   2.744   5.167   2.953  1.2805 -1.3111  1.5896
   62MOL   C20641808   3.092   5.813   3.702  0.1504 -0.9094  0.2101
   62MOL   C20741809   2.998   5.705   3.705 -0.7623 -0.4743  0.9289
   62MOL   C20841810   2.871   5.725   3.765 -0.2774  0.2696  0.1619
   62MOL   O20941811   2.773   5.627   3.764  0.1612 -0.7749  0.9908
   62MOL   C21041812   2.853   5.835   3.848  0.1690 -0.2702 -0.8110
   62MOL   C21141813   2.950   5.940   3.850 -0.2554  0.1143  0.3413
   62MOL   C21241814   3.064   5.933   3.770  0.7446 -0.0940  0.1245
   62MOL   C21341815   3.165   6.048   3.766 -0.3915 -1.1998 -0.2535
   62MOL   O21441816   3.284   6.030   3.762  0.5257  0.6135 -0.1482
   62MOL   C21541817   3.106   6.189   3.784 -0.1569 -0.1068 -0.5767
   62MOL   C21641818   2.979   6.217   3.727 -0.2948  0.2644  0.5296
   62MOL   C21741819   2.926   6.349   3.720  0.1165 -0.5871 -0.0797
   62MOL   C21841820   2.996   6.451   3.792 -0.2973 -0.1886  0.3439
   62MOL   O21941821   2.961   6.578   3.797  0.2928 -0.4078  0.2732
   62MOL   C22041822   2.986   6.655   3.682  0.5072 -0.0329  0.9604
   62MOL   C22141823   2.980   6.793   3.706  0.4110 -1.0554 -0.0972
   62MOL   C22241824   3.005   6.882   3.596  0.5117  0.7805  0.0688
   62MOL   C22341825   3.028   6.834   3.466  0.3200 -0.2293  0.2491
   62MOL   C22441826   3.026   6.700   3.448 -0.2592 -0.4373 -0.3109
   62MOL   C22541827   3.001   6.606   3.551 -0.1162  0.1199  0.1319
   62MOL   C22641828   3.120   6.415   3.860 -0.0205 -0.5307  0.1301
   62MOL   C22741829   3.178   6.286   3.852  0.0302  0.6048  0.6020
   62MOL   H22841830   3.179   5.806   3.640  0.1271 -0.0529  0.0822
   62MOL   H22941831   3.020   5.610   3.658  1.0470 -0.8238  2.4447
   62MOL   H23041832   2.759   5.841   3.900  0.3377  1.1745 -0.6387
   62MOL   H23141833   2.924   6.015   3.923 -2.3221  0.3672 -0.6384
   62MOL   H23241834   2.931   6.141   3.667  1.4726  0.0979 -0.7082
   62MOL   H23341835   2.835   6.376   3.668  0.4402  0.9613  0.1576
   62MOL   H23441836   2.962   6.830   3.806 -0.0771  1.0962 -0.9545
   62MOL   H23541837   3.017   6.987   3.618  1.7691  0.3764  1.3969
   62MOL   H23641838   3.045   6.657   3.351 -1.7378 -2.9994  0.4844
   62MOL   H23741839   3.008   6.503   3.520 -1.2559 -0.0212  0.2949
   62MOL   H23841840   3.178   6.491   3.910  0.4659 -0.8464  0.0468
   62MOL   H23941841   3.271   6.261   3.901 -0.4228 -3.2935 -0.3294
   62MOL   C24041842   3.435   6.822   3.365  0.0966 -0.0676 -0.9070
   62MOL   C24141843   3.315   6.875   3.408 -0.2669 -0.6127  0.4386
   62MOL   C24241844   3.204   6.891   3.323  0.2720  0.2553 -0.5086
   62MOL   O24341845   3.079   6.918   3.368 -0.0679 -0.5213  0.6810
   62MOL   C24441846   3.222   6.859   3.192  0.2472  0.7920 -0.4422
   62MOL   C24541847   3.344   6.806   3.137 -0.5015  0.3813 -0.1671
   62MOL   C24641848   3.454   6.790   3.225 -0.1396  0.3806  0.7794
   62MOL   C24741849   3.584   6.723   3.191  0.1498  0.2276  0.5049
   62MOL   O24841850   3.622   6.625   3.251  0.0233 -0.1664 -0.1430
   62MOL   C24941851   3.656   6.774   3.071 -0.0404  0.1034 -0.4692
   62MOL   C25041852   3.617   6.887   2.997 -0.0994 -0.5581 -0.0401
   62MOL   C25141853   3.692   6.945   2.892 -0.6125  0.3145  0.4262
   62MOL   C25241854   3.817   6.880   2.854  0.0389 -0.4905 -0.6743
   62MOL   O25341855   3.895   6.933   2.756  0.2698 -0.5119  0.0417
   62MOL   C25441856   3.929   6.857   2.650  0.6733 -0.3930  1.0831
   62MOL   C25541857   4.046   6.890   2.583  1.2426  0.1361  0.2073
   62MOL   C25641858   4.083   6.822   2.466  0.9264  0.3793  0.2235
   62MOL   C25741859   3.997   6.722   2.415  0.2060 -0.0363  0.3541
   62MOL   C25841860   3.878   6.683   2.483  0.3685  0.1503  0.0216
   62MOL   C25941861   3.850   6.752   2.604 -0.3255  0.7572 -0.3936
   62MOL   C26041862   3.853   6.760   2.923  0.2969 -0.4389  0.4237
   62MOL   C26141863   3.777   6.706   3.028 -0.2007 -0.5968  0.0747
   62MOL   H26241864   3.516   6.806   3.435  0.4975  0.4527 -1.2534
   62MOL   H26341865   3.291   6.885   3.512  0.0769  0.3178  0.4330
   62MOL   H26441866   3.147   6.877   3.117 -0.0196  0.0641 -0.3584
   62MOL   H26541867   3.340   6.794   3.029  0.8861 -1.1132 -0.0835
   62MOL   H26641868   3.526   6.935   3.026  1.8474  3.5295 -0.3952
   62MOL   H26741869   3.659   7.034   2.839  0.9724  1.1813  0.8726
   62MOL   H26841870   4.086   6.984   2.617 -1.6583  0.4305  2.9951
   62MOL   H26941871   4.175   6.842   2.414  0.8308 -0.6440 -0.3575
   62MOL   H27041872   3.811   6.611   2.438 -0.6342  1.5952 -0.8791
   62MOL   H27141873   3.757   6.728   2.654  1.5387 -0.6655  2.5084
   62MOL   H27241874   3.945   6.708   2.900  1.1423  0.4287  1.7393
   62MOL   H27341875   3.822   6.622   3.079  0.5874 -1.3627 -1.8169
   62MOL   C27441876   4.140   6.317   2.359  0.4183 -0.3124  0.7246
   62MOL   C27541877   4.138   6.456   2.350  0.1086  0.1007 -0.0538
   62MOL   C27641878   4.030   6.524   2.300  0.5141 -0.2409  0.0531
   62MOL   O27741879   4.028   6.659   2.298 -0.1047  0.0850 -0.1117
   62MOL   C27841880   3.916   6.455   2.259  0.5052 -1.1362 -0.1433
   62MOL   C27941881   3.911   6.315   2.273 -0.4290 -0.5224 -0.1886
   62MOL   C28041882   4.024   6.241   2.321 -0.5068 -0.0703  0.3105
   62MOL   C28141883   4.020   6.092   2.314  0.8174 -0.6484 -0.5038
   62MOL   O28241884   3.935   6.029   2.366  0.0654  0.1397  0.0352
   62MOL   C28341885   4.114   6.039   2.217 -0.3080 -0.1058 -0.0008
   62MOL   C28441886   4.149   5.902   2.222  0.1380 -0.3051  0.5529
   62MOL   C28541887   4.223   5.843   2.114 -0.4553 -0.0850 -0.0079
   62MOL   C28641888   4.266   5.919   2.000  0.6054 -0.1057 -0.1342
   62MOL   O28741889   4.336   5.864   1.896 -0.0100 -0.0695  0.6174
   62MOL   C28841890   4.293   5.881   1.767  0.7340 -0.7405  0.0771
   62MOL   C28941891   4.159   5.855   1.737  0.0146 -0.3369  0.1075
   62MOL   C29041892   4.107   5.895   1.611 -0.6217  0.0158 -0.2230
   62MOL   C29141893   4.198   5.943   1.510  0.7006 -0.5567  0.5520
   62MOL   C29241894   4.336   5.964   1.543  0.8246 -0.9083  0.1729
   62MOL   C29341895   4.386   5.936   1.672  0.5559  0.1468 -0.4401
   62MOL   C29441896   4.233   6.056   1.996  0.1994 -0.0201 -0.4688
   62MOL   C29541897   4.159   6.113   2.106 -0.2711 -0.1962 -0.4021
   62MOL   H29641898   4.229   6.259   2.373 -0.3150 -2.0613 -1.5412
   62MOL   H29741899   4.227   6.513   2.370 -0.0059 -0.3454  1.7803
   62MOL   H29841900   3.840   6.514   2.210  2.5340  1.6908 -0.0471
   62MOL   H29941901   3.819   6.268   2.241  0.7472 -2.4084 -0.9120
   62MOL   H30041902   4.126   5.838   2.306 -0.1073  0.6006  1.1770
   62MOL   H30141903   4.232   5.736   2.121  1.9900  0.1337  0.5254
   62MOL   H30241904   4.092   5.809   1.808 -1.2458 -1.2468 -1.6332
   62MOL   H30341905   4.000   5.886   1.603 -0.8422  1.8353  0.5448
   62MOL   H30441906   4.396   6.001   1.461  0.5061 -0.6420  0.0596
   62MOL   H30541907   4.485   5.956   1.711  0.0905  0.3574  0.6741
   62MOL   H30641908   4.268   6.120   1.917  2.5008 -2.4720 -1.4961
   62MOL   H30741909   4.122   6.214   2.100 -0.6782 -0.2667  0.7657
   62MOL   C30841910   4.153   6.308   1.279 -0.5368 -0.2895 -0.3974
   62MOL   C30941911   4.196   6.178   1.314  0.6113 -0.1147 -0.0068
   62MOL   C31041912   4.105   6.093   1.374 -0.1645  0.6186 -0.0186
   62MOL   O31141913   4.148   5.971   1.388  0.0358  0.8475 -0.3778
   62MOL   C31241914   3.977   6.134   1.410  0.0216 -0.5311 -0.5290
   62MOL   C31341915   3.940   6.269   1.383  0.2114 -0.6006  0.1973
   62MOL   C31441916   4.025   6.355   1.307 -0.0562  0.3298 -0.7362
   62MOL   C31541917   3.972   6.486   1.262  0.3348  0.3010 -0.2381
   62MOL   O31641918   3.892   6.552   1.331 -0.6990  0.7274  0.0990
   62MOL   C31741919   4.026   6.541   1.134  0.4148  0.1709  0.6263
   62MOL   C31841920   4.061   6.675   1.130  0.5245 -0.2028  0.1434
   62MOL   C31941921   4.095   6.735   1.004  0.5517 -0.0257 -0.1494
   62MOL   C32041922   4.084   6.661   0.885 -0.8388  0.1133 -0.2348
   62MOL   O32141923   4.106   6.717   0.757  0.2405  0.4399 -0.0938
   62MOL   C32241924   4.232   6.704   0.699  0.3345  0.0667 -1.1842
   62MOL   C32341925   4.245   6.611   0.595 -0.4726  0.0071  0.1311
   62MOL   C32441926   4.368   6.604   0.523  0.5580 -0.0613  0.5845
   62MOL   C32541927   4.475   6.694   0.557  0.1127  0.1486  0.3237
   62MOL   C32641928   4.461   6.786   0.662  0.4353 -0.3250 -0.0875
   62MOL   C32741929   4.342   6.784   0.738  0.3312  0.5203  0.2747
   62MOL   C32841930   4.059   6.519   0.894  0.2262  0.6474  0.0383
   62MOL   C32941931   4.027   6.463   1.016 -0.8046 -0.7420 -0.0777
   62MOL   H33041932   4.223   6.375   1.231 -1.1327  2.8403  2.8459
   62MOL   H33141933   4.301   6.155   1.301  0.6024 -0.5248  0.6278
   62MOL   H33241934   3.904   6.068   1.455  0.6771 -0.7374  0.2411
   62MOL   H33341935   3.839   6.299   1.409  1.0982  0.2065  2.7784
   62MOL   H33441936   4.055   6.740   1.216 -1.0748 -2.1520  1.5532
   62MOL   H33541937   4.122   6.840   0.998  0.7561 -0.1103 -0.7119
   62MOL   H33641938   4.163   6.542   0.579  0.8660 -2.1289  2.2340
   62MOL   H33741939   4.377   6.534   0.441 -1.8015 -0.5931  0.7494
   62MOL   H33841940   4.544   6.854   0.680  0.7804 -0.2941 -1.6748
   62MOL   H33941941   4.331   6.859   0.815 -0.4753  0.7952 -0.1049
   62MOL   H34041942   4.058   6.467   0.799 -0.2986  3.2021 -1.4275
   62MOL   H34141943   3.995   6.360   1.023 -0.0382 -0.9752 -0.0105
   62MOL   C34241944   4.805   6.432   0.631  0.8342 -0.2567  0.0989
   62MOL   C34341945   4.692   6.492   0.575 -0.1343  0.8387 -0.0784
   62MOL   C34441946   4.694   6.626   0.542 -0.3038 -0.0636 -0.0304
   62MOL   O34541947   4.589   6.695   0.483 -0.0923 -0.2515 -0.0904
   62MOL   C34641948   4.808   6.702   0.574 -0.0199 -0.0133 -0.0876
   62MOL   C34741949   4.925   6.639   0.633  0.4102  0.0825 -0.0295
   62MOL   C34841950   4.923   6.500   0.653 -0.0622 -0.3140 -0.3757
   62MOL   C34941951   5.047   6.437   0.706 -0.1872  0.2300 -0.1156
   62MOL   O35041952   5.043   6.362   0.802 -0.2163  0.4530 -0.5049
   62MOL   C35141953   5.168   6.463   0.626  0.5826  0.4818 -0.6406
   62MOL   C35241954   5.173   6.465   0.485  0.2595  0.1544  0.3121
   62MOL   C35341955   5.294   6.499   0.418  0.3110  0.4929  0.1033
   62MOL   C35441956   5.407   6.513   0.498  0.0599 -0.6614 -0.4345
   62MOL   O35541957   5.526   6.526   0.438 -0.0883 -0.1097 -0.4470
   62MOL   C35641958   5.595   6.416   0.390 -0.1213  0.6220 -0.0019
   62MOL   C35741959   5.650   6.415   0.254 -0.7369 -0.2767  0.2061
   62MOL   C35841960   5.713   6.302   0.204  0.0774 -0.6595 -0.8185
   62MOL   C35941961   5.734   6.190   0.288 -0.3531  0.0866  0.3900
   62MOL   C36041962   5.687   6.193   0.419  0.3517  0.2109 -0.2628
   62MOL   C36141963   5.617   6.304   0.472 -0.7870  0.5862 -0.2143
   62MOL   C36241964   5.411   6.503   0.638  0.2865  0.2460 -0.2165
   62MOL   C36341965   5.285   6.482   0.701  0.3185 -0.4893 -0.2329
   62MOL   H36441966   4.794   6.325   0.644 -0.4181 -0.1398  0.0969
   62MOL   H36541967   4.603   6.436   0.550 -0.4056  0.9577  0.5849
   62MOL   H36641968   4.829   6.806   0.555 -1.9519  0.3930 -0.0642
   62MOL   H36741969   5.012   6.699   0.656  0.4559 -0.1443  0.3977
   62MOL   H36841970   5.080   6.446   0.433  0.3806  2.6342 -0.8803
   62MOL   H36941971   5.297   6.501   0.310 -0.8664 -0.7044  0.0267
   62MOL   H37041972   5.657   6.508   0.199  3.2973 -0.2247  0.6588
   62MOL   H37141973   5.762   6.308   0.108  0.8542  1.0735 -0.3234
   62MOL   H37241974   5.714   6.102   0.470  1.1788  0.8027  0.3729
   62MOL   H37341975   5.597   6.302   0.578  2.4400 -3.3125  0.4329
   62MOL   H37441976   5.506   6.504   0.690  1.1517 -1.0298 -1.7124
   62MOL   H37541977   5.282   6.487   0.809  1.4441  1.2427 -0.2587
   62MOL   C37641978   6.155   6.161   0.425  0.3195 -0.4657  0.2490
   62MOL   C37741979   6.015   6.127   0.410  0.0600  0.2201  0.4616
   62MOL   C37841980   5.960   6.134   0.281  0.4129  0.1263  0.8801
   62MOL   O37941981   5.830   6.095   0.255  0.0796  0.0358 -0.1525
   62MOL   C38041982   6.038   6.171   0.169 -0.0880 -0.4012 -0.3181
   62MOL   C38141983   6.178   6.203   0.183 -0.4996  0.3723 -0.6562
   62MOL   C38241984   6.235   6.194   0.309  0.0903  0.4134 -0.0556
   62MOL   C38341985   6.383   6.239   0.324 -0.1582 -0.2961 -0.3565
   62MOL   O38441986   6.461   6.213   0.231 -0.4526  0.4104 -0.0610
   62MOL   C38541987   6.426   6.308   0.448 -0.3892 -0.6634  0.8120
   62MOL   C38641988   6.557   6.288   0.499 -0.0692  0.0707  0.7270
   62MOL   C38741989   6.600   6.360   0.616  0.8100  0.8299 -0.2053
   62MOL   C38841990   6.509   6.444   0.685  0.7447  0.0530 -0.0601
   62MOL   O38941991   6.539   6.494   0.808 -0.0991 -0.4038  0.0376
   62MOL   C39041992   6.563   6.627   0.813  0.0761 -0.4407  0.4969
   62MOL   C39141993   6.674   6.686   0.750 -0.5712 -0.0757 -0.3023
   62MOL   C39241994   6.706   6.824   0.778 -0.1039 -0.2597  0.0047
   62MOL   C39341995   6.627   6.905   0.863 -0.3850  0.0580 -0.2921
   62MOL   C39441996   6.513   6.847   0.914  0.1853 -0.5541 -0.5153
   62MOL   C39541997   6.478   6.713   0.889  0.4259  0.7806  0.1406
   62MOL   C39641998   6.374   6.453   0.643  0.1046 -0.1889 -0.4184
   62MOL   C39741999   6.339   6.392   0.518 -0.0495  0.3088 -0.4579
   62MOL   H39842000   6.197   6.150   0.524  0.6390 -1.0149  0.0559
   62MOL   H39942001   5.955   6.095   0.494 -1.7994  3.3028  0.3634
   62MOL   H40042002   6.008   6.171   0.065  1.2596  0.1841 -0.7221
   62MOL   H40142003   6.242   6.237   0.103 -1.7598  1.3619 -1.2731
   62MOL   H40242004   6.627   6.223   0.450 -0.6821  0.2324 -0.3722
   62MOL   H40342005   6.692   6.352   0.672  0.7026  2.6074  0.2414
   62MOL   H40442006   6.725   6.611   0.691 -0.4316  0.2621 -0.6102
   62MOL   H40542007   6.791   6.873   0.733  1.2731 -2.3712  0.2432
   62MOL   H40642008   6.452   6.910   0.977 -0.2182  1.0137 -2.4488
   62MOL   H40742009   6.385   6.681   0.934  0.6206  1.0539  0.7427
   62MOL   H40842010   6.311   6.521   0.698  0.1877 -1.5009  1.3400
   62MOL   H40942011   6.236   6.402   0.486  0.4028 -1.8540 -2.8146
   62MOL   C41042012   6.953   7.219   0.754  0.3251  0.1497  0.9397
   62MOL   C41142013   6.871   7.137   0.836 -0.0823 -0.1223  0.0241
   62MOL   C41242014   6.737   7.107   0.804 -0.2864  0.1489  0.0119
   62MOL   O41342015   6.658   7.034   0.888  0.2806  0.1245 -0.5794
   62MOL   C41442016   6.677   7.160   0.680 -0.0358  0.0891 -0.0335
   62MOL   C41542017   6.758   7.234   0.595  0.5012  0.7035 -0.9484
   62MOL   C41642018   6.890   7.265   0.632  0.0459 -0.2578 -0.0494
   62MOL   C41742019   6.974   7.354   0.549  0.2444  0.1935 -0.1558
   62MOL   O41842020   7.000   7.328   0.429  0.0124 -0.5248 -0.5642
   62MOL   C41942021   7.011   7.495   0.597 -0.1931  0.3063 -0.8229
   62MOL   C42042022   6.957   7.540   0.719  1.2702  0.7668 -0.5322
   62MOL   C42142023   7.001   7.662   0.777 -0.2117  0.7504  0.9566
   62MOL   C42242024   7.097   7.739   0.705 -0.3797  0.1683  0.0338
   62MOL   O42342025   7.146   7.851   0.762  0.1143 -0.7286  0.3318
   62MOL   C42442026   7.066   7.957   0.769 -0.5947 -0.6612 -0.5289
   62MOL   C42542027   6.987   7.975   0.885  0.1481  0.0521  0.0185
   62MOL   C42642028   6.903   8.091   0.891  0.4208 -0.2891 -0.1785
   62MOL   C42742029   6.897   8.180   0.786 -0.6709 -0.3927 -0.2830
   62MOL   C42842030   6.963   8.155   0.665  0.1716 -0.2699  0.4170
   62MOL   C42942031   7.056   8.049   0.663  0.0678  0.2311  0.6194
   62MOL   C43042032   7.152   7.688   0.588 -0.0594  0.4187 -0.8104
   62MOL   C43142033   7.109   7.571   0.526 -0.8312  0.0178  0.7564
   62MOL   H43242034   7.052   7.252   0.782  0.8381 -0.0761 -0.5599
   62MOL   H43342035   6.903   7.106   0.934 -1.4701  0.5530  0.6932
   62MOL   H43442036   6.571   7.150   0.661 -0.3916  4.2584 -0.6630
   62MOL   H43542037   6.707   7.270   0.507 -1.2164  1.3682  0.2834
   62MOL   H43642038   6.884   7.477   0.767  1.0528  2.6405  1.6589
   62MOL   H43742039   6.951   7.704   0.863 -0.1931  1.1596  0.7693
   62MOL   H43842040   6.998   7.921   0.978  1.1837  0.0169 -0.1249
   62MOL   H43942041   6.835   8.108   0.973 -0.5991 -0.3909 -0.9897
   62MOL   H44042042   6.949   8.223   0.582  0.3895  1.2025  1.5617
   62MOL   H44142043   7.116   8.020   0.578 -0.2102  2.8445 -0.5144
   62MOL   H44242044   7.227   7.746   0.535  0.3049  1.3118  0.6599
   62MOL   H44342045   7.171   7.543   0.442  1.9712  0.8874  2.4428
   62MOL   C44442046   6.531   0.053   1.008  0.7146  0.2220 -0.1173
   62MOL   C44542047   6.658   0.058   0.955  0.1824 -0.7996  0.4168
   62MOL   C44642048   6.691   8.289   0.843 -0.6676  0.5553  0.0739
   62MOL   O44742049   6.819   8.291   0.789  0.3324 -0.0949 -0.3744
   62MOL   C44842050   6.594   8.210   0.781  0.0154  0.6933  0.5914
   62MOL   C44942051   6.465   8.219   0.833 -0.0750  0.7083 -0.3969
   62MOL   C45042052   6.430   8.285   0.952 -0.2139  0.2363  0.1989
   62MOL   C45142053   6.296   8.279   1.019  0.0066  0.1104 -0.5024
   62MOL   O45242054   6.250   0.069   1.073  0.1978 -0.6819 -0.2981
   62MOL   C45342055   6.218   8.156   1.012  0.2727  0.1778  0.6391
   62MOL   C45442056   6.079   8.163   1.026  0.4311 -0.6985  0.0162
   62MOL   C45542057   5.992   8.055   1.020 -0.7681 -0.3097 -0.0046
   62MOL   C45642058   6.047   7.935   0.990 -0.4457 -0.0279  0.2213
   62MOL   O45742059   5.957   7.834   0.970 -0.0891 -0.9494 -0.0588
   62MOL   C45842060   5.877   7.850   0.862  0.3427 -0.1451 -0.2251
   62MOL   C45942061   5.740   7.846   0.884  0.1556 -1.2446 -0.6359
   62MOL   C46042062   5.656   7.856   0.767 -0.2878 -0.0668 -0.0737
   62MOL   C46142063   5.706   7.872   0.636 -0.1950 -0.5714  0.1583
   62MOL   C46242064   5.845   7.885   0.622  0.4259  0.7188 -0.2429
   62MOL   C46342065   5.928   7.871   0.732  0.1186  0.1608 -0.1692
   62MOL   C46442066   6.189   7.917   0.987 -0.8287  0.1854 -0.2253
   62MOL   C46542067   6.273   8.028   0.990 -0.2046 -0.3238  0.4244
   62MOL   H46642068   6.515   0.109   1.100  3.1843  0.9269 -0.0789
   62MOL   H46742069   6.729   0.120   1.009  0.9496 -2.3034  1.1470
   62MOL   H46842070   6.614   8.158   0.689 -2.0302 -1.0140  1.0863
   62MOL   H46942071   6.390   8.160   0.782  0.7958 -3.2337  2.6189
   62MOL   H47042072   6.037   8.262   1.038  0.7293 -0.7179  1.2723
   62MOL   H47142073   5.887   8.067   1.038 -0.6502  2.3151 -0.9393
   62MOL   H47242074   5.697   7.833   0.982 -2.8678  0.9526 -1.5995
   62MOL   H47342075   5.552   7.826   0.763 -0.6582  0.8991  1.7396
   62MOL   H47442076   5.888   7.886   0.523 -0.3657 -0.3120 -0.6074
   62MOL   H47542077   6.031   7.889   0.704  0.9437  0.6209  3.0198
   62MOL   H47642078   6.240   7.827   0.958 -1.1820  0.4077 -1.5863
   62MOL   H47742079   6.381   8.022   0.982 -0.2215 -0.4924  0.3022
   62MOL   C47842080   5.501   7.539   0.415 -0.0054  0.2508 -0.6432
   62MOL   C47942081   5.514   7.655   0.487 -0.2135 -0.8143 -0.2717
   62MOL   C48042082   5.622   7.740   0.465 -0.2227  0.1601  0.4535
   62MOL   O48142083   5.629   7.859   0.528 -0.5623  0.3121  0.1538
   62MOL   C48242084   5.731   7.695   0.381 -0.3299  0.2559 -0.4796
   62MOL   C48342085   5.725   7.571   0.318 -0.6064 -0.5880  0.1432
   62MOL   C48442086   5.605   7.496   0.331 -0.0577 -0.1610 -0.0194
   62MOL   C48542087   5.583   7.378   0.244  0.1079  1.1020 -0.1985
   62MOL   O48642088   5.466   7.350   0.213  0.8098 -0.1809 -0.1273
   62MOL   C48742089   5.700   7.294   0.192  0.1687  0.1969  0.1433
   62MOL   C48842090   5.701   7.232   0.061 -0.4441 -0.1805 -0.8896
   62MOL   C48942091   5.820   7.176   0.008 -0.0143  0.0166 -0.6211
   62MOL   C49042092   5.930   7.168   0.094  0.5950  0.4377 -0.8742
   62MOL   O49142093   6.055   7.120   0.045 -0.1446  0.0154  0.2036
   62MOL   C49242094   6.098   6.986   0.063  0.1486 -1.0804 -0.5384
   62MOL   C49342095   6.207   6.932   8.299  0.4320 -1.0531 -0.1588
   62MOL   C49442096   6.263   6.807   8.309 -0.2382  0.4620  0.5635
   62MOL   C49542097   6.202   6.715   0.082  0.0773  0.0588  0.1317
   62MOL   C49642098   6.084   6.757   0.154  0.2492  0.2937  0.4429
   62MOL   C49742099   6.037   6.886   0.145  0.4717  0.2105  1.3093
   62MOL   C49842100   5.934   7.224   0.221  0.2383  0.3244  0.1751
   62MOL   C49942101   5.821   7.281   0.271  0.5504 -0.0512  0.5223
   62MOL   H50042102   5.407   7.486   0.418 -0.1369  0.4946 -0.4682
   62MOL   H50142103   5.429   7.687   0.546 -0.3092 -0.3309 -0.6773
   62MOL   H50242104   5.817   7.760   0.372  0.2539 -0.4495 -0.0633
   62MOL   H50342105   5.813   7.544   0.261  1.0602  3.3303  0.6828
   62MOL   H50442106   5.611   7.234   0.001 -1.3225 -1.5013  0.3369
   62MOL   H50542107   5.823   7.144   8.217  1.9998 -0.1339 -0.5421
   62MOL   H50642108   6.256   6.998   8.229  0.0947  1.0631  1.5559
   62MOL   H50742109   6.356   6.789   8.256  0.7603  2.2908  1.6218
   62MOL   H50842110   6.039   6.688   0.222 -1.7231 -2.6883 -3.6646
   62MOL   H50942111   5.955   6.918   0.206 -1.0200  0.4248 -0.7604
   62MOL   H51042112   6.029   7.220   0.272 -0.2713  1.2684  1.2398
   62MOL   H51142113   5.824   7.314   0.374  1.0430  0.4494  0.3498
   62MOL   C51242114   6.388   6.346   8.186 -0.3946  0.1392  0.2714
   62MOL   C51342115   6.376   6.438   8.289 -0.2289  0.0724 -1.0357
   62MOL   C51442116   6.253   6.505   0.002 -1.1508 -0.8270 -0.0884
   62MOL   O51542117   6.254   6.595   0.107 -0.0023 -0.3022  0.0647
   62MOL   C51642118   6.139   6.465   8.250 -1.0445  0.4051 -0.4158
   62MOL   C51742119   6.151   6.365   8.144  0.3454  0.1795  0.2066
   62MOL   C51842120   6.276   6.312   8.102 -0.1815 -0.2992  0.1115
   62MOL   C51942121   6.296   6.229   7.983  0.6284  0.3004 -0.6374
   62MOL   O52042122   6.356   6.122   7.982 -0.2581 -0.2493  0.0135
   62MOL   C52142123   6.221   6.274   7.864  0.8322  0.4525  1.1837
   62MOL   C52242124   6.172   6.165   7.784  0.0328 -0.0611 -0.1409
   62MOL   C52342125   6.102   6.187   7.665  0.9754 -0.1312  0.3794
   62MOL   C52442126   6.082   6.319   7.623 -0.5337  0.0892 -0.2804
   62MOL   O52542127   6.007   6.349   7.514 -0.1891 -0.1483 -0.3384
   62MOL   C52642128   5.895   6.425   7.530 -0.1186 -0.5465  0.3299
   62MOL   C52742129   5.796   6.394   7.622 -0.1081  0.3748 -0.0100
   62MOL   C52842130   5.678   6.470   7.628  0.1380 -0.0925  0.0493
   62MOL   C52942131   5.661   6.587   7.547  0.2480 -0.4955  0.0271
   62MOL   C53042132   5.754   6.615   7.443 -0.0258 -0.2850 -0.5429
   62MOL   C53142133   5.867   6.530   7.440  0.4652  0.2354  0.0622
   62MOL   C53242134   6.135   6.432   7.697 -0.3713 -0.4161 -0.2324
   62MOL   C53342135   6.207   6.408   7.820 -0.4447 -0.8119  0.2530
   62MOL   H53442136   6.490   6.321   8.162 -0.3297  2.9426 -2.7959
   62MOL   H53542137   6.469   6.456   0.029 -0.1231  0.9471 -1.4985
   62MOL   H53642138   6.046   6.510   8.281 -1.3461  0.1711 -0.9803
   62MOL   H53742139   6.064   6.337   8.086 -0.8239 -0.3699  2.2031
   62MOL   H53842140   6.204   6.069   7.821  0.3138 -0.6478 -1.9023
   62MOL   H53942141   6.062   6.102   7.612  1.7848 -0.0759 -0.3316
   62MOL   H54042142   5.806   6.302   7.677  0.3415  0.3129 -0.1864
   62MOL   H54142143   5.599   6.448   7.698 -0.5723  2.4735  0.0816
   62MOL   H54242144   5.736   6.698   7.377  0.8457 -0.0779 -0.5166
   62MOL   H54342145   5.940   6.548   7.362  2.1007  3.1901  2.2110
   62MOL   H54442146   6.120   6.529   7.651 -1.0759 -0.5388 -0.2744
   62MOL   H54542147   6.239   6.490   7.883 -0.4114  1.4678 -2.6179
   62MOL   C54642148   5.474   6.892   7.286  0.3861 -0.7888 -0.2728
   62MOL   C54742149   5.523   6.844   7.407 -0.4175  0.6413 -0.0841
   62MOL   C54842150   5.485   6.716   7.455 -0.7961  0.9529 -0.3282
   62MOL   O54942151   5.550   6.661   7.564 -0.1789  0.2081  0.4270
   62MOL   C55042152   5.387   6.645   7.382  0.2199  0.9327  0.1449
   62MOL   C55142153   5.334   6.698   7.262  0.1651 -0.3567  0.1032
   62MOL   C55242154   5.364   6.831   7.224 -0.4267 -0.3914 -0.8382
   62MOL   C55342155   5.298   6.906   7.116  0.0832  0.1177  0.4525
   62MOL   O55442156   5.362   6.958   7.023  0.1754  0.4310 -0.0282
   62MOL   C55542157   5.147   6.900   7.115 -0.1616  0.1746  0.4797
   62MOL   C55642158   5.071   6.880   7.229  0.1517  0.7570  0.8299
   62MOL   C55742159   4.932   6.860   7.218  0.3635  0.4760 -0.0731
   62MOL   C55842160   4.869   6.871   7.097 -0.1609  0.5470  0.4916
   62MOL   O55942161   4.735   6.858   7.085  0.3551 -0.5393 -0.1491
   62MOL   C56042162   4.678   6.747   7.143 -0.1745  0.1976 -0.0990
   62MOL   C56142163   4.553   6.770   7.200  1.2495  0.1575  0.1989
   62MOL   C56242164   4.482   6.661   7.252 -0.0647  0.2334  0.0936
   62MOL   C56342165   4.544   6.535   7.272  0.6252  0.4846 -0.4360
   62MOL   C56442166   4.668   6.514   7.217 -0.6638 -0.2698 -0.1691
   62MOL   C56542167   4.742   6.618   7.153  0.4284  0.6924 -0.0617
   62MOL   C56642168   4.944   6.898   6.980 -0.0882 -0.1775  0.5836
   62MOL   C56742169   5.083   6.913   6.990  0.6072  0.2115 -0.3436
   62MOL   H56842170   5.502   6.991   7.254 -0.3130 -0.4419  0.1988
   62MOL   H56942171   5.596   6.902   7.462 -0.0540  0.8755 -0.8087
   62MOL   H57042172   5.361   6.545   7.414  0.7245  0.3318 -1.2538
   62MOL   H57142173   5.257   6.641   7.213 -0.5746  1.3984 -0.8503
   62MOL   H57242174   5.115   6.877   7.328  2.6748  0.9166 -0.2419
   62MOL   H57342175   4.872   6.839   7.305 -2.0545 -0.1126 -1.8397
   62MOL   H57442176   4.497   6.860   7.179 -1.7487 -1.5259  0.5310
   62MOL   H57542177   4.379   6.678   7.280 -0.1590  0.9589 -0.6515
   62MOL   H57642178   4.719   6.419   7.224  0.7780  0.3179 -2.1361
   62MOL   H57742179   4.837   6.601   7.104  0.0334  0.4098 -0.7385
   62MOL   H57842180   4.894   6.923   6.888  0.0495 -0.8535  0.3239
   62MOL   H57942181   5.135   6.924   6.897 -1.4621 -0.5643 -1.6329
   62MOL   C58042182   4.525   6.440   7.693 -0.1221  0.3683 -0.3167
   62MOL   C58142183   4.498   6.481   7.560 -0.2522  0.4862  0.0370
   62MOL   C58242184   4.503   6.389   7.455 -0.0256 -0.1427 -0.1072
   62MOL   O58342185   4.470   6.435   7.328  0.0962  0.7175  0.0421
   62MOL   C58442186   4.535   6.253   7.487  0.5026 -0.1474  0.1990
   62MOL   C58542187   4.551   6.209   7.617  0.2315  0.4714 -0.0922
   62MOL   C58642188   4.552   6.304   7.717  0.1925  0.6432 -0.0097
   62MOL   C58742189   4.590   6.264   7.855 -0.1240 -0.0040  0.2157
   62MOL   O58842190   4.691   6.204   7.881  0.4003 -0.1846  0.7704
   62MOL   C58942191   4.499   6.314   7.965  0.6401  0.1850  0.5235
   62MOL   C59042192   4.362   6.349   7.942 -0.6216 -0.0301  0.5643
   62MOL   C59142193   4.279   6.398   8.048  0.0748  0.4117 -0.2612
   62MOL   C59242194   4.335   6.432   8.173  0.4855  0.5652  0.3144
   62MOL   O59342195   4.259   6.494   8.263  0.2729 -0.2520 -0.0459
   62MOL   C59442196   4.148   6.425   0.003  1.0714  0.4787  0.5215
   62MOL   C59542197   4.034   6.500   0.051 -0.0511 -0.4383  0.0169
   62MOL   C59642198   3.934   6.436   0.127 -0.0523 -0.6298  0.2134
   62MOL   C59742199   3.947   6.303   0.163 -0.6035 -0.1449 -0.2228
   62MOL   C59842200   4.046   6.230   0.101  0.5075 -1.0717 -0.1409
   62MOL   C59942201   4.144   6.286   0.023  0.0125  0.2490 -0.0843
   62MOL   C60042202   4.470   6.398   8.198  0.2521  0.3677  0.4240
   62MOL   C60142203   4.549   6.341   8.094 -0.8068 -0.2236 -0.0057
   62MOL   H60242204   4.535   6.506   7.778  0.4834  1.1873 -1.0085
   62MOL   H60342205   4.477   6.585   7.537 -1.2811  0.3288  0.2467
   62MOL   H60442206   4.532   6.172   7.416  2.2033 -0.0314 -0.0223
   62MOL   H60542207   4.561   6.106   7.648 -0.1578 -0.4509 -2.8620
   62MOL   H60642208   4.320   6.335   7.843  1.3426  1.8601 -0.5629
   62MOL   H60742209   4.173   6.417   8.039 -0.5856 -2.2028  1.3571
   62MOL   H60842210   4.025   6.608   0.042  2.8994 -0.3012 -1.9606
   62MOL   H60942211   3.857   6.504   0.158  1.0440  1.7965 -2.1101
   62MOL   H61042212   4.055   6.124   0.118 -1.0033 -1.2012 -0.0572
   62MOL   H61142213   4.231   6.232   8.303  1.4948  2.2109  0.4798
   62MOL   H61242214   4.524   6.417   8.289  1.6400  1.2627 -0.5752
   62MOL   H61342215   4.647   6.315   8.130 -0.2661  0.6421 -0.8142
   62MOL   C61442216   3.858   6.078   0.575  0.3026  0.4775 -0.4181
   62MOL   C61542217   3.818   6.110   0.446 -0.5215  0.1305 -0.2976
   62MOL   C61642218   3.897   6.208   0.374 -0.8781  0.2150 -0.7409
   62MOL   O61742219   3.859   6.238   0.246 -0.5824 -0.0488 -0.1787
   62MOL   C61842220   4.008   6.270   0.429  0.0355  0.1204 -0.2208
   62MOL   C61942221   4.031   6.247   0.562 -0.1174 -0.0197 -0.0176
   62MOL   C62042222   3.964   6.148   0.639  0.3229 -0.5192  0.1696
   62MOL   C62142223   4.005   6.121   0.782 -0.2816  0.3117  0.8076
   62MOL   O62242224   4.121   6.097   0.814 -0.5124 -0.6977  0.3957
   62MOL   C62342225   3.902   6.119   0.888  0.8183  0.0786  0.5071
   62MOL   C62442226   3.797   6.206   0.876 -0.3531 -0.0161  0.2186
   62MOL   C62542227   3.699   6.223   0.979 -0.6757 -0.6037  0.4250
   62MOL   C62642228   3.708   6.141   1.091  0.7973  0.0111 -0.1878
   62MOL   O62742229   3.625   6.151   1.199  0.5656 -0.4320 -0.5010
   62MOL   C62842230   3.505   6.223   1.182  0.2423  0.0340  0.5947
   62MOL   C62942231   3.386   6.149   1.155  0.0315 -0.5643 -0.8157
   62MOL   C63042232   3.259   6.210   1.140 -0.1504 -0.4341 -0.5515
   62MOL   C63142233   3.263   6.349   1.143  0.6343  0.6497  0.1074
   62MOL   C63242234   3.377   6.425   1.169 -0.8888 -0.2084 -0.0843
   62MOL   C63342235   3.497   6.360   1.196 -0.7147 -0.3244  0.3161
   62MOL   C63442236   3.807   6.041   1.096 -0.3565 -0.2438  0.9321
   62MOL   C63542237   3.909   6.034   1.000 -0.0828 -0.1477 -0.4514
   62MOL   H63642238   3.797   6.013   0.636  0.5140  2.2651  1.7691
   62MOL   H63742239   3.733   6.058   0.403 -1.0927 -1.8722  3.0969
   62MOL   H63842240   4.074   6.336   0.375  2.2416 -2.2601 -0.5661
   62MOL   H63942241   4.109   6.307   0.607  1.1114 -1.3368 -0.3472
   62MOL   H64042242   3.773   6.263   0.787  1.2210 -1.3568 -1.0758
   62MOL   H64142243   3.616   6.289   0.959  0.4427  0.7644  0.2515
   62MOL   H64242244   3.389   6.041   1.148 -0.2923 -0.7608  1.5962
   62MOL   H64342245   3.175   6.147   1.116 -1.0133  0.5666 -0.2040
   62MOL   H64442246   3.370   6.528   1.202  0.1311 -0.2159  0.1820
   62MOL   H64542247   3.581   6.420   1.227  0.1596 -1.1295 -0.4958
   62MOL   H64642248   3.814   5.982   1.186  0.8123 -0.1231  0.9273
   62MOL   H64742249   3.989   5.962   1.012 -1.1445 -1.1769  0.6505
   62MOL   C64842250   3.061   6.754   1.035  0.0803  0.2256  0.7391
   62MOL   C64942251   3.087   6.637   1.109 -0.0072 -0.5646 -0.0335
   62MOL   C65042252   3.119   6.511   1.057  0.2796  0.5205 -0.0928
   62MOL   O65142253   3.143   6.407   1.141  0.7214 -0.2794 -0.3916
   62MOL   C65242254   3.143   6.505   0.914  0.4473  0.2230 -0.3379
   62MOL   C65342255   3.121   6.619   0.836 -0.2070  0.1512 -0.1513
   62MOL   C65442256   3.089   6.742   0.901  0.7951  0.4765  0.8512
   62MOL   C65542257   3.081   6.861   0.811  0.3101 -0.2311  0.1455
   62MOL   O65642258   2.979   6.924   0.796  0.0527 -0.3307 -0.4224
   62MOL   C65742259   3.203   6.895   0.743 -1.0042  0.8388 -0.3059
   62MOL   C65842260   3.191   6.984   0.626 -0.0277 -0.4241 -0.4218
   62MOL   C65942261   3.304   7.032   0.560  0.1799 -0.2551 -0.0338
   62MOL   C66042262   3.430   6.980   0.597  0.6459 -0.5800  0.1338
   62MOL   O66142263   3.535   7.039   0.534  0.0929 -0.0750 -0.1930
   62MOL   C66242264   3.652   7.048   0.605 -0.1130 -0.3853  0.4267
   62MOL   C66342265   3.704   7.165   0.656  0.5939  0.0259  0.6467
   62MOL   C66442266   3.827   7.157   0.731 -0.5706 -0.2362  1.4585
   62MOL   C66542267   3.900   7.034   0.737  0.2583 -0.1270  0.3055
   62MOL   C66642268   3.858   6.923   0.664  0.2740  0.8477 -0.9524
   62MOL   C66742269   3.734   6.929   0.601  0.3525  0.5645 -0.7407
   62MOL   C66842270   3.444   6.880   0.698  0.7309 -0.2822 -0.6316
   62MOL   C66942271   3.330   6.844   0.770 -0.1289  0.1551 -0.4643
   62MOL   H67042272   3.022   6.847   1.075 -0.8273  0.0962  0.1612
   62MOL   H67142273   3.073   6.642   1.216 -0.2435  0.1609 -0.1002
   62MOL   H67242274   3.156   6.408   0.870 -0.0679 -0.5906  1.2731
   62MOL   H67342275   3.126   6.614   0.729 -0.5702  2.2756 -0.2860
   62MOL   H67442276   3.094   7.030   0.611  1.3302  3.4189  1.8338
   62MOL   H67542277   3.294   7.105   0.482 -1.9111 -2.0316 -1.4783
   62MOL   H67642278   3.651   7.259   0.644 -0.2209 -0.7076 -1.9234
   62MOL   H67742279   3.868   7.252   0.765 -2.2440  0.7434  0.7963
   62MOL   H67842280   3.908   6.827   0.656  1.0520  1.1608  0.0649
   62MOL   H67942281   3.701   6.838   0.553 -0.9553 -0.3487  1.7627
   62MOL   H68042282   3.534   6.824   0.722  0.5850 -1.4086 -2.6139
   62MOL   H68142283   3.345   6.782   0.857 -0.3526  0.0292 -0.5152
   62MOL   H68242284   3.995   7.022   0.787  1.3478  0.2065 -1.6456
   63MOL     C142285   0.077   4.543   5.384 -0.1235 -0.1872  0.5266
   63MOL     C242286   0.174   4.496   5.472  0.3081  0.1263 -0.2445
   63MOL     C342287   0.136   4.400   5.570 -0.0450  0.2343 -0.3432
   63MOL     O442288   0.227   4.355   5.654 -0.2765 -0.4925 -0.3435
   63MOL     C542289   0.004   4.357   5.586  0.1828  0.1222 -0.6688
   63MOL     C642290   8.219   4.404   5.494 -0.4782 -0.0904 -0.1513
   63MOL     C742291   8.258   4.499   5.393  0.2451 -0.2223 -0.2483
   63MOL     C842292   8.160   4.553   5.293  0.6509  0.3605 -0.6361
   63MOL     O942293   8.119   4.671   5.290  0.7494  0.6618 -0.2691
   63MOL    C1042294   8.127   4.465   5.179 -0.2038 -0.3621  0.0093
   63MOL    C1142295   8.041   4.520   5.077  0.4308  0.4276  0.0299
   63MOL    C1242296   8.003   4.444   4.962 -0.2211  0.3272  0.4415
   63MOL    C1342297   8.054   4.312   4.945 -0.2482  0.1607  0.3613
   63MOL    O1442298   7.999   4.228   4.847 -0.0150 -0.4488  0.3100
   63MOL    C1542299   8.082   4.165   4.758  0.7371 -0.0090 -0.2697
   63MOL    C1642300   8.081   4.020   4.753 -0.4195  0.0042 -0.3622
   63MOL    C1742301   8.168   3.965   4.660  0.3349  0.3121  0.7851
   63MOL    C1842302   8.256   4.047   4.585 -0.2124  0.6703 -0.4351
   63MOL    C1942303   8.267   4.189   4.596  0.6648  0.1933  0.3567
   63MOL    C2042304   8.174   4.244   4.688  1.0348  0.3553 -0.3725
   63MOL    C2142305   8.141   4.260   5.045  0.2880  0.3070 -0.0918
   63MOL    C2242306   8.183   4.339   5.158  0.3670  0.3580 -0.5787
   63MOL    H2342307   0.099   4.613   5.305  1.0240 -0.5786  0.4903
   63MOL    H2442308   0.275   4.533   5.458  0.6048 -1.4182 -2.5457
   63MOL    H2542309   8.272   4.296   5.662  1.4261  1.4018  1.1431
   63MOL    H2642310   8.118   4.375   5.517 -1.3266  0.3461 -3.0285
   63MOL    H2742311   7.997   4.618   5.076  0.5510  0.4786 -0.7713
   63MOL    H2842312   7.935   4.489   4.891  0.0773 -1.5037 -1.0418
   63MOL    H2942313   8.021   3.951   4.809  1.8305 -2.8410 -1.3442
   63MOL    H3042314   8.172   3.858   4.646 -2.0841  0.2010  0.7711
   63MOL    H3142315   0.021   4.246   4.534  0.8342 -1.2856 -0.8640
   63MOL    H3242316   8.147   4.349   4.681 -0.9949 -0.3387 -4.0545
   63MOL    H3342317   8.172   4.157   5.031 -0.1995  0.3302 -1.4216
   63MOL    H3442318   8.253   4.297   5.228 -2.4429  0.0256  2.1533
   63MOL    H3542319   0.198   4.296   5.723 -2.0468 -0.8845 -1.4055
   63MOL    C3642320   0.316   3.881   4.685 -0.0003  0.2588 -0.1933
   63MOL    C3742321   0.208   3.955   4.642 -0.0847 -0.3721  0.1201
   63MOL    C3842322   0.125   3.901   4.547  0.7074  0.7410  0.2866
   63MOL    O3942323   0.025   3.977   4.492 -0.4388  0.0251 -0.2253
   63MOL    C4042324   0.135   3.769   4.498  0.2640 -0.9259  0.1635
   63MOL    C4142325   0.239   3.692   4.546  0.4411  0.2235  0.6100
   63MOL    C4242326   0.336   3.749   4.634 -0.2140  0.4918 -1.2404
   63MOL    C4342327   0.449   3.670   4.678 -1.1287  0.1292  0.4941
   63MOL    O4442328   0.534   3.628   4.596 -0.5695 -0.3991 -0.7152
   63MOL    C4542329   0.475   3.652   4.821 -0.0546  0.3087 -0.4223
   63MOL    C4642330   0.370   3.662   4.917  0.0213 -0.0532 -0.0332
   63MOL    C4742331   0.390   3.612   5.047 -0.0627 -0.1305 -0.0096
   63MOL    C4842332   0.513   3.566   5.090  0.4560 -0.1224  0.2724
   63MOL    O4942333   0.539   3.552   5.221  0.2098 -0.1147  0.0616
   63MOL    C5042334   0.506   3.426   5.262  0.0776 -0.7523  0.4563
   63MOL    C5142335   0.564   3.313   5.196  0.6248 -0.0616  0.0512
   63MOL    C5242336   0.509   3.192   5.231  0.6788 -0.1571 -0.3102
   63MOL    C5342337   0.401   3.177   5.325  0.1935  0.4038  0.2988
   63MOL    C5442338   0.353   3.292   5.392 -0.1702  0.4388 -0.0100
   63MOL    C5542339   0.406   3.416   5.362  0.3767 -0.0356  0.4230
   63MOL    C5642340   0.620   3.563   4.996  0.3254  0.4689  0.5007
   63MOL    C5742341   0.602   3.605   4.864  0.6108  0.9814  0.0999
   63MOL    H5842342   0.390   3.920   4.754 -0.0040  1.1329 -0.6813
   63MOL    H5942343   0.199   4.061   4.664 -0.0834 -0.6123  1.3088
   63MOL    H6042344   0.079   3.732   4.413  0.9274 -0.0433 -0.6680
   63MOL    H6142345   0.247   3.588   4.515 -0.3569  0.3377  0.0165
   63MOL    H6242346   0.268   3.694   4.897  1.0184  2.2087 -1.7148
   63MOL    H6342347   0.314   3.625   5.122  1.1199 -3.3149  1.8493
   63MOL    H6442348   0.656   3.320   5.139  1.7610 -2.5487  1.5026
   63MOL    H6542349   0.555   3.112   5.175 -3.7472 -0.9729 -2.9581
   63MOL    H6642350   0.276   3.287   5.468  0.8632 -0.2377  1.0120
   63MOL    H6742351   0.377   3.508   5.410 -0.6458  0.9651 -2.0166
   63MOL    H6842352   0.721   3.545   5.030  0.2573 -1.1598 -0.0991
   63MOL    H6942353   0.693   3.612   4.806  0.5348 -0.5420 -0.2211
   63MOL    C7042354   0.205   2.927   5.659  0.2639 -0.8279 -0.3405
   63MOL    C7142355   0.215   2.978   5.525  0.0455  0.7953  0.2063
   63MOL    C7242356   0.346   3.001   5.472  0.9188  0.2427 -0.1371
   63MOL    O7342357   0.353   3.052   5.349  0.3554 -0.0466 -0.2757
   63MOL    C7442358   0.463   2.971   5.552 -0.4513  0.1903 -0.0078
   63MOL    C7542359   0.452   2.911   5.678  0.1299  0.0711  0.3306
   63MOL    C7642360   0.323   2.900   5.737 -0.0235  0.6443  0.1648
   63MOL    C7742361   0.309   2.857   5.882 -0.8522  0.3502  0.1788
   63MOL    O7842362   0.414   2.824   5.938  0.4323 -0.4327  0.5113
   63MOL    C7942363   0.182   2.862   5.950 -0.0297  0.0518 -0.1112
   63MOL    C8042364   0.148   2.745   6.016 -0.0119 -0.3286  0.0567
   63MOL    C8142365   0.026   2.736   6.086  0.6775 -0.2869  0.5892
   63MOL    C8242366   8.271   2.857   6.121 -0.2074  0.1591 -0.2836
   63MOL    O8342367   8.165   2.860   6.210  0.4407 -0.1933 -0.1957
   63MOL    C8442368   8.194   2.872   6.345 -0.0721 -0.2154 -0.0088
   63MOL    C8542369   8.207   2.754   6.423 -0.3160 -0.4876  0.0078
   63MOL    C8642370   8.231   2.763   6.561  0.4141  0.6836 -0.1878
   63MOL    C8742371   8.220   2.887   6.629 -0.6090  0.7008  0.3222
   63MOL    C8842372   8.206   3.002   6.551  0.0205  0.7195 -0.3967
   63MOL    C8942373   8.194   2.998   6.410 -0.2053  0.4766  0.1604
   63MOL    C9042374   8.307   2.975   6.054  0.6945  0.1131 -0.3791
   63MOL    C9142375   0.103   2.981   5.967 -0.4499  0.1381 -0.6763
   63MOL    H9242376   0.111   2.908   5.708  0.1268  0.2293 -0.1725
   63MOL    H9342377   0.127   3.005   5.469 -0.4217 -0.7750  0.1554
   63MOL    H9442378   0.564   3.000   5.527 -0.6819  0.5297 -0.5413
   63MOL    H9542379   0.534   2.877   5.740 -0.6619 -1.0803  0.7654
   63MOL    H9642380   0.209   2.657   6.008 -1.0254 -0.7852 -3.1754
   63MOL    H9742381   8.312   2.653   6.150 -0.0555 -0.9580 -0.5788
   63MOL    H9842382   8.210   2.655   6.381 -0.1354 -0.6489  0.3986
   63MOL    H9942383   8.252   2.675   6.620  0.9442  1.7347  1.2163
   63MOL   H10042384   8.202   3.098   6.601  1.7971  0.8318 -0.4033
   63MOL   H10142385   8.203   3.093   6.358 -3.8644  0.6278 -0.3714
   63MOL   H10242386   8.243   3.060   6.072  1.0085  0.5324 -1.2177
   63MOL   H10342387   0.126   3.074   5.916 -0.6389 -1.2173 -3.3253
   63MOL   C10442388   7.869   2.848   6.841  0.2806 -0.7387  0.5127
   63MOL   C10542389   7.983   2.891   6.781  0.3914 -0.2886 -0.1463
   63MOL   C10642390   8.111   2.851   6.824  0.1507 -0.2802 -0.7277
   63MOL   O10742391   8.228   2.891   6.767 -0.1129  0.4491  0.1077
   63MOL   C10842392   8.118   2.767   6.934  0.1333  0.4251  0.7787
   63MOL   C10942393   8.000   2.717   7.000 -1.0346 -0.5477 -0.3628
   63MOL   C11042394   7.875   2.763   6.954 -0.4539  0.6273  0.0772
   63MOL   C11142395   7.746   2.719   7.018 -0.0708 -0.0046 -0.8041
   63MOL   O11242396   7.716   2.752   7.132  0.5017 -0.2843  0.3220
   63MOL   C11342397   7.661   2.618   6.947  0.4258 -0.4811 -0.0324
   63MOL   C11442398   7.715   2.545   6.841 -0.9732 -0.8341 -0.2488
   63MOL   C11542399   7.642   2.435   6.788  0.6440 -0.3333  0.0435
   63MOL   C11642400   7.510   2.404   6.834  0.0920  0.3988 -1.0149
   63MOL   O11742401   7.433   2.303   6.781  0.4998  0.0717  0.2467
   63MOL   C11842402   7.484   2.219   6.698 -0.3291  0.3706  0.1040
   63MOL   C11942403   7.476   2.239   6.562 -0.4098  0.2883 -0.6164
   63MOL   C12042404   7.521   2.142   6.476  0.3214 -0.4948  0.0324
   63MOL   C12142405   7.576   2.019   6.518  0.0685 -0.6097  0.3530
   63MOL   C12242406   7.572   1.988   6.657 -0.3121  0.8827  0.6074
   63MOL   C12342407   7.526   2.091   6.745 -0.0457 -0.0748  0.0261
   63MOL   C12442408   7.453   2.488   6.935 -0.6605  0.3735  0.7430
   63MOL   C12542409   7.529   2.598   6.987 -0.6247  0.5423  0.0433
   63MOL   H12642410   7.773   2.876   6.800  0.6909  1.3146  0.9331
   63MOL   H12742411   7.973   2.950   6.691 -2.5255 -1.5440 -0.6941
   63MOL   H12842412   8.211   2.728   6.974 -1.0111 -1.1010  2.0059
   63MOL   H12942413   7.999   2.652   7.086 -3.5219  0.3399  0.3376
   63MOL   H13042414   7.812   2.564   6.798 -0.7013 -1.4929  0.0632
   63MOL   H13142415   7.691   2.374   6.714  1.5754  2.2290 -1.4876
   63MOL   H13242416   7.442   2.330   6.515 -0.9683  0.7887  0.7321
   63MOL   H13342417   7.523   2.156   6.369  1.1889  0.5575  0.1807
   63MOL   H13442418   7.612   1.890   6.680 -1.0481  1.1468  3.0742
   63MOL   H13542419   7.526   2.074   6.851 -1.6341 -0.5521 -0.0345
   63MOL   H13642420   7.353   2.466   6.969  0.4367 -0.6484  3.4748
   63MOL   H13742421   7.486   2.674   7.050 -0.6810  0.0689  0.5911
   63MOL   C13842422   7.843   2.044   6.148 -0.5301  0.9245 -0.4770
   63MOL   C13942423   7.729   2.018   6.228 -0.2506  0.2573 -0.5609
   63MOL   C14042424   7.742   1.963   6.355  0.7198  0.5299 -0.6232
   63MOL   O14142425   7.629   1.929   6.431 -0.0220  0.1083  0.1060
   63MOL   C14242426   7.873   1.939   6.409 -0.3086  0.3339 -0.3576
   63MOL   C14342427   7.984   1.965   6.327 -0.0818  0.7652  0.7387
   63MOL   C14442428   7.971   2.016   6.195  0.6325 -0.5906  0.4292
   63MOL   C14542429   8.094   2.024   6.103  0.7810 -0.4996  0.3097
   63MOL   O14642430   8.183   1.943   6.120  0.1610  0.2768  0.8486
   63MOL   C14742431   8.092   2.120   5.987  0.1330  0.3510 -0.3548
   63MOL   C14842432   8.031   2.250   5.990 -0.7569  0.4046  0.5367
   63MOL   C14942433   8.039   2.330   5.876 -0.1229 -0.2910  0.0126
   63MOL   C15042434   8.113   2.290   5.765  0.3224  0.7905 -0.3517
   63MOL   O15142435   8.080   2.361   5.652  0.0164  0.2755  0.2591
   63MOL   C15242436   8.171   2.425   5.573 -0.5171 -0.3363 -0.5529
   63MOL   C15342437   8.274   2.507   5.630 -0.4619  0.7479  0.3115
   63MOL   C15442438   0.067   2.569   5.555  0.0220 -0.2387 -0.3380
   63MOL   C15542439   0.059   2.554   5.414  0.7442  0.5829 -0.6069
   63MOL   C15642440   8.270   2.479   5.354 -0.2987 -0.3931  0.1865
   63MOL   C15742441   8.168   2.417   5.433 -0.1981  0.1911 -0.5243
   63MOL   C15842442   8.185   2.172   5.767  0.4222 -0.0336  0.4376
   63MOL   C15942443   8.170   2.085   5.876 -0.6859 -0.0411 -0.3650
   63MOL   H16042444   7.822   2.090   6.053 -0.2214  0.3118 -0.8437
   63MOL   H16142445   7.634   2.025   6.178  0.5304  1.4454 -1.9042
   63MOL   H16242446   7.886   1.899   6.509  0.5102 -0.6042 -0.8323
   63MOL   H16342447   8.080   1.938   6.368 -0.4347 -1.1678  0.3277
   63MOL   H16442448   7.966   2.289   6.067  0.1263  1.1946  0.8911
   63MOL   H16542449   7.990   2.426   5.874 -0.7648 -0.5654  1.4737
   63MOL   H16642450   8.260   2.536   5.734  2.8453  0.8014  0.7713
   63MOL   H16742451   0.134   2.638   5.605 -2.1646  1.4005  0.4285
   63MOL   H16842452   8.268   2.463   5.247 -2.4026  0.1150  0.1397
   63MOL   H16942453   8.094   2.353   5.387  1.2932 -2.8471  1.1600
   63MOL   H17042454   8.241   2.148   5.677  0.4653  0.7579  0.2488
   63MOL   H17142455   8.214   1.987   5.885  0.0622  0.2200 -1.0888
   63MOL   C17242456   0.193   2.929   5.139 -0.0869  0.6190 -0.7451
   63MOL   C17342457   0.220   2.809   5.214 -0.1722 -0.5291 -1.0845
   63MOL   C17442458   0.118   2.738   5.274  0.4385 -0.2077  0.5819
   63MOL   O17542459   0.152   2.621   5.338  0.0726  0.0356  0.8845
   63MOL   C17642460   8.299   2.780   5.249 -0.3939 -0.5339 -0.0507
   63MOL   C17742461   8.268   2.898   5.177  0.3732  0.3539 -0.0252
   63MOL   C17842462   0.058   2.972   5.126  0.6689  0.3509 -0.5900
   63MOL   C17942463   0.026   3.081   5.036  0.6504 -0.6817 -0.3824
   63MOL   O18042464   8.309   3.195   5.076 -0.7913  0.1563 -0.5327
   63MOL   C18142465   0.003   3.047   4.893 -0.0537 -0.2369  0.0850
   63MOL   C18242466   0.031   2.916   4.845 -0.5215 -0.0018 -0.0979
   63MOL   C18342467   0.032   2.887   4.707 -0.6659  0.9479  0.0751
   63MOL   C18442468   8.305   2.982   4.613  0.0443 -0.3210 -0.1692
   63MOL   O18542469   8.306   2.951   4.481  0.3055  0.2421  0.2696
   63MOL   C18642470   8.240   2.841   4.448 -1.0144  0.4480 -0.2932
   63MOL   C18742471   8.305   2.740   4.381 -0.0406 -0.2105  0.3152
   63MOL   C18842472   8.234   2.623   4.361 -0.5344 -0.4125  0.4052
   63MOL   C18942473   8.093   2.608   4.397 -0.0285  0.5260  0.1463
   63MOL   C19042474   8.020   2.717   4.448  0.1711  0.0240  0.1620
   63MOL   C19142475   8.101   2.836   4.474  0.2068  0.1213  0.1357
   63MOL   C19242476   8.267   3.110   4.662 -0.0841 -0.4003  0.2669
   63MOL   C19342477   8.275   3.147   4.800  0.0604  0.6044 -0.4691
   63MOL   H19442478   0.270   2.991   5.095  0.8397  1.0836  1.4191
   63MOL   H19542479   0.315   2.759   5.225  1.3469  2.6475  1.1470
   63MOL   H19642480   8.211   2.730   5.288 -1.0937  0.7759  0.0609
   63MOL   H19742481   8.164   2.919   5.158  0.5534  0.7235 -0.6224
   63MOL   H19842482   0.071   2.839   4.910 -0.2450  0.6764  0.5346
   63MOL   H19942483   0.056   2.784   4.682  1.2715  1.3039  0.4060
   63MOL   H20042484   0.093   2.757   4.348 -0.2908 -0.6599 -0.6911
   63MOL   H20142485   8.280   2.540   4.309 -0.6245  0.5679 -1.3085
   63MOL   H20242486   7.918   2.716   4.481  1.0201  0.8743  3.0351
   63MOL   H20342487   8.047   2.915   4.523  0.9705  1.6953 -1.5074
   63MOL   H20442488   8.239   3.181   4.586  1.2886  0.4338  0.5327
   63MOL   H20542489   8.228   3.239   4.832 -0.5988 -0.4113  1.5677
   63MOL   C20642490   7.804   2.456   4.118  0.2364 -0.5578  0.6702
   63MOL   C20742491   7.924   2.483   4.184 -0.8997  0.9266 -0.0418
   63MOL   C20842492   7.934   2.451   4.320  0.0569  0.1501 -0.0720
   63MOL   O20942493   8.046   2.474   4.398 -0.0336 -0.0679 -0.3499
   63MOL   C21042494   7.828   2.387   4.388 -0.7226  0.0195  0.2517
   63MOL   C21142495   7.717   2.354   4.315 -0.3676  0.0721 -0.6466
   63MOL   C21242496   7.697   2.395   4.184  0.0898 -0.3415 -0.7455
   63MOL   C21342497   7.563   2.369   4.122 -0.1384 -0.2284  0.5128
   63MOL   O21442498   7.476   2.287   4.159 -0.3325 -0.0734  0.5938
   63MOL   C21542499   7.536   2.438   3.997  0.5230 -0.0300  0.6254
   63MOL   C21642500   7.611   2.406   3.880 -0.0746  0.9776 -0.1454
   63MOL   C21742501   7.557   2.433   3.756  0.2254 -0.5435  0.1025
   63MOL   C21842502   7.432   2.508   3.742 -0.3950  0.8262 -0.7175
   63MOL   O21942503   7.382   2.537   3.616  0.5360  0.1645  0.5469
   63MOL   C22042504   7.317   2.657   3.613 -0.5411  0.5832  0.0840
   63MOL   C22142505   7.181   2.656   3.579  0.1449 -0.0802  0.5832
   63MOL   C22242506   7.118   2.781   3.558 -0.8880  0.9882  0.1992
   63MOL   C22342507   7.188   2.901   3.572  0.6184 -0.1228 -0.0499
   63MOL   C22442508   7.322   2.896   3.612 -0.3221  0.3130  0.1160
   63MOL   C22542509   7.385   2.778   3.629  0.4920  0.3102 -0.3025
   63MOL   C22642510   7.354   2.529   3.857 -0.1108  0.9396 -0.2270
   63MOL   C22742511   7.405   2.502   3.986 -0.0952  0.5303  0.5577
   63MOL   H22842512   7.798   2.498   4.019 -1.2821 -2.6501 -0.1774
   63MOL   H22942513   8.004   2.533   4.133 -1.4875  2.7223  0.7770
   63MOL   H23042514   7.831   2.374   4.495  1.8746  2.9338  0.5881
   63MOL   H23142515   7.643   2.311   4.381  0.3449 -0.0822  0.0583
   63MOL   H23242516   7.698   2.345   3.899 -1.6537 -0.3238  3.4541
   63MOL   H23342517   7.615   2.397   3.673  1.4291 -2.7306  1.8166
   63MOL   H23442518   7.136   2.559   3.564 -1.1713  0.6866 -0.5831
   63MOL   H23542519   7.016   2.779   3.522 -0.5388 -3.3066 -0.8629
   63MOL   H23642520   7.381   2.986   3.621  1.8623 -1.1029  0.3776
   63MOL   H23742521   7.489   2.770   3.655  0.5343 -0.1806 -0.6106
   63MOL   H23842522   7.252   2.564   3.864 -0.3406 -0.0847  2.0493
   63MOL   H23942523   7.348   2.516   4.076  0.2047 -0.2788  0.8782
   63MOL   C24042524   6.927   2.991   3.242  0.3835  0.2124  0.7420
   63MOL   C24142525   7.035   2.985   3.328 -0.4632  0.7107 -0.3545
   63MOL   C24242526   7.022   3.033   3.457  0.3434 -0.3951  0.1404
   63MOL   O24342527   7.135   3.021   3.540  0.9959 -0.2300  0.2432
   63MOL   C24442528   6.904   3.096   3.494  0.1019 -0.2481 -0.2374
   63MOL   C24542529   6.802   3.118   3.407  0.1954 -0.3214  0.2376
   63MOL   C24642530   6.806   3.064   3.277  0.5341 -0.0008  0.3450
   63MOL   C24742531   6.704   3.078   3.169  0.3087  0.0117  0.0654
   63MOL   O24842532   6.753   3.082   3.054 -0.9629  0.2789  0.2377
   63MOL   C24942533   6.564   3.112   3.204  0.8444  0.4209  0.7073
   63MOL   C25042534   6.485   3.203   3.133 -1.0433 -0.6531 -0.1475
   63MOL   C25142535   6.358   3.244   3.178 -0.5914 -0.0127 -0.2607
   63MOL   C25242536   6.293   3.172   3.285  0.3107  0.7843 -0.0190
   63MOL   O25342537   6.174   3.197   3.344  0.2711 -0.1413 -0.2702
   63MOL   C25442538   6.103   3.309   3.302  0.0078  0.7835  0.2475
   63MOL   C25542539   6.005   3.303   3.202 -0.1710 -0.2184  0.1320
   63MOL   C25642540   5.929   3.418   3.172 -0.6995  0.3713  0.3527
   63MOL   C25742541   5.959   3.535   3.240  0.1326  0.3491  0.1461
   63MOL   C25842542   6.058   3.539   3.339 -0.1792  0.4091 -0.1265
   63MOL   C25942543   6.134   3.429   3.377 -0.0174  0.6969 -0.3287
   63MOL   C26042544   6.372   3.074   3.352  1.5022  0.2761 -0.1430
   63MOL   C26142545   6.505   3.042   3.317 -0.5419 -0.1293 -0.7357
   63MOL   H26242546   6.931   2.956   3.140  0.6604  4.7298 -0.9357
   63MOL   H26342547   7.121   2.929   3.293 -1.0191  0.6981 -1.7545
   63MOL   H26442548   6.897   3.135   3.594 -0.9045 -0.0086 -0.3969
   63MOL   H26542549   6.707   3.162   3.435 -0.1037 -1.9562  1.9107
   63MOL   H26642550   6.545   3.254   3.059  0.7431 -0.8093  1.1579
   63MOL   H26742551   6.312   3.332   3.136  1.9667  2.7516  2.4389
   63MOL   H26842552   5.965   3.212   3.160 -0.1811 -0.0107 -0.3155
   63MOL   H26942553   5.838   3.413   3.114 -0.8859  1.7254  0.5052
   63MOL   H27042554   6.088   3.631   3.387 -2.6638 -0.0204  2.3076
   63MOL   H27142555   6.206   3.432   3.458 -0.1625  0.6588 -0.1987
   63MOL   H27242556   6.340   3.009   3.433  0.8446  0.4061 -0.3019
   63MOL   H27342557   6.559   2.968   3.374 -0.0748  0.3571 -0.5458
   63MOL   C27442558   5.570   3.609   3.414 -0.4673 -0.1345  0.1548
   63MOL   C27542559   5.696   3.580   3.358  0.7100  0.3192 -0.1852
   63MOL   C27642560   5.772   3.679   3.288 -0.0745  0.7370  0.4961
   63MOL   O27742561   5.884   3.647   3.211  0.0875 -0.5991  0.5473
   63MOL   C27842562   5.725   3.813   3.287 -0.2781 -0.2771 -0.0082
   63MOL   C27942563   5.597   3.839   3.343 -0.5201 -0.1068  0.1568
   63MOL   C28042564   5.524   3.740   3.418  0.3894  0.0706 -0.4511
   63MOL   C28142565   5.385   3.784   3.468 -0.5331 -0.4660  0.0549
   63MOL   O28242566   5.296   3.703   3.481 -0.3779  0.4227 -0.5787
   63MOL   C28342567   5.360   3.931   3.502  0.1772 -0.3394  0.1539
   63MOL   C28442568   5.464   3.999   3.572  0.5862  0.1636  0.5031
   63MOL   C28542569   5.450   4.133   3.615  0.5959 -0.7026 -0.1127
   63MOL   C28642570   5.334   4.200   3.578 -0.5017 -0.3357  0.3175
   63MOL   O28742571   5.314   4.333   3.623 -0.0815  0.2865 -0.1223
   63MOL   C28842572   5.291   4.344   3.754  0.3302 -0.4069 -0.0635
   63MOL   C28942573   5.160   4.331   3.804  0.0820  0.4129  0.0835
   63MOL   C29042574   5.130   4.347   3.939 -0.1276  0.5543 -0.0628
   63MOL   C29142575   5.234   4.383   4.026  0.0238  0.1934 -0.5620
   63MOL   C29242576   5.369   4.387   3.976 -0.0767  0.1708 -0.4453
   63MOL   C29342577   5.397   4.369   3.839  0.1312 -0.0903  0.3756
   63MOL   C29442578   5.226   4.136   3.509 -0.3837  0.2189  0.5801
   63MOL   C29542579   5.239   3.998   3.473  0.2851  0.0631  0.2121
   63MOL   H29642580   5.499   3.538   3.453 -0.2832  0.2308  1.1675
   63MOL   H29742581   5.730   3.478   3.370  1.9569  0.6835 -0.5558
   63MOL   H29842582   5.782   3.894   3.244 -2.9268 -0.1218 -3.4566
   63MOL   H29942583   5.555   3.938   3.338 -1.3139 -0.3885  1.1232
   63MOL   H30042584   5.555   3.950   3.605  1.6007  0.5147 -1.7225
   63MOL   H30142585   5.528   4.185   3.669  1.2816 -3.1088  1.2704
   63MOL   H30242586   5.083   4.308   3.732  0.3175 -1.4769  0.3948
   63MOL   H30342587   5.032   4.336   3.984  0.2676 -2.6967  0.1365
   63MOL   H30442588   5.444   4.413   4.050 -0.3968  2.6212 -0.9635
   63MOL   H30542589   5.499   4.389   3.809  0.1675  0.0149  0.5628
   63MOL   H30642590   5.124   4.171   3.504 -0.4266  0.3187  1.8599
   63MOL   H30742591   5.157   3.942   3.430  0.1661 -1.7916  2.7370
   63MOL   C30842592   5.126   4.100   4.342  0.6727 -0.0558 -0.1417
   63MOL   C30942593   5.117   4.217   4.263 -0.1847  0.0939 -0.2816
   63MOL   C31042594   5.224   4.308   4.247  0.0751 -0.0030 -0.1925
   63MOL   O31142595   5.211   4.415   4.157 -0.0598  0.4308 -0.1672
   63MOL   C31242596   5.341   4.285   4.320 -0.8575 -1.0054  0.3473
   63MOL   C31342597   5.346   4.180   4.412 -0.0907 -0.5000  1.0177
   63MOL   C31442598   5.249   4.082   4.416  0.3752  1.3416  0.1244
   63MOL   C31542599   5.268   3.963   4.500 -0.1396 -0.2860 -0.1047
   63MOL   O31642600   5.354   3.952   4.585  0.5873 -0.0704  0.3293
   63MOL   C31742601   5.169   3.847   4.485 -0.5945 -0.0262  0.2408
   63MOL   C31842602   5.037   3.865   4.524  0.2361 -0.4154 -0.6879
   63MOL   C31942603   4.951   3.757   4.520 -0.2159 -0.4393 -0.6597
   63MOL   C32042604   4.998   3.629   4.476 -0.3548 -0.3048 -0.6983
   63MOL   O32142605   4.911   3.525   4.476  0.0755  0.4259 -0.0490
   63MOL   C32242606   4.860   3.479   4.594  0.5352 -0.0191  0.2903
   63MOL   C32342607   4.729   3.498   4.637 -0.1201 -0.0302 -0.3704
   63MOL   C32442608   4.686   3.455   4.768 -0.6281 -0.2170 -0.4284
   63MOL   C32542609   4.779   3.393   4.853  0.4367  0.5068  0.4027
   63MOL   C32642610   4.910   3.375   4.814 -0.1969 -0.8005 -0.0858
   63MOL   C32742611   4.949   3.406   4.680  0.2596  0.0236 -0.5004
   63MOL   C32842612   5.132   3.609   4.446 -0.9545  0.3853  0.4819
   63MOL   C32942613   5.217   3.721   4.443  1.0190 -0.6409 -0.5457
   63MOL   H33042614   5.047   4.026   4.338  1.1137 -0.4408 -3.9947
   63MOL   H33142615   5.023   4.236   4.212 -0.3402  0.0710 -0.0039
   63MOL   H33242616   5.421   4.355   4.301 -2.1827  0.0829 -1.4266
   63MOL   H33342617   5.430   4.176   4.480  1.3731  1.3299 -0.6358
   63MOL   H33442618   5.005   3.963   4.558 -2.6095 -1.8117  0.7903
   63MOL   H33542619   4.852   3.778   4.559  0.0823  1.8320 -1.0734
   63MOL   H33642620   4.664   3.554   4.572 -0.0893  1.0113  0.4889
   63MOL   H33742621   4.583   3.460   4.801  0.4676  0.2841  3.0346
   63MOL   H33842622   4.982   3.324   4.875  1.3867  2.2374  0.6535
   63MOL   H33942623   5.055   3.401   4.661  0.1819  0.6722 -1.1238
   63MOL   H34042624   5.168   3.514   4.409 -0.5632  0.2648  1.1554
   63MOL   H34142625   5.321   3.706   4.419  1.5704 -0.1108  1.4006
   63MOL   C34242626   4.540   3.038   5.020  0.7456  0.3918 -0.1677
   63MOL   C34342627   4.570   3.178   5.010 -0.3876 -0.2061 -0.3566
   63MOL   C34442628   4.704   3.214   4.987  0.2809 -0.0871  0.2590
   63MOL   O34542629   4.737   3.351   4.975 -0.3694  0.1840 -0.0182
   63MOL   C34642630   4.803   3.118   4.974  0.7905  0.5671  0.3922
   63MOL   C34742631   4.768   2.978   4.971  0.4634 -0.2165 -0.0990
   63MOL   C34842632   4.636   2.938   5.002  0.0799  0.9717  0.0356
   63MOL   C34942633   4.602   2.790   5.001 -0.1932  0.0032 -0.2340
   63MOL   O35042634   4.676   2.713   4.942  0.0416  1.2038 -0.2545
   63MOL   C35142635   4.488   2.745   5.082 -0.4288  0.1252  0.1078
   63MOL   C35242636   4.420   2.624   5.053  0.3906 -0.1589  0.3477
   63MOL   C35342637   4.309   2.577   5.129  0.0796 -0.3699 -0.0434
   63MOL   C35442638   4.282   2.647   5.248  0.0168  0.8531  0.4575
   63MOL   O35542639   4.177   2.603   5.325 -0.2537 -0.0043  0.4859
   63MOL   C35642640   4.049   2.629   5.293  0.9344  0.0230 -1.1192
   63MOL   C35742641   3.968   2.661   5.406  0.2314  0.1025 -0.1699
   63MOL   C35842642   3.834   2.701   5.378  0.0273  0.0133 -0.3484
   63MOL   C35942643   3.774   2.687   5.248  0.5134  0.1500 -0.4812
   63MOL   C36042644   3.858   2.660   5.136  0.4025 -0.0927  0.2265
   63MOL   C36142645   3.994   2.634   5.159  0.2482  0.8097  0.4139
   63MOL   C36242646   4.359   2.753   5.290 -0.4088  0.5276  0.0328
   63MOL   C36342647   4.457   2.806   5.206 -0.2306  0.0392 -0.0495
   63MOL   H36442648   4.435   3.018   5.036  0.8823 -1.2278 -1.2284
   63MOL   H36542649   4.495   3.254   5.025  2.2602  2.4721 -0.1086
   63MOL   H36642650   4.906   3.151   4.973  1.5831 -1.8392  0.4710
   63MOL   H36742651   4.840   2.898   4.966  0.0806 -0.6128  0.7030
   63MOL   H36842652   4.451   2.566   4.967 -0.7309 -0.6774  0.2860
   63MOL   H36942653   4.244   2.493   5.107 -1.0857  0.6415 -0.5651
   63MOL   H37042654   3.995   2.677   5.510  1.4069 -0.8304 -0.3258
   63MOL   H37142655   3.770   2.726   5.462  0.8016 -1.3047  0.6396
   63MOL   H37242656   3.814   2.654   5.038  2.2978 -1.0389 -0.5729
   63MOL   H37342657   4.052   2.616   5.070 -0.9461 -0.5554 -0.1061
   63MOL   H37442658   4.334   2.803   5.383  1.5051 -0.5670  1.1664
   63MOL   H37542659   4.512   2.896   5.231 -0.9180  0.4249  0.0712
   63MOL   C37642660   3.461   2.381   5.192 -0.2229 -0.4783  0.1583
   63MOL   C37742661   3.528   2.501   5.159  0.7279  0.2976 -0.1668
   63MOL   C37842662   3.564   2.590   5.260 -0.4741 -0.4865 -0.6113
   63MOL   O37942663   3.638   2.699   5.230  0.2110 -0.2683 -0.2762
   63MOL   C38042664   3.513   2.570   5.390 -0.0310  0.0792 -0.3014
   63MOL   C38142665   3.433   2.459   5.423  0.3860 -0.2804  0.6567
   63MOL   C38242666   3.414   2.356   5.323 -0.8590  0.2472  0.0166
   63MOL   C38342667   3.342   2.230   5.346 -0.6341  1.2699 -0.2212
   63MOL   O38442668   3.382   2.127   5.292  0.2380  0.3891 -0.3420
   63MOL   C38542669   3.215   2.227   5.425 -0.0966  0.1808  0.0737
   63MOL   C38642670   3.141   2.339   5.466 -0.2029  0.2074  0.3381
   63MOL   C38742671   3.012   2.336   5.516 -0.3210 -0.4410 -0.7408
   63MOL   C38842672   2.957   2.208   5.550 -0.4361  0.0345 -0.2320
   63MOL   O38942673   2.829   2.205   5.601  0.3477 -0.0663  0.7942
   63MOL   C39042674   2.727   2.157   5.523  0.4673 -0.0738 -0.0167
   63MOL   C39142675   2.666   2.037   5.562 -1.1992  0.7246 -1.1174
   63MOL   C39242676   2.575   1.979   5.479  0.5104  0.3149  0.1382
   63MOL   C39342677   2.546   2.028   5.345  0.1441 -0.5418 -0.2873
   63MOL   C39442678   2.618   2.139   5.309 -0.0973 -0.2490  0.4389
   63MOL   C39542679   2.703   2.209   5.392 -0.3643 -0.5574 -0.1036
   63MOL   C39642680   3.035   2.083   5.522 -0.0937  0.0651 -0.4113
   63MOL   C39742681   3.159   2.098   5.455 -0.1181 -0.0025 -0.3912
   63MOL   H39842682   3.431   2.309   5.117 -2.6151 -0.6855  1.2578
   63MOL   H39942683   3.582   2.520   5.068  0.7355  0.8864 -0.0387
   63MOL   H40042684   3.549   2.633   5.470  1.5582 -1.0469 -0.1008
   63MOL   H40142685   3.410   2.442   5.527 -0.2872 -0.7260  0.4380
   63MOL   H40242686   3.166   2.443   5.451 -1.8513  0.8048  1.5813
   63MOL   H40342687   2.948   2.419   5.538  0.7774 -0.3149  2.1591
   63MOL   H40442688   2.693   1.993   5.657  2.5163  3.6030 -0.7134
   63MOL   H40542689   2.531   1.886   5.510  1.9633  0.3351  2.2923
   63MOL   H40642690   2.597   2.174   5.209  3.5661  2.2386  0.4268
   63MOL   H40742691   2.758   2.297   5.362 -0.3710 -1.0139 -1.4607
   63MOL   H40842692   2.990   1.987   5.540 -1.1459  0.4485 -0.9278
   63MOL   H40942693   3.211   2.006   5.430 -0.6899 -0.2628 -0.6320
   63MOL   C41042694   2.487   1.602   5.217  0.7143  0.0140  0.4463
   63MOL   C41142695   2.446   1.731   5.265 -0.0633  0.7828 -0.2967
   63MOL   C41242696   2.510   1.841   5.216 -0.0219  0.0223 -0.1532
   63MOL   O41342697   2.464   1.963   5.261 -0.6613  0.4741  0.2268
   63MOL   C41442698   2.614   1.821   5.122  0.7686 -0.1223 -0.4977
   63MOL   C41542699   2.650   1.692   5.077 -0.8386 -0.4332 -0.5392
   63MOL   C41642700   2.582   1.581   5.116  0.3758 -0.5473  0.9667
   63MOL   C41742701   2.623   1.447   5.072 -0.5552 -0.5463  0.3050
   63MOL   O41842702   2.742   1.411   5.078  0.3283 -0.3028 -0.0561
   63MOL   C41942703   2.509   1.359   5.050 -0.2535 -0.2915  0.6706
   63MOL   C42042704   2.398   1.400   4.966  0.1861  0.5128 -0.1184
   63MOL   C42142705   2.296   1.308   4.938  0.3172  0.1836 -0.6219
   63MOL   C42242706   2.308   1.175   4.989  0.4295 -0.6208  0.4842
   63MOL   O42342707   2.214   1.076   4.967 -0.3165  0.5085 -0.3304
   63MOL   C42442708   2.120   1.049   5.060  0.2619 -0.3867  0.6360
   63MOL   C42542709   2.008   1.124   5.080  0.9801  0.2907 -0.5644
   63MOL   C42642710   1.911   1.090   5.176  0.4980 -0.9341 -0.6831
   63MOL   C42742711   1.927   0.975   5.258 -0.6340 -0.2252  0.0459
   63MOL   C42842712   2.041   0.894   5.235  0.0802  0.1257 -0.0235
   63MOL   C42942713   2.130   0.930   5.131  0.2885 -0.4797  0.1162
   63MOL   C43042714   2.418   1.135   5.065 -0.1434  0.9201  0.3940
   63MOL   C43142715   2.520   1.227   5.095 -0.8030  0.3014  0.2177
   63MOL   H43242716   2.439   1.512   5.252 -1.1314 -0.0461 -2.1796
   63MOL   H43342717   2.369   1.731   5.340 -0.5518 -0.4776 -0.7820
   63MOL   H43442718   2.662   1.904   5.073  4.0946 -0.7714  1.4882
   63MOL   H43542719   2.730   1.680   5.006 -1.4222 -1.2372 -1.0717
   63MOL   H43642720   2.397   1.499   4.922  2.5586 -0.5621 -2.7840
   63MOL   H43742721   2.202   1.331   4.891 -0.6181  0.4140  1.3005
   63MOL   H43842722   1.983   1.213   5.024 -0.9475 -0.9074 -1.6899
   63MOL   H43942723   1.824   1.152   5.194  1.4260 -0.1382  1.2881
   63MOL   H44042724   2.070   0.815   5.303  1.8117  2.0669  1.5565
   63MOL   H44142725   2.208   0.857   5.112 -0.7212 -1.6035  0.2176
   63MOL   H44242726   2.426   1.032   5.098  1.0950 -0.2940 -3.4562
   63MOL   H44342727   2.608   1.193   5.147  0.1440  1.1885 -0.7632
   63MOL   C44442728   1.937   0.875   5.724  0.0270  0.1713  0.5532
   63MOL   C44542729   1.891   0.859   5.589 -0.3118 -0.1837  0.2324
   63MOL   C44642730   1.899   0.965   5.492 -0.4476  0.7079 -0.3162
   63MOL   O44742731   1.841   0.954   5.365  0.6538  0.3162  0.1800
   63MOL   C44842732   1.969   1.078   5.531  0.1162  0.1277  0.4067
   63MOL   C44942733   2.022   1.089   5.660 -0.2276  0.8795 -0.7311
   63MOL   C45042734   2.011   0.990   5.764  0.5149  0.0864  0.4716
   63MOL   C45142735   2.075   0.998   5.897 -0.4023 -0.6312 -0.5095
   63MOL   O45242736   2.085   0.907   5.979  0.5752  0.1298  0.4458
   63MOL   C45342737   2.122   1.135   5.947  0.6038  0.1393 -0.4267
   63MOL   C45442738   2.044   1.247   5.945  0.5341  0.9585  0.1434
   63MOL   C45542739   2.090   1.377   5.977  0.1980 -0.0991 -0.3012
   63MOL   C45642740   2.223   1.399   6.013  1.1562  0.4336 -0.1629
   63MOL   O45742741   2.269   1.531   6.034  0.2745  0.5919 -0.3902
   63MOL   C45842742   2.359   1.571   5.937 -0.0303  0.1544 -0.5455
   63MOL   C45942743   2.321   1.641   5.821  0.6024 -0.1407 -0.5463
   63MOL   C46042744   2.415   1.701   5.739 -0.2845  0.2604  0.0279
   63MOL   C46142745   2.553   1.690   5.770  0.4006  0.2918  0.1604
   63MOL   C46242746   2.592   1.616   5.884  0.4036 -0.6897 -0.0420
   63MOL   C46342747   2.496   1.563   5.964  0.0670 -0.0676 -0.1012
   63MOL   C46442748   2.305   1.286   6.024  0.3659 -0.1669 -0.2633
   63MOL   C46542749   2.257   1.157   5.991 -0.2829 -0.0448 -0.0666
   63MOL   H46642750   1.936   0.795   5.796 -1.0550 -0.9699 -0.7158
   63MOL   H46742751   1.839   0.768   5.561  1.4883 -1.0889 -0.2753
   63MOL   H46842752   1.971   1.163   5.464  3.4264  0.1685  0.4659
   63MOL   H46942753   2.076   1.182   5.665  0.6210  0.4713 -2.1422
   63MOL   H47042754   1.943   1.253   5.906  0.3348  0.4077  0.5610
   63MOL   H47142755   2.025   1.462   5.963 -0.8084 -0.7695  0.1989
   63MOL   H47242756   2.218   1.667   5.799  1.3731  2.5387 -1.2107
   63MOL   H47342757   2.383   1.753   5.651 -1.4258 -1.4206 -0.5738
   63MOL   H47442758   2.690   1.612   5.929 -0.2237 -0.3934  1.3686
   63MOL   H47542759   2.534   1.524   6.057 -0.0876  1.9027  0.8051
   63MOL   H47642760   2.408   1.302   6.052  0.4500 -2.5687  0.8522
   63MOL   H47742761   2.322   1.073   6.009 -0.8185 -0.6724 -1.0451
   63MOL   C47842762   2.978   1.610   5.644 -0.3843  0.0817  0.3801
   63MOL   C47942763   2.874   1.678   5.709 -0.2473  0.8439  0.9773
   63MOL   C48042764   2.755   1.703   5.633 -0.7184  0.3567 -0.1175
   63MOL   O48142765   2.644   1.761   5.688 -0.1719 -0.0481  0.7353
   63MOL   C48242766   2.747   1.666   5.488 -0.0686  0.3468  0.7058
   63MOL   C48342767   2.862   1.599   5.437  0.2877 -0.0155  0.0577
   63MOL   C48442768   2.975   1.571   5.509 -0.2628 -0.4186 -0.0905
   63MOL   C48542769   3.080   1.494   5.444  0.6912 -0.3768 -0.2754
   63MOL   O48642770   3.083   1.369   5.465  0.1738 -0.2284  0.1848
   63MOL   C48742771   3.190   1.560   5.376  0.3442 -0.1161  0.1315
   63MOL   C48842772   3.267   1.483   5.283 -0.6807 -0.0414 -0.0993
   63MOL   C48942773   3.368   1.543   5.205  0.3635  0.2234  0.0178
   63MOL   C49042774   3.388   1.682   5.228  0.0677  0.2857  1.0535
   63MOL   O49142775   3.489   1.739   5.150  0.1281 -0.0932 -0.4141
   63MOL   C49242776   3.614   1.745   5.203  0.5638 -0.9573 -0.1985
   63MOL   C49342777   3.701   1.639   5.198  0.2185 -0.4867 -0.2516
   63MOL   C49442778   3.839   1.652   5.229  0.1911 -0.1769 -0.6796
   63MOL   C49542779   3.885   1.778   5.267 -0.6209  0.4228  0.2007
   63MOL   C49642780   3.799   1.889   5.265  0.3930 -0.4370 -0.7487
   63MOL   C49742781   3.663   1.876   5.234 -0.1933  0.0220  0.1716
   63MOL   C49842782   3.324   1.756   5.324  0.3220  0.2416  0.1836
   63MOL   C49942783   3.221   1.699   5.400  0.5885  0.3959  0.1331
   63MOL   H50042784   3.056   1.573   5.708 -0.4779  0.2119  0.5704
   63MOL   H50142785   2.873   1.691   5.816 -0.5384  2.7847  0.7632
   63MOL   H50242786   2.657   1.673   5.429  2.1774  2.9041 -2.6106
   63MOL   H50342787   2.856   1.557   5.337 -2.2612 -1.9119  0.9392
   63MOL   H50442788   3.242   1.380   5.259  1.1901  0.0191 -2.5007
   63MOL   H50542789   3.417   1.486   5.128 -0.7259  1.0252 -1.2874
   63MOL   H50642790   3.661   1.545   5.162 -0.2415 -1.4114  2.5257
   63MOL   H50742791   3.906   1.568   5.220 -0.2178 -0.7621  1.5279
   63MOL   H50842792   3.836   1.986   5.294  0.4642  0.3102 -3.2589
   63MOL   H50942793   3.601   1.963   5.245 -1.6590 -0.9031 -0.6086
   63MOL   H51042794   3.355   1.859   5.338 -0.9465  0.4195  1.7341
   63MOL   H51142795   3.171   1.761   5.474  0.8224  0.6046  0.1179
   63MOL   C51242796   4.294   1.590   5.175 -0.5919  0.1799 -0.2733
   63MOL   C51342797   4.183   1.672   5.172  0.7218 -0.6268  0.1722
   63MOL   C51442798   4.111   1.704   5.285  0.3119  0.6295  0.2191
   63MOL   O51542799   4.013   1.804   5.295 -0.3964  0.4175  0.3234
   63MOL   C51642800   4.151   1.648   5.407 -0.6018 -0.1516  0.1593
   63MOL   C51742801   4.256   1.560   5.412 -0.0928 -0.2900 -0.9516
   63MOL   C51842802   4.330   1.523   5.296 -0.6407 -0.2434 -0.6082
   63MOL   C51942803   4.449   1.431   5.298  0.1018  0.0712  0.0953
   63MOL   O52042804   4.515   1.411   5.200 -0.1460 -0.2135  0.6431
   63MOL   C52142805   4.486   1.364   5.426 -0.8507 -0.9163 -0.5553
   63MOL   C52242806   4.397   1.302   5.511  1.2655  0.1506  0.3886
   63MOL   C52342807   4.434   1.239   5.633 -0.4110  0.6024  0.0171
   63MOL   C52442808   4.573   1.245   5.670  0.5509  0.1712  0.4216
   63MOL   O52542809   4.617   1.179   5.779 -0.3472  0.2948  0.2012
   63MOL   C52642810   4.545   1.079   5.841  0.1775 -0.1962  0.2958
   63MOL   C52742811   4.456   1.119   5.939 -0.2520  0.7539 -0.7136
   63MOL   C52842812   4.373   1.028   6.006  0.6346 -0.1035  0.0383
   63MOL   C52942813   4.383   0.892   5.977  0.2649 -0.8083 -0.2584
   63MOL   C53042814   4.475   0.849   5.879 -0.4100 -0.2357 -0.3650
   63MOL   C53142815   4.549   0.941   5.803  0.9932  0.2703 -0.2798
   63MOL   C53242816   4.668   1.302   5.579  0.1895 -0.3593 -0.4186
   63MOL   C53342817   4.630   1.369   5.461  0.3016 -0.7609  0.7858
   63MOL   H53442818   4.343   1.561   5.083 -1.4960  0.1770 -0.7606
   63MOL   H53542819   4.145   1.709   5.078  2.1068 -1.4774 -0.7359
   63MOL   H53642820   4.115   1.679   5.504  1.4987  0.5368  0.7456
   63MOL   H53742821   4.300   1.538   5.507 -0.5427  1.5656 -0.2792
   63MOL   H53842822   4.292   1.302   5.485  1.2287  0.2713  0.5362
   63MOL   H53942823   4.357   1.188   5.688 -0.4011  1.2693  0.6578
   63MOL   H54042824   4.463   1.221   5.974 -0.7446  0.7051 -0.4727
   63MOL   H54142825   4.312   1.072   6.083 -1.0282  0.4158 -1.5170
   63MOL   H54242826   4.480   0.743   5.859 -0.0958 -0.0713 -1.1984
   63MOL   H54342827   4.597   0.912   5.711  0.8631 -0.7722 -0.0288
   63MOL   H54442828   4.771   1.290   5.608  0.3885  1.2768 -0.4161
   63MOL   H54542829   4.700   1.420   5.397 -1.6248  0.2790 -0.5508
   63MOL   C54642830   4.010   0.838   6.255  0.5626  0.3444 -0.7042
   63MOL   C54742831   4.148   0.824   6.225 -0.3351 -0.3273 -0.2032
   63MOL   C54842832   4.187   0.809   6.090  0.3490 -0.2402 -0.0124
   63MOL   O54942833   4.314   0.797   6.055  0.1533 -0.0977 -0.7949
   63MOL   C55042834   4.093   0.825   5.980 -0.3061  0.1033 -0.3252
   63MOL   C55142835   3.959   0.853   6.006  0.3633  0.7121  0.0391
   63MOL   C55242836   3.917   0.862   6.147  0.5251  0.2958  0.1156
   63MOL   C55342837   3.769   0.874   6.184  0.2178 -0.1440 -0.6905
   63MOL   O55442838   3.729   0.835   6.294  0.7544 -0.2471 -0.6933
   63MOL   C55542839   3.670   0.931   6.095 -0.1350  0.3786  0.5934
   63MOL   C55642840   3.543   0.864   6.085  0.4702 -0.0558 -0.6033
   63MOL   C55742841   3.451   0.904   5.988 -0.2503 -0.2224  0.1187
   63MOL   C55842842   3.482   1.009   5.906 -0.0537  0.5904 -0.1718
   63MOL   O55942843   3.398   1.056   5.809  0.2188 -0.1494  0.2457
   63MOL   C56042844   3.284   1.131   5.834 -0.0566  0.6523 -0.3667
   63MOL   C56142845   3.175   1.122   5.753  0.1850  0.9261  0.4330
   63MOL   C56242846   3.068   1.208   5.772 -0.1152  0.0123  0.4938
   63MOL   C56342847   3.068   1.302   5.867 -0.3837  0.1653 -0.1509
   63MOL   C56442848   3.171   1.302   5.963  0.1195  0.2263  0.7049
   63MOL   C56542849   3.282   1.214   5.947  0.3482 -0.4638 -0.4064
   63MOL   C56642850   3.604   1.075   5.918 -0.2023  0.3685  0.1138
   63MOL   C56742851   3.702   1.037   6.010 -0.6036  1.1036  0.1789
   63MOL   H56842852   3.972   0.833   6.355 -0.0224  1.0506 -0.8806
   63MOL   H56942853   4.208   0.815   6.315 -0.0783 -1.6337 -0.4872
   63MOL   H57042854   4.130   0.814   5.879 -1.1738 -1.7468 -0.4670
   63MOL   H57142855   3.887   0.862   5.926 -0.0566 -1.7005  0.1132
   63MOL   H57242856   3.532   0.782   6.154 -2.8484  0.6068 -0.2991
   63MOL   H57342857   3.356   0.853   5.997 -1.0534  1.2575  0.1846
   63MOL   H57442858   3.166   1.049   5.673  1.4559  1.1495  0.0699
   63MOL   H57542859   2.991   1.214   5.696 -0.3625  0.4053  0.7719
   63MOL   H57642860   3.168   1.377   6.041  0.5755 -1.8756  2.8076
   63MOL   H57742861   3.360   1.222   6.021 -1.0290 -0.6690  1.1116
   63MOL   H57842862   3.615   1.155   5.845 -1.5788  0.1474 -0.3450
   63MOL   H57942863   3.796   1.088   6.018  0.3247 -0.8078  1.9281
   63MOL   C58042864   2.816   1.471   6.211 -0.3059 -0.2223 -0.0347
   63MOL   C58142865   2.904   1.469   6.103  0.3068  0.0809 -0.4128
   63MOL   C58242866   2.889   1.379   5.994  0.2128  0.0357  0.5901
   63MOL   O58342867   2.965   1.391   5.883  0.0466 -0.8649  0.0966
   63MOL   C58442868   2.781   1.287   5.996  0.0435  0.2498  0.0424
   63MOL   C58542869   2.696   1.282   6.105  0.9493 -0.0929 -0.9849
   63MOL   C58642870   2.711   1.375   6.210 -0.2729 -0.6970  0.0791
   63MOL   C58742871   2.614   1.390   6.325  1.1233  0.3418 -0.9065
   63MOL   O58842872   2.508   1.445   6.302 -0.1008  0.0213  0.3204
   63MOL   C58942873   2.665   1.333   6.457 -0.3529 -0.6476 -0.5420
   63MOL   C59042874   2.591   1.351   6.574  0.5480 -0.2832 -0.3055
   63MOL   C59142875   2.630   1.291   6.695  0.2121  0.7036  0.4149
   63MOL   C59242876   2.745   1.208   6.704 -0.7581 -0.5710  0.3754
   63MOL   O59342877   2.766   1.137   6.818 -0.0138 -0.1572  0.1123
   63MOL   C59442878   2.703   1.013   6.830  0.1582  0.0537  0.0083
   63MOL   C59542879   2.664   0.962   6.955  0.6132  0.2927  0.5751
   63MOL   C59642880   2.612   0.828   6.958  0.4093  0.0069  0.1285
   63MOL   C59742881   2.605   0.750   6.842 -0.6137  0.8488 -0.4113
   63MOL   C59842882   2.628   0.803   6.715 -0.2319  0.0884  0.7297
   63MOL   C59942883   2.678   0.934   6.712 -0.2045  0.0263 -0.1551
   63MOL   C60042884   2.824   1.193   6.589 -1.0776 -0.2432  0.0354
   63MOL   C60142885   2.786   1.258   6.470  0.6439 -0.8726 -0.7333
   63MOL   H60242886   2.833   1.540   6.292 -1.1820  1.3167 -1.1246
   63MOL   H60342887   2.983   1.541   6.097 -0.0921  0.4349 -1.7839
   63MOL   H60442888   2.768   1.234   5.903  1.7483  1.6001 -1.0078
   63MOL   H60542889   2.612   1.215   6.102  1.3976 -0.5976 -4.0073
   63MOL   H60642890   2.506   1.418   6.568  0.7418 -0.0296 -0.2593
   63MOL   H60742891   2.563   1.301   6.779 -3.3279  0.4178 -2.2600
   63MOL   H60842892   2.672   1.024   7.043  0.9552  0.8123  0.1818
   63MOL   H60942893   2.587   0.794   7.058  1.6615 -2.6956 -0.4268
   63MOL   H61042894   2.621   0.746   6.624  1.4970  0.5779  0.2863
   63MOL   H61142895   2.719   0.956   6.615 -0.2589  2.6616  0.3695
   63MOL   H61242896   2.903   1.119   6.592 -1.9297 -1.2181 -0.9501
   63MOL   H61342897   2.845   1.236   6.382  1.0245 -1.6823 -0.2873
   63MOL   C61442898   2.584   0.358   6.608  0.5027  0.8242 -0.7575
   63MOL   C61542899   2.531   0.458   6.693  0.4301  0.3133  0.6086
   63MOL   C61642900   2.622   0.528   6.774  0.3850  0.1044 -1.2393
   63MOL   O61742901   2.569   0.621   6.864  0.4659  0.3311 -0.3371
   63MOL   C61842902   2.762   0.488   6.778  0.0299  0.0475  0.9072
   63MOL   C61942903   2.813   0.398   6.685  0.2831  0.4218  0.7689
   63MOL   C62042904   2.725   0.340   6.595 -0.4619 -0.3743  0.7578
   63MOL   C62142905   2.795   0.265   6.484 -0.4279 -0.2345 -0.4718
   63MOL   O62242906   2.916   0.281   6.457 -0.4123  0.7585 -0.1489
   63MOL   C62342907   2.724   0.151   6.412  1.1417 -0.2254 -0.3664
   63MOL   C62442908   2.757   0.113   6.280 -0.0178  1.0613  0.2159
   63MOL   C62542909   2.716   8.307   6.223  0.2058  0.4957 -0.5729
   63MOL   C62642910   2.634   8.221   6.293 -0.4770 -0.1465  0.1920
   63MOL   O62742911   2.587   8.109   6.233 -0.1657 -0.0705 -0.3940
   63MOL   C62842912   2.497   8.029   6.293 -0.5436 -0.1641 -0.6098
   63MOL   C62942913   2.543   7.930   6.379  0.5119  0.5233  0.2653
   63MOL   C63042914   2.446   7.827   6.419  0.4819 -0.0945  0.3190
   63MOL   C63142915   2.310   7.829   6.376  0.2225  0.2612 -0.4611
   63MOL   C63242916   2.270   7.939   6.291 -0.6301  0.1181 -0.2575
   63MOL   C63342917   2.363   8.039   6.250 -0.0126  0.1551  0.2403
   63MOL   C63442918   2.600   8.254   6.428 -0.4232  1.2442 -0.2768
   63MOL   C63542919   2.639   0.061   6.484 -0.1814  0.1626  0.3735
   63MOL   H63642920   2.523   0.300   6.541  2.6923 -0.1816 -1.9327
   63MOL   H63742921   2.426   0.485   6.700 -0.0392 -1.4079  0.5092
   63MOL   H63842922   2.819   0.541   6.853 -1.0022  2.3217  0.1043
   63MOL   H63942923   2.919   0.381   6.677 -0.1278 -1.7530 -0.4166
   63MOL   H64042924   2.824   0.177   6.225 -0.3010  1.4131  0.2771
   63MOL   H64142925   2.755   8.283   6.125  0.1535 -0.9375 -0.2520
   63MOL   H64242926   2.649   7.923   6.400  0.5830  1.9507  0.4327
   63MOL   H64342927   2.489   7.760   6.492  0.5444 -0.9165 -0.4676
   63MOL   H64442928   2.171   7.949   6.248  0.2078  2.4284 -1.7729
   63MOL   H64542929   2.340   8.107   6.170 -2.6204 -0.4536  0.4121
   63MOL   H64642930   2.545   8.183   6.489  1.1940  0.1219 -0.1146
   63MOL   H64742931   2.599   0.087   6.581 -0.7998  0.4343  0.0409
   63MOL   C64842932   2.146   7.643   6.758 -0.8079 -0.0081  0.7795
   63MOL   C64942933   2.206   7.647   6.635  0.3092 -0.0492  0.5516
   63MOL   C65042934   2.169   7.745   6.541  0.2907  0.3554  0.2369
   63MOL   O65142935   2.221   7.737   6.414  0.3201 -0.1876 -0.6522
   63MOL   C65242936   2.080   7.840   6.579 -0.0862 -0.1270  0.2170
   63MOL   C65342937   2.006   7.832   6.700 -0.2226  0.2941 -0.1703
   63MOL   C65442938   2.045   7.733   6.791 -0.0492 -0.0281  0.8455
   63MOL   C65542939   1.976   7.717   6.920 -0.5853 -0.4853  0.0349
   63MOL   O65642940   1.926   7.607   6.938 -0.2840  0.6774  0.3649
   63MOL   C65742941   1.953   7.833   7.021 -0.5427  0.2724  0.2725
   63MOL   C65842942   2.014   7.958   6.998  1.2121 -0.0446 -0.0354
   63MOL   C65942943   1.999   8.067   7.086 -0.3465  0.3513  0.4765
   63MOL   C66042944   1.917   8.051   7.199 -0.3425 -0.4455  0.4927
   63MOL   O66142945   1.893   8.163   7.280 -0.1612 -0.6587  0.0903
   63MOL   C66242946   1.819   8.151   7.398 -0.3365 -0.0328 -0.7694
   63MOL   C66342947   1.894   8.139   7.517  0.4747 -0.0207 -0.0633
   63MOL   C66442948   1.830   8.111   7.642  0.1426 -0.2565  0.8349
   63MOL   C66542949   1.688   8.095   7.641 -0.2194  0.2561 -0.5396
   63MOL   C66642950   1.616   8.123   7.525  0.3431 -0.4473 -0.5526
   63MOL   C66742951   1.681   8.146   7.398  0.7463 -0.3346 -0.4482
   63MOL   C66842952   1.868   7.923   7.228  0.4398  0.5274 -0.4804
   63MOL   C66942953   1.888   7.814   7.139  0.0361  0.2761  0.2009
   63MOL   H67042954   2.166   7.560   6.824  0.1896 -0.3208  0.0927
   63MOL   H67142955   2.281   7.574   6.606  0.5765  0.5433 -0.2511
   63MOL   H67242956   2.045   7.912   6.507 -1.3435  0.3298  1.2534
   63MOL   H67342957   1.921   7.896   6.720 -0.8550 -0.4644 -0.4140
   63MOL   H67442958   2.066   7.985   6.908  0.7968 -1.0224 -0.5765
   63MOL   H67542959   2.036   8.162   7.051 -1.2048  0.4643 -0.1416
   63MOL   H67642960   2.001   8.150   7.517  0.2731  2.1343  0.0377
   63MOL   H67742961   1.892   8.092   7.729  0.1089 -1.8337  0.5425
   63MOL   H67842962   1.510   8.105   7.516  0.2390 -1.5198  2.3005
   63MOL   H67942963   1.632   8.160   7.303  1.6394  1.4916 -0.6438
   63MOL   H68042964   1.809   7.907   7.318  1.2716 -0.2392 -0.0631
   63MOL   H68142965   1.848   7.714   7.153  1.8622 -1.3337 -4.7864
   63MOL   H68242966   1.634   8.071   7.731  0.0651  1.9650  0.0989
   64MOL     C142967   1.669   7.681   1.597 -0.6584  0.2028 -0.2351
   64MOL     C242968   1.783   7.713   1.526 -0.3334  0.0407 -0.2433
   64MOL     C342969   1.823   7.633   1.419 -0.0533  0.0580  0.3913
   64MOL     O442970   1.935   7.669   1.346  0.4402 -0.3175 -0.1480
   64MOL     C542971   1.745   7.524   1.376  0.5389 -0.1540  0.5567
   64MOL     C642972   1.629   7.497   1.447  0.5958  0.6866  0.2713
   64MOL     C742973   1.591   7.572   1.563 -0.5321  0.8081  0.3107
   64MOL     C842974   1.466   7.543   1.640 -0.0230  0.2035  0.0630
   64MOL     O942975   1.435   7.429   1.656 -0.2286  0.2450 -1.0571
   64MOL    C1042976   1.379   7.655   1.679  0.2084 -1.1701 -0.4234
   64MOL    C1142977   1.350   7.770   1.594 -0.3141  0.4868 -0.3367
   64MOL    C1242978   1.272   7.882   1.639 -0.1433  0.2657 -0.2740
   64MOL    C1342979   1.224   7.877   1.771 -0.0195 -0.4757  0.7810
   64MOL    O1442980   1.140   7.970   1.820  0.2750 -0.2904  0.1152
   64MOL    C1542981   1.184   8.042   1.932  0.1294  0.8483  0.4016
   64MOL    C1642982   1.148   8.008   2.059  0.2815  0.1051 -0.1440
   64MOL    C1742983   1.195   8.082   2.167 -0.6735  0.5838 -0.5203
   64MOL    C1842984   1.287   8.189   2.151  0.2359 -0.1143 -0.3991
   64MOL    C1942985   1.312   8.235   2.023 -0.0033  0.1177  0.0585
   64MOL    C2042986   1.270   8.152   1.919  0.9412 -0.1051  0.1427
   64MOL    C2142987   1.244   7.756   1.853 -0.5673  0.1896 -0.1128
   64MOL    C2242988   1.322   7.649   1.806 -0.0712 -0.3456  0.6542
   64MOL    H2342989   1.631   7.756   1.665 -0.4237  1.8116 -1.8405
   64MOL    H2442990   1.848   7.797   1.543  1.5605 -1.2900 -0.6487
   64MOL    H2542991   1.762   7.469   1.285  2.1165 -0.5526  1.0748
   64MOL    H2642992   1.575   7.415   1.403  0.4637  0.4406  0.8876
   64MOL    H2742993   1.382   7.753   1.492 -2.6475 -1.9867 -0.7034
   64MOL    H2842994   1.244   7.966   1.577  1.0886  1.2277  0.4546
   64MOL    H2942995   1.078   7.928   2.079  1.4790 -1.3550 -1.6359
   64MOL    H3042996   1.168   8.049   2.265  2.4016 -0.8207 -0.0974
   64MOL    H3142997   1.388   8.311   2.008  0.2981 -0.3923 -1.0298
   64MOL    H3242998   1.301   8.184   1.821  2.8020 -1.9788  0.1012
   64MOL    H3342999   1.219   7.750   1.957  1.0561 -1.6340  0.2058
   64MOL    H3443000   1.351   7.577   1.881  1.4113 -0.3327  0.1225
   64MOL    H3543001   1.973   7.595   1.301  1.4608  0.7744 -1.0918
   64MOL    C3643002   1.509   8.216   2.568  0.7844  0.7370  0.3191
   64MOL    C3743003   1.418   8.256   2.469  0.3075  0.2047  1.0920
   64MOL    C3843004   1.425   8.202   2.344 -0.1753  0.4496 -0.6699
   64MOL    O3943005   1.338   8.261   2.253 -0.4418 -0.1644  0.7644
   64MOL    C4043006   1.501   8.085   2.320  0.1354  0.9443 -0.8073
   64MOL    C4143007   1.592   8.043   2.419 -0.0076  0.0290 -0.7585
   64MOL    C4243008   1.608   8.118   2.542 -0.4408  0.3797  0.1154
   64MOL    C4343009   1.700   8.080   2.654 -0.2291  0.2197  0.0376
   64MOL    O4443010   1.662   8.050   2.764 -0.5266  0.2025 -0.2462
   64MOL    C4543011   1.845   8.071   2.615 -0.2915 -0.3051  0.1811
   64MOL    C4643012   1.901   8.099   2.482 -0.4714 -0.8893  0.2883
   64MOL    C4743013   2.028   8.057   2.452  0.4496  0.5557 -0.2783
   64MOL    C4843014   2.104   7.983   2.550 -0.2208  0.1041 -0.0212
   64MOL    O4943015   2.228   7.938   2.515 -0.0697 -0.2027  0.0718
   64MOL    C5043016   2.229   7.850   2.406  0.4962  0.4600  0.4039
   64MOL    C5143017   2.344   7.857   2.316  0.1260  0.0912  1.0684
   64MOL    C5243018   2.359   7.757   2.217 -1.2175 -0.2819 -0.3458
   64MOL    C5343019   2.253   7.665   2.188 -0.2649  0.4022  0.2075
   64MOL    C5443020   2.136   7.665   2.276 -0.4029 -0.1437  0.2026
   64MOL    C5543021   2.127   7.751   2.385  0.9072 -0.2442 -0.6227
   64MOL    C5643022   2.053   7.955   2.674  0.5608 -0.6164  0.2844
   64MOL    C5743023   1.929   8.013   2.715  0.3001  0.0409 -0.2375
   64MOL    H5843024   1.501   8.257   2.668  0.2841 -0.5396  0.8159
   64MOL    H5943025   1.346   0.022   2.484  0.8726  0.2119  4.1744
   64MOL    H6043026   1.492   8.021   2.234  0.2835 -0.2344  0.0331
   64MOL    H6143027   1.650   7.953   2.404  0.2834  0.2025 -0.6726
   64MOL    H6243028   1.844   8.146   2.403  0.8096 -0.5494 -0.4422
   64MOL    H6343029   2.073   8.073   2.355  0.2845  0.1742 -0.4221
   64MOL    H6443030   2.420   7.933   2.333 -1.3603  1.7519  0.4525
   64MOL    H6543031   2.446   7.754   2.153 -0.8753 -0.9712  0.1534
   64MOL    H6643032   2.061   7.588   2.262  0.0811 -0.0361 -3.2619
   64MOL    H6743033   2.041   7.739   2.449  1.6073  1.5044  0.6731
   64MOL    H6843034   2.116   7.894   2.737 -0.0054 -0.0633  1.4186
   64MOL    H6943035   1.893   7.997   2.816  0.3387  0.9400 -0.0726
   64MOL    C7043036   1.991   7.362   1.971 -0.4289  0.2723 -1.2450
   64MOL    C7143037   2.114   7.407   2.019  0.0123 -0.1042 -0.1330
   64MOL    C7243038   2.145   7.541   2.016  0.3521  0.2111  0.9031
   64MOL    O7343039   2.260   7.581   2.076 -0.3919  0.2794 -0.2338
   64MOL    C7443040   2.063   7.631   1.942  0.0592 -0.1016 -0.3740
   64MOL    C7543041   1.941   7.584   1.889  0.3475  0.0757  0.1632
   64MOL    C7643042   1.902   7.449   1.908  0.2640  0.2466 -0.5800
   64MOL    C7743043   1.768   7.410   1.848  0.2240  0.1540 -0.5858
   64MOL    O7843044   1.665   7.464   1.881 -0.1403 -0.4132 -0.2133
   64MOL    C7943045   1.773   7.301   1.753  0.0803  0.5191 -0.1409
   64MOL    C8043046   1.671   7.202   1.761  0.3425  0.1101 -0.3725
   64MOL    C8143047   1.664   7.090   1.675 -0.8189 -0.3576 -0.0046
   64MOL    C8243048   1.772   7.075   1.578 -0.3349  1.5960  0.9649
   64MOL    O8343049   1.768   6.971   1.487 -0.3507  0.1191  0.3117
   64MOL    C8443050   1.883   6.901   1.460  0.5549  0.2027 -0.4058
   64MOL    C8543051   1.926   6.902   1.328  0.2526 -0.4923  0.3435
   64MOL    C8643052   2.050   6.850   1.295 -0.5128 -0.2281  0.2548
   64MOL    C8743053   2.120   6.779   1.394 -0.7596  0.3673 -0.6323
   64MOL    C8843054   2.078   6.772   1.525 -0.7468  0.2929  0.8466
   64MOL    C8943055   1.957   6.835   1.559  0.1109  0.4590 -0.7594
   64MOL    C9043056   1.867   7.181   1.555 -0.1150  0.3766  0.7012
   64MOL    C9143057   1.869   7.285   1.645 -0.1553 -0.1501 -0.0242
   64MOL    H9243058   1.976   7.255   1.968  1.3080 -0.0251 -0.1827
   64MOL    H9343059   2.190   7.346   2.066 -1.3045 -0.7379  1.2179
   64MOL    H9443060   2.086   7.736   1.935  0.0516  0.0108  1.1838
   64MOL    H9543061   1.879   7.654   1.834  1.2110 -0.9184 -2.1455
   64MOL    H9643062   1.600   7.205   1.842 -0.3523 -1.8397 -0.8858
   64MOL    H9743063   1.595   7.010   1.696 -1.3335 -0.2119 -1.1336
   64MOL    H9843064   1.872   6.960   1.254 -0.3222 -1.7560 -0.2282
   64MOL    H9943065   2.080   6.862   1.192 -0.9707  0.3624  0.1861
   64MOL   H10043066   2.144   6.722   1.594 -0.5890 -2.9021 -1.4917
   64MOL   H10143067   1.915   6.824   1.658 -0.2167  0.8440 -0.8555
   64MOL   H10243068   1.937   7.179   1.473 -0.5364  0.9040  0.3295
   64MOL   H10343069   1.934   7.371   1.640 -2.4092  1.4598 -3.3375
   64MOL   C10443070   2.189   6.358   1.292  0.6093 -0.1489  0.4474
   64MOL   C10543071   2.184   6.482   1.357  0.3023 -0.4266 -0.1343
   64MOL   C10643072   2.238   6.594   1.299 -0.1230  0.5683  0.0150
   64MOL   O10743073   2.243   6.718   1.366 -0.4025  1.1240  0.3792
   64MOL   C10843074   2.293   6.582   1.171  0.1191 -0.1014  0.5010
   64MOL   C10943075   2.286   6.455   1.101 -0.2515  0.8573  0.5926
   64MOL   C11043076   2.237   6.344   1.168 -0.1352 -0.5367 -0.3160
   64MOL   C11143077   2.253   6.202   1.112  0.2531  0.3700  0.9423
   64MOL   O11243078   2.242   6.102   1.178 -0.0912  0.8110 -0.1189
   64MOL   C11343079   2.288   6.194   0.968 -0.3304  0.1888  0.2419
   64MOL   C11443080   2.198   6.244   0.875  0.7269 -0.3376  0.1111
   64MOL   C11543081   2.229   6.241   0.737  0.6781  0.3583 -0.6349
   64MOL   C11643082   2.351   6.182   0.696 -0.6185  0.0942  0.1460
   64MOL   O11743083   2.374   6.166   0.562  0.4481 -1.2286 -0.2605
   64MOL   C11843084   2.358   6.286   0.485  0.4866 -0.2864 -0.6115
   64MOL   C11943085   2.420   6.401   0.540  0.1700 -0.3776  0.0892
   64MOL   C12043086   2.391   6.521   0.467  0.0790 -0.0124 -0.0249
   64MOL   C12143087   2.290   6.522   0.365 -0.7427  1.0382  0.3884
   64MOL   C12243088   2.235   6.406   0.321 -0.1261 -0.2498 -0.1493
   64MOL   C12343089   2.266   6.280   0.383  0.5688  0.0958 -0.1692
   64MOL   C12443090   2.442   6.136   0.791 -0.0870  0.2416 -0.1819
   64MOL   C12543091   2.414   6.144   0.929 -0.2934  0.7828  0.8327
   64MOL   H12643092   2.143   6.276   1.344 -0.3326  1.4887  2.3070
   64MOL   H12743093   2.155   6.480   1.461  0.0044  3.4191 -0.0608
   64MOL   H12843094   2.335   6.661   1.111 -0.6157 -0.0856 -0.0060
   64MOL   H12943095   2.335   6.443   1.006 -0.4557  1.1070  0.4556
   64MOL   H13043096   2.103   6.282   0.910  2.6548  3.8770  1.0335
   64MOL   H13143097   2.152   6.276   0.671 -0.3914  0.1309  0.4744
   64MOL   H13243098   2.480   6.403   0.630 -0.8802  2.8005  0.7592
   64MOL   H13343099   2.437   6.616   0.493 -0.2463 -0.0962  0.8593
   64MOL   H13443100   2.166   6.413   0.238 -1.2763  1.1101  0.9042
   64MOL   H13543101   2.215   6.188   0.362  0.7040  0.2862 -1.3970
   64MOL   H13643102   2.538   6.100   0.756 -0.2374 -0.6218  0.2868
   64MOL   H13743103   2.473   6.100   1.008  1.2130  2.1509  0.4914
   64MOL   C13843104   2.049   6.835   0.556  0.5381  0.1382  0.8130
   64MOL   C13943105   2.156   6.762   0.507  0.0260  0.5377  0.0386
   64MOL   C14043106   2.142   6.699   0.381 -0.2015 -0.0356 -0.0663
   64MOL   O14143107   2.249   6.642   0.322  0.0613  0.3108 -0.0671
   64MOL   C14243108   2.019   6.709   0.312  0.5109  0.2835 -0.5145
   64MOL   C14343109   1.907   6.772   0.367  0.3280  0.2376 -0.2040
   64MOL   C14443110   1.925   6.835   0.495  0.2821  0.1413  0.2767
   64MOL   C14543111   1.813   6.896   0.573  0.6650 -0.0496 -0.3395
   64MOL   O14643112   1.802   7.020   0.580 -0.6456 -0.4755  0.3534
   64MOL   C14743113   1.706   6.806   0.634  0.7330 -0.4062 -0.5173
   64MOL   C14843114   1.721   6.663   0.621 -1.1401 -0.2997  0.2863
   64MOL   C14943115   1.624   6.579   0.684  0.1367  0.4556 -0.0411
   64MOL   C15043116   1.514   6.633   0.750 -0.1592  0.0449 -0.0393
   64MOL   O15143117   1.443   6.545   0.825  0.2630  0.2625 -0.2252
   64MOL   C15243118   1.355   6.592   0.929  0.4433 -0.4610  0.0069
   64MOL   C15343119   1.216   6.573   0.907 -0.2703  0.0467  0.9417
   64MOL   C15443120   1.124   6.618   1.002 -0.0258 -0.6862 -0.5031
   64MOL   C15543121   1.175   6.680   1.119 -0.3120  0.2018 -0.0690
   64MOL   C15643122   1.316   6.707   1.141 -0.6918  0.2507  0.0873
   64MOL   C15743123   1.405   6.650   1.046  0.9283  1.2309  0.0920
   64MOL   C15843124   1.497   6.770   0.753 -0.9812 -0.5366  0.0604
   64MOL   C15943125   1.596   6.863   0.695  0.2868  0.1843 -0.2259
   64MOL   H16043126   2.050   6.880   0.654 -2.3115  0.4265  0.7696
   64MOL   H16143127   2.251   6.772   0.558  0.3080 -1.2545 -0.1100
   64MOL   H16243128   2.009   6.664   0.215  2.3446 -1.3685  0.0363
   64MOL   H16343129   1.815   6.762   0.310  0.4796 -2.9660  0.0185
   64MOL   H16443130   1.808   6.621   0.573 -0.9567  0.4335 -0.0433
   64MOL   H16543131   1.642   6.473   0.681  1.3655  0.5910  1.8308
   64MOL   H16643132   1.190   6.526   0.813 -2.0127  0.6736  1.0948
   64MOL   H16743133   1.021   6.586   0.998 -0.5404  0.9236 -0.4257
   64MOL   H16843134   1.353   6.759   1.228 -2.5504  1.3335  0.2406
   64MOL   H16943135   1.512   6.663   1.057  0.7213  1.0709  2.5660
   64MOL   H17043136   1.414   6.809   0.811 -0.0237  0.0316  1.0598
   64MOL   H17143137   1.582   6.970   0.699  1.0511  0.3009 -0.6992
   64MOL   C17243138   0.849   6.469   1.349  0.1197  0.1034 -0.3445
   64MOL   C17343139   0.902   6.576   1.275 -0.5881  0.7009 -0.0988
   64MOL   C17443140   1.037   6.605   1.286 -0.0882 -0.8846  0.0915
   64MOL   O17543141   1.088   6.716   1.218  0.2485 -0.6998 -0.5622
   64MOL   C17643142   1.119   6.533   1.375  0.0972  0.1029 -0.2269
   64MOL   C17743143   1.072   6.423   1.444 -0.6363 -1.1301  0.8116
   64MOL   C17843144   0.936   6.389   1.432  0.6383  0.3462 -0.3209
   64MOL   C17943145   0.885   6.273   1.506 -0.2589  0.3127  0.1379
   64MOL   O18043146   0.936   6.160   1.500 -0.3715 -0.4964  0.9429
   64MOL   C18143147   0.772   6.298   1.596  0.5428  0.2530 -0.4027
   64MOL   C18243148   0.683   6.189   1.619  0.7726 -0.2054  0.4520
   64MOL   C18343149   0.566   6.207   1.696  0.6008 -0.1953  0.2243
   64MOL   C18443150   0.530   6.334   1.743 -0.0584  0.1136 -0.3806
   64MOL   O18543151   0.414   6.368   1.813  0.3987  0.2485  0.0247
   64MOL   C18643152   0.410   6.315   1.943  0.0494 -0.2107 -0.1616
   64MOL   C18743153   0.339   6.197   1.963 -0.1404 -0.3964 -0.1076
   64MOL   C18843154   0.340   6.144   2.096 -0.2338  0.0144  0.6725
   64MOL   C18943155   0.400   6.215   2.204  0.2567 -0.2606  0.6549
   64MOL   C19043156   0.469   6.334   2.178  0.1398  0.1445 -0.1567
   64MOL   C19143157   0.479   6.383   2.045 -0.4183 -0.4295 -0.0624
   64MOL   C19243158   0.616   6.443   1.721 -0.3384  0.6966  0.5600
   64MOL   C19343159   0.731   6.427   1.642  0.3830 -0.3486 -0.5064
   64MOL   H19443160   0.744   6.442   1.357 -0.3803  2.3396  0.9991
   64MOL   H19543161   0.843   6.636   1.208 -0.3983  0.4192 -0.5171
   64MOL   H19643162   1.222   6.561   1.394 -0.0257 -0.4445  1.2684
   64MOL   H19743163   1.130   6.374   1.521 -0.1010 -0.9539  0.5221
   64MOL   H19843164   0.708   6.093   1.576  1.7649 -0.2243  1.0475
   64MOL   H19943165   0.494   6.127   1.711  0.6815 -0.4200 -0.5730
   64MOL   H20043166   0.286   6.150   1.881 -1.2773  0.8426 -0.1137
   64MOL   H20143167   0.275   6.060   2.117  1.2224 -1.1042  0.7824
   64MOL   H20243168   0.501   6.393   2.263  0.2981  1.0803 -0.8533
   64MOL   H20343169   0.531   6.475   2.023  0.5075 -0.5799  1.4253
   64MOL   H20443170   0.590   6.534   1.772  0.9642  1.7623 -0.6248
   64MOL   H20543171   0.777   6.521   1.618 -0.4426 -0.1414 -1.3158
   64MOL   C20643172   0.258   5.834   2.404  0.0869 -0.0427  0.2171
   64MOL   C20743173   0.344   5.936   2.354  0.2340 -0.1064 -0.5427
   64MOL   C20843174   0.309   6.072   2.379  0.1455 -0.0197  0.1583
   64MOL   O20943175   0.396   6.172   2.337  0.6301 -0.1110 -0.3411
   64MOL   C21043176   0.191   6.108   2.450  0.8752 -0.5089  0.0494
   64MOL   C21143177   0.110   6.009   2.500 -0.1701  0.3914 -0.4163
   64MOL   C21243178   0.141   5.870   2.483  0.3559 -0.2448  0.4537
   64MOL   C21343179   0.044   5.773   2.530  0.1377  0.3810  0.2028
   64MOL   O21443180   0.001   5.689   2.461  0.0490 -0.9244 -0.5361
   64MOL   C21543181   0.012   5.777   2.675 -0.2171 -1.1393  0.4083
   64MOL   C21643182   0.118   5.789   2.770 -0.5120  0.3309  0.5094
   64MOL   C21743183   0.085   5.795   2.909 -0.5857 -0.2517 -0.9120
   64MOL   C21843184   8.266   5.784   2.958  0.1722 -1.0372  0.2380
   64MOL   O21943185   8.226   5.784   3.083  0.0382 -0.1560  0.0218
   64MOL   C22043186   8.293   5.851   3.182  0.2695 -0.3243 -0.2522
   64MOL   C22143187   0.018   5.982   3.173  0.3154 -0.4994  0.1151
   64MOL   C22243188   0.077   6.050   3.283  0.7902 -0.1824 -0.4961
   64MOL   C22343189   0.100   5.988   3.407  0.0797  0.1293  0.3369
   64MOL   C22443190   0.057   5.853   3.414  0.9758 -0.3879 -0.1050
   64MOL   C22543191   8.310   5.787   3.307 -0.2637 -0.1447 -0.0988
   64MOL   C22643192   8.163   5.770   2.858  0.5084  0.6956  0.0991
   64MOL   C22743193   8.193   5.773   2.719 -0.8004 -0.6774  0.6569
   64MOL   H22843194   0.274   5.728   2.390 -4.3261 -0.7636 -0.0031
   64MOL   H22943195   0.428   5.896   2.298  1.5672  0.6728  0.8783
   64MOL   H23043196   0.164   6.212   2.457  2.8360  0.1360 -1.5488
   64MOL   H23143197   0.014   6.040   2.539  0.4962 -0.2503  1.7694
   64MOL   H23243198   0.221   5.802   2.739 -1.4614  0.4210 -2.7163
   64MOL   H23343199   0.165   5.807   2.981 -3.8446  2.1135  2.5262
   64MOL   H23443200   0.002   6.039   3.082 -3.1937 -1.7237 -0.1013
   64MOL   H23543201   0.108   6.152   3.266  1.3690 -0.6349 -2.2862
   64MOL   H23643202   0.066   5.800   3.508  1.0656 -1.7916 -0.8943
   64MOL   H23743203   8.276   5.688   3.332  0.9351 -0.7206 -0.7294
   64MOL   H23843204   8.061   5.757   2.890  0.1689  0.3772 -1.0817
   64MOL   H23943205   8.114   5.762   2.646 -0.8171  2.6821  0.0556
   64MOL   C24043206   0.200   6.408   3.481  0.3020 -0.2187 -0.3337
   64MOL   C24143207   0.140   6.283   3.503  0.4204 -0.1304  0.4771
   64MOL   C24243208   0.215   6.166   3.505  0.6252  0.3558  0.5348
   64MOL   O24343209   0.154   6.043   3.518 -0.8672  0.5617 -0.0060
   64MOL   C24443210   0.349   6.171   3.477 -0.7365 -0.0603 -0.5497
   64MOL   C24543211   0.409   6.297   3.455  0.0612  1.0084  1.0311
   64MOL   C24643212   0.336   6.414   3.465 -1.1033 -0.6974 -0.7961
   64MOL   C24743213   0.399   6.545   3.450  0.6219  0.1105  0.3760
   64MOL   O24843214   0.490   6.570   3.377 -0.2003 -0.2195  0.2468
   64MOL   C24943215   0.347   6.657   3.538  0.3382 -0.4581  0.0778
   64MOL   C25043216   0.303   6.646   3.669 -0.4950  0.3606  0.2999
   64MOL   C25143217   0.270   6.756   3.751 -0.5058  0.4694 -0.3791
   64MOL   C25243218   0.272   6.883   3.689 -0.7309 -0.0897 -0.4156
   64MOL   O25343219   0.235   6.994   3.759 -0.0494  0.0286  0.2553
   64MOL   C25443220   0.282   7.019   3.881  0.2383 -0.2549  0.3196
   64MOL   C25543221   0.411   7.078   3.904  0.6407 -0.1233 -0.5468
   64MOL   C25643222   0.456   7.102   4.034 -0.2603 -0.5251  0.2437
   64MOL   C25743223   0.377   7.061   4.142  0.4335 -0.0692  0.2495
   64MOL   C25843224   0.248   7.012   4.125  0.0767  0.0198  0.7838
   64MOL   C25943225   0.199   6.987   3.993  0.2691 -0.7955  0.2714
   64MOL   C26043226   0.321   6.900   3.560 -0.1118 -0.2687 -0.2191
   64MOL   C26143227   0.355   6.789   3.483  0.5842 -0.2501 -0.8205
   64MOL   H26243228   0.137   6.495   3.473  2.7121  1.7632  1.1810
   64MOL   H26343229   0.032   6.284   3.504  0.4135  2.5079  0.6866
   64MOL   H26443230   0.408   6.081   3.482  1.4351  1.3888  0.9811
   64MOL   H26543231   0.516   6.291   3.439 -0.1996 -0.7951 -0.0657
   64MOL   H26643232   0.302   6.542   3.698 -1.1459  0.1287 -0.5423
   64MOL   H26743233   0.247   6.753   3.856  1.3146 -1.7772 -0.0076
   64MOL   H26843234   0.482   7.107   3.828 -0.7946  1.2190 -1.3923
   64MOL   H26943235   0.556   7.131   4.063 -0.0409 -1.0670  0.0504
   64MOL   H27043236   0.192   6.970   4.208 -1.4201  1.0658  0.3172
   64MOL   H27143237   0.102   6.938   3.989  0.5873 -1.4370  0.3162
   64MOL   H27243238   0.328   6.999   3.518 -0.4275 -0.4907 -0.7878
   64MOL   H27343239   0.396   6.801   3.383  0.5489 -3.5401 -1.2991
   64MOL   C27443240   0.476   7.377   4.437 -0.4323  0.7821 -0.1494
   64MOL   C27543241   0.504   7.259   4.370 -0.0506 -0.0346 -0.9232
   64MOL   C27643242   0.396   7.168   4.349  0.5112 -0.5320  0.3496
   64MOL   O27743243   0.429   7.065   4.271  0.5053 -0.3254  0.7603
   64MOL   C27843244   0.265   7.192   4.396  0.0794 -0.3531  0.4655
   64MOL   C27943245   0.237   7.316   4.457  0.5397  0.4106 -0.1302
   64MOL   C28043246   0.346   7.406   4.479 -0.1722  0.2572  0.1086
   64MOL   C28143247   0.324   7.540   4.530 -0.3877  0.5631 -0.2255
   64MOL   O28243248   0.362   7.638   4.461  0.3256 -0.1926 -0.1204
   64MOL   C28343249   0.254   7.551   4.660  0.3623  0.0666 -0.1143
   64MOL   C28443250   0.206   7.677   4.699 -0.3789 -0.0267 -0.5564
   64MOL   C28543251   0.137   7.698   4.813  0.3498  0.1435 -0.8667
   64MOL   C28643252   0.108   7.587   4.902 -0.3019 -0.6953 -0.9103
   64MOL   O28743253   0.033   7.610   5.012 -0.5325 -0.3274 -0.1408
   64MOL   C28843254   0.091   7.581   5.135  0.2997  0.1024 -0.0032
   64MOL   C28943255   0.212   7.642   5.175  0.5711 -0.9561  0.2551
   64MOL   C29043256   0.262   7.631   5.308  0.3965  0.6651  0.1628
   64MOL   C29143257   0.197   7.545   5.398 -0.2193 -0.9987  0.0946
   64MOL   C29243258   0.079   7.483   5.357  0.3768 -0.8262  0.4822
   64MOL   C29343259   0.025   7.505   5.228  0.3557  0.5229 -0.4795
   64MOL   C29443260   0.162   7.458   4.868  0.8876  0.4455 -0.4073
   64MOL   C29543261   0.224   7.442   4.743  0.3202 -0.3954 -0.6670
   64MOL   H29643262   0.563   7.439   4.453  0.1505  0.0806 -0.5744
   64MOL   H29743263   0.604   7.242   4.334  0.0435 -1.4051 -0.0597
   64MOL   H29843264   0.188   7.117   4.386  0.1733 -0.2034 -1.6882
   64MOL   H29943265   0.138   7.353   4.479  0.3913  0.2541 -0.5460
   64MOL   H30043266   0.214   7.761   4.631 -2.6385  0.9222  0.3046
   64MOL   H30143267   0.097   7.796   4.836 -0.9858  0.1372 -3.0203
   64MOL   H30243268   0.252   7.705   5.096 -0.8137 -0.6411 -0.2078
   64MOL   H30343269   0.351   7.688   5.329 -0.3843  1.8717  0.2524
   64MOL   H30443270   0.020   7.422   5.424 -0.8028  0.4039  0.5844
   64MOL   H30543271   8.239   7.471   5.199  0.0827  0.7699  0.1528
   64MOL   H30643272   0.153   7.368   4.928  2.0068  1.4574  1.3334
   64MOL   H30743273   0.258   7.340   4.730 -1.3672 -0.7920 -2.0734
   64MOL   C30843274   0.462   7.246   5.598 -0.4608  0.0432 -0.6861
   64MOL   C30943275   0.409   7.361   5.533  0.6409 -0.3731 -0.1579
   64MOL   C31043276   0.282   7.410   5.570 -0.5429 -0.8092  0.5141
   64MOL   O31143277   0.243   7.534   5.524  0.5155 -0.2660  0.1910
   64MOL   C31243278   0.209   7.342   5.668 -0.0913 -0.3502  0.0348
   64MOL   C31343279   0.268   7.235   5.736 -0.0191 -0.1087 -0.7360
   64MOL   C31443280   0.392   7.179   5.702 -0.0076  0.1728  0.3632
   64MOL   C31543281   0.436   7.052   5.769  0.6763 -0.4893 -0.7053
   64MOL   O31643282   0.362   6.958   5.772  0.5770  0.4887  0.4587
   64MOL   C31743283   0.561   7.052   5.849  0.1682  0.1552  1.1522
   64MOL   C31843284   0.620   7.173   5.898  0.4079 -0.4232 -0.1488
   64MOL   C31943285   0.738   7.168   5.976  0.2657  0.2293 -0.7052
   64MOL   C32043286   0.785   7.045   6.024  0.4420  0.5508 -0.9666
   64MOL   O32143287   0.882   7.047   6.123  0.3561  0.3059 -0.5290
   64MOL   C32243288   0.956   6.936   6.145  0.0738  0.0019  0.0507
   64MOL   C32343289   1.089   6.925   6.110  0.2809  0.2157  0.6768
   64MOL   C32443290   1.164   6.808   6.124 -0.2563  0.2563  0.3853
   64MOL   C32543291   1.107   6.697   6.179 -0.4851 -0.5293  0.1778
   64MOL   C32643292   0.976   6.710   6.235  0.0453  0.6318  0.4212
   64MOL   C32743293   0.902   6.825   6.214  0.4434  0.2371 -0.2199
   64MOL   C32843294   0.727   6.922   5.976  0.3083  0.5404 -0.5757
   64MOL   C32943295   0.621   6.929   5.887  0.0776  0.0504 -0.2342
   64MOL   H33043296   0.564   7.218   5.577 -0.7137 -1.2937 -0.1721
   64MOL   H33143297   0.468   7.418   5.463 -2.2045  3.5412  0.4681
   64MOL   H33243298   0.119   7.396   5.695  0.1810  1.1220 -1.8502
   64MOL   H33343299   0.216   7.186   5.817  0.8827  1.3728  0.7706
   64MOL   H33443300   0.578   7.267   5.864  2.5685  0.8331  0.5577
   64MOL   H33543301   0.794   7.253   6.010 -1.5940  0.3416  2.2722
   64MOL   H33643302   1.135   7.009   6.059 -0.6907  1.7072  2.1912
   64MOL   H33743303   1.267   6.802   6.095 -0.1735  0.0609  0.7178
   64MOL   H33843304   0.941   6.623   6.289  3.2531 -1.0034  0.0168
   64MOL   H33943305   0.800   6.836   6.247  0.8573 -1.1329  1.5809
   64MOL   H34043306   0.770   6.828   6.005  0.8277  0.6892 -0.8590
   64MOL   H34143307   0.579   6.838   5.849  0.6741  0.1346 -1.1284
   64MOL   C34243308   1.272   6.266   6.047  0.0024  0.1801  0.5087
   64MOL   C34343309   1.268   6.383   6.128 -0.1452 -0.2168 -0.2941
   64MOL   C34443310   1.160   6.477   6.121 -0.0815  0.6752 -0.1162
   64MOL   O34543311   1.165   6.579   6.209  0.5344 -0.0385  0.3483
   64MOL   C34643312   1.055   6.455   6.027 -0.1703 -0.1823 -0.2656
   64MOL   C34743313   1.058   6.342   5.946 -0.5489  0.1543 -0.0019
   64MOL   C34843314   1.172   6.257   5.940 -0.8036 -0.2704 -0.0376
   64MOL   C34943315   1.189   6.143   5.847 -0.7984  0.1152  0.1342
   64MOL   O35043316   1.095   6.071   5.811 -0.8507 -0.1017  0.4901
   64MOL   C35143317   1.320   6.129   5.770  0.0165 -0.5532  0.3790
   64MOL   C35243318   1.403   6.240   5.724  0.4900 -0.3178 -0.2846
   64MOL   C35343319   1.527   6.220   5.661  0.1991  0.2995 -0.8674
   64MOL   C35443320   1.574   6.087   5.643 -0.4078  0.5345  0.2923
   64MOL   O35543321   1.694   6.061   5.582  0.7108 -0.1450 -0.6241
   64MOL   C35643322   1.809   6.074   5.660  0.2146 -0.0498 -0.1163
   64MOL   C35743323   1.847   5.958   5.740  0.3632 -0.4869 -0.0254
   64MOL   C35843324   1.957   5.969   5.833 -0.3881 -0.1801  0.3702
   64MOL   C35943325   2.028   6.091   5.853 -0.3882  0.0586  0.2289
   64MOL   C36043326   1.984   6.202   5.776 -0.9897 -0.0397  0.0219
   64MOL   C36143327   1.881   6.192   5.678 -0.5229 -0.8939 -0.0492
   64MOL   C36243328   1.503   5.981   5.703  0.6222 -1.1274  0.1533
   64MOL   C36343329   1.382   6.002   5.766 -0.5200 -0.5899 -0.2756
   64MOL   H36443330   1.353   6.195   6.051  0.4403  0.6424  0.0575
   64MOL   H36543331   1.336   6.397   6.211 -0.6613  2.0291 -0.2146
   64MOL   H36643332   0.977   6.527   6.008  1.5591  1.2297 -2.1771
   64MOL   H36743333   0.974   6.330   5.879 -0.4019 -1.2405  0.0461
   64MOL   H36843334   1.371   6.343   5.734 -1.3632 -1.0611  1.8778
   64MOL   H36943335   1.591   6.297   5.620  1.8450 -1.5459 -1.8606
   64MOL   H37043336   1.797   5.863   5.738 -0.8799  0.1045  1.6895
   64MOL   H37143337   1.991   5.884   5.889 -1.4058 -0.9322 -0.1452
   64MOL   H37243338   2.041   6.293   5.786 -1.2824  0.0791  0.6307
   64MOL   H37343339   1.860   6.283   5.624 -0.2710 -0.2293  0.9530
   64MOL   H37443340   1.547   5.883   5.705 -0.3181 -1.5475  1.0375
   64MOL   H37543341   1.329   5.923   5.817 -2.1051  0.6717  0.0583
   64MOL   C37643342   2.502   6.053   5.847  0.0288  0.4508  0.1049
   64MOL   C37743343   2.381   6.072   5.916 -0.2823  0.0531 -0.3725
   64MOL   C37843344   2.263   6.079   5.845 -0.5316 -0.3820  0.0301
   64MOL   O37943345   2.152   6.097   5.923 -0.0060  0.4629 -0.1419
   64MOL   C38043346   2.271   6.066   5.702  0.4954 -0.3543 -0.0085
   64MOL   C38143347   2.389   6.054   5.640  0.0929 -0.2412 -0.3574
   64MOL   C38243348   2.510   6.047   5.705  0.3442 -0.0366  0.4831
   64MOL   C38343349   2.642   6.034   5.637 -1.2607 -0.4152 -0.5880
   64MOL   O38443350   2.719   5.956   5.686  0.2977 -0.4633 -0.5274
   64MOL   C38543351   2.677   6.126   5.524 -0.2768  0.5479  0.6090
   64MOL   C38643352   2.604   6.247   5.511  0.9632  0.6313 -0.1736
   64MOL   C38743353   2.627   6.339   5.400  0.2978  0.1179 -0.0721
   64MOL   C38843354   2.736   6.311   5.314  0.3654  0.2232 -0.0967
   64MOL   O38943355   2.765   6.408   5.221  0.1035  0.8603 -0.0212
   64MOL   C39043356   2.867   6.496   5.245  0.0227 -0.3607 -0.7793
   64MOL   C39143357   3.002   6.456   5.240  0.0769  0.4310 -0.7933
   64MOL   C39243358   3.115   6.541   5.269  0.2890 -0.6938 -1.0038
   64MOL   C39343359   3.086   6.671   5.308 -0.1237  0.1790  0.4005
   64MOL   C39443360   2.950   6.718   5.307  0.4569  0.3940  0.2557
   64MOL   C39543361   2.843   6.630   5.284  0.5528  0.5401 -0.4805
   64MOL   C39643362   2.812   6.191   5.327 -0.0736 -0.4569  0.0637
   64MOL   C39743363   2.787   6.106   5.433 -0.1333 -0.4219  0.0656
   64MOL   H39843364   2.588   6.043   5.912  1.0150  1.3720 -1.0354
   64MOL   H39943365   2.384   6.074   6.024  1.9817 -2.5072 -0.3443
   64MOL   H40043366   2.180   6.070   5.642  0.2537  0.9750  0.4163
   64MOL   H40143367   2.398   6.059   5.532  1.2571 -1.3536 -0.3293
   64MOL   H40243368   2.530   6.274   5.584  1.8761 -1.1976  1.4634
   64MOL   H40343369   2.570   6.430   5.392 -0.8511 -0.5503  0.2145
   64MOL   H40443370   3.027   6.355   5.213  0.0205 -0.2550  1.5961
   64MOL   H40543371   3.218   6.510   5.278  0.7498  0.6019 -1.7699
   64MOL   H40643372   2.925   6.815   5.347  0.9722  0.2850  0.8457
   64MOL   H40743373   2.746   6.676   5.295  0.4013 -0.0757  0.9261
   64MOL   H40843374   2.898   6.163   5.267  0.4831 -0.7937  1.0084
   64MOL   H40943375   2.841   6.013   5.435 -2.0199 -1.5908 -1.3173
   64MOL   C41043376   3.077   6.848   5.702  0.2513 -0.6793 -0.0101
   64MOL   C41143377   3.095   6.767   5.586  0.5828  0.0349  0.5277
   64MOL   C41243378   3.178   6.816   5.481  0.3419 -0.3332  0.4489
   64MOL   O41343379   3.192   6.745   5.363  0.0661 -0.2047 -0.0457
   64MOL   C41443380   3.250   6.940   5.488 -0.5373  1.0908 -0.4781
   64MOL   C41543381   3.235   7.016   5.604  0.1980 -0.5061 -0.6104
   64MOL   C41643382   3.140   6.978   5.705 -0.2759 -0.2917 -0.5283
   64MOL   C41743383   3.131   7.053   5.824 -0.1382 -0.5589  0.6741
   64MOL   O41843384   3.183   7.008   5.925 -0.0781 -0.1574  0.1178
   64MOL   C41943385   3.054   7.183   5.826 -0.1854  0.3712  0.5101
   64MOL   C42043386   2.994   7.238   5.937  0.1063  0.0075  0.6726
   64MOL   C42143387   2.918   7.358   5.926  0.4503 -0.3614  0.8107
   64MOL   C42243388   2.912   7.427   5.805  0.8145 -0.1681  0.6159
   64MOL   O42343389   2.864   7.558   5.802 -0.2944  0.6392  0.3416
   64MOL   C42443390   2.780   7.587   5.701 -1.1210  0.0676 -0.0377
   64MOL   C42543391   2.819   7.688   5.615 -0.1791  0.3476 -0.0593
   64MOL   C42643392   2.752   7.708   5.499  0.0101  0.4156  0.1971
   64MOL   C42743393   2.631   7.635   5.478  0.3157 -0.2303 -0.3627
   64MOL   C42843394   2.575   7.550   5.578 -0.1933  0.1795  0.4888
   64MOL   C42943395   2.661   7.521   5.685 -0.2729 -0.5376 -0.1768
   64MOL   C43043396   2.972   7.368   5.692 -0.1149  0.3316 -0.3872
   64MOL   C43143397   3.045   7.252   5.708  0.7275 -0.6060 -0.3824
   64MOL   H43243398   3.005   6.811   5.773 -0.4545 -0.1242 -0.4338
   64MOL   H43343399   3.047   6.671   5.590  1.7390 -0.5604  0.3426
   64MOL   H43443400   3.315   6.968   5.406 -0.7184 -1.4270 -1.5284
   64MOL   H43543401   3.301   7.100   5.621 -0.7358  0.7963 -3.1317
   64MOL   H43643402   3.006   7.184   6.029  1.1126 -2.7807 -1.0450
   64MOL   H43743403   2.877   7.394   6.019 -1.5356 -1.2140  0.2825
   64MOL   H43843404   2.914   7.738   5.628  0.1513 -0.3905  0.4755
   64MOL   H43943405   2.792   7.761   5.414 -2.5759  0.6436 -0.9310
   64MOL   H44043406   2.480   7.498   5.572 -1.2009  1.7454  2.3861
   64MOL   H44143407   2.621   7.456   5.761 -3.4904  0.6622 -0.7578
   64MOL   H44243408   2.958   7.418   5.597 -1.5063 -3.3782 -2.2508
   64MOL   H44343409   3.077   7.212   5.613 -1.1704  0.2322 -1.4120
   64MOL   C44443410   2.252   7.858   5.399  0.2452 -0.0184 -1.0187
   64MOL   C44543411   2.350   7.759   5.409 -0.6022 -0.0103  0.0551
   64MOL   C44643412   2.480   7.770   5.359  0.1973 -0.0615 -0.1649
   64MOL   O44743413   2.561   7.662   5.363 -0.5019 -0.2250 -0.1505
   64MOL   C44843414   2.520   7.897   5.312  0.4116 -0.7545 -0.0844
   64MOL   C44943415   2.426   8.000   5.300 -0.4383 -0.5350  0.2546
   64MOL   C45043416   2.293   7.985   5.345 -0.2611 -0.0425  1.2761
   64MOL   C45143417   2.196   8.099   5.327 -0.8288  0.2057 -1.1901
   64MOL   O45243418   2.078   8.074   5.306  0.6259  0.2100 -0.2615
   64MOL   C45343419   2.255   8.238   5.361  0.4405 -0.6212  0.1475
   64MOL   C45443420   2.343   8.257   5.467 -0.1679 -0.1516 -0.4391
   64MOL   C45543421   2.385   0.077   5.506 -0.0123 -0.0241  0.7066
   64MOL   C45643422   2.342   0.192   5.424 -0.3305 -0.4317 -0.0846
   64MOL   O45743423   2.367   0.325   5.452 -0.5840 -0.0761  0.7808
   64MOL   C45843424   2.482   0.371   5.507 -0.5283  0.4158  1.2522
   64MOL   C45943425   2.515   0.324   5.631 -0.1382 -0.2468 -0.2868
   64MOL   C46043426   2.641   0.353   5.684 -0.3677  0.0901 -0.5491
   64MOL   C46143427   2.738   0.435   5.608  0.6565 -0.1322  0.0851
   64MOL   C46243428   2.700   0.471   5.476  0.2625  0.4856 -0.4515
   64MOL   C46343429   2.567   0.443   5.427  0.2605 -0.6102  0.1363
   64MOL   C46443430   2.259   0.165   5.316 -0.5892  0.4508 -0.0689
   64MOL   C46543431   2.215   0.039   5.280 -1.0889  0.6918  0.6546
   64MOL   H46643432   2.148   7.850   5.430  0.0322  0.1629 -1.6800
   64MOL   H46743433   2.324   7.661   5.447  0.3331  0.2842  1.4608
   64MOL   H46843434   2.626   7.909   5.299  0.2419  2.1709  0.8628
   64MOL   H46943435   2.467   8.094   5.267 -2.3530  0.3230  0.2514
   64MOL   H47043436   2.392   8.177   5.521  0.7636  0.4347 -0.3907
   64MOL   H47143437   2.458   0.084   5.585 -0.8891  0.8464  1.4527
   64MOL   H47243438   2.437   0.276   5.689 -0.2078 -0.2380 -0.3740
   64MOL   H47343439   2.657   0.330   5.789 -1.3736 -2.7088 -0.9726
   64MOL   H47443440   2.772   0.532   5.423 -0.2906 -0.1985 -2.0207
   64MOL   H47543441   2.528   0.462   5.328 -1.5461 -4.3877  0.0566
   64MOL   H47643442   2.218   0.256   5.274 -2.4179  0.6076  2.0006
   64MOL   H47743443   2.147   0.033   5.197  0.0867  2.9585 -0.5390
   64MOL   C47843444   3.126   0.241   5.615 -0.2296  0.4447  1.2188
   64MOL   C47943445   2.996   0.298   5.612 -0.0841 -0.4737  0.5382
   64MOL   C48043446   2.973   0.425   5.665 -0.3792 -0.1964 -0.7801
   64MOL   O48143447   2.851   0.488   5.674 -0.2220 -0.1259  0.3541
   64MOL   C48243448   3.081   0.496   5.718 -0.9363 -0.1204 -0.6965
   64MOL   C48343449   3.212   0.447   5.703  0.4381  0.0030 -0.1368
   64MOL   C48443450   3.234   0.314   5.657  0.2123 -0.0886 -0.1249
   64MOL   C48543451   3.373   0.257   5.653  0.3665 -0.3459  0.0608
   64MOL   O48643452   3.464   0.303   5.727 -0.1131  0.4474  0.4060
   64MOL   C48743453   3.394   0.136   5.568  0.1040 -0.9156 -0.0564
   64MOL   C48843454   3.349   0.138   5.430 -0.0654  0.0771 -0.0183
   64MOL   C48943455   3.353   0.017   5.358 -0.7865 -0.4626 -0.1416
   64MOL   C49043456   3.405   8.208   5.416 -1.1032  0.6884 -0.4048
   64MOL   O49143457   3.411   8.099   5.333  0.4197 -0.0737 -0.7705
   64MOL   C49243458   3.503   7.999   5.336  0.3890 -0.1549 -0.4430
   64MOL   C49343459   3.628   8.015   5.268  0.3178 -0.3626  0.8293
   64MOL   C49443460   3.730   7.927   5.300 -0.0542  0.6105 -0.2943
   64MOL   C49543461   3.708   7.820   5.391 -0.0930 -0.1540  0.1980
   64MOL   C49643462   3.580   7.798   5.444 -1.0392  0.4271  0.6857
   64MOL   C49743463   3.478   7.883   5.416 -0.3481 -0.4877 -0.1012
   64MOL   C49843464   3.451   8.211   5.548 -0.7400  0.2044 -0.3269
   64MOL   C49943465   3.442   0.017   5.628  0.1472  0.0726  0.6762
   64MOL   H50043466   3.131   0.141   5.574  0.7601  0.8498  0.3481
   64MOL   H50143467   2.911   0.241   5.579 -0.3913 -0.2063  0.8608
   64MOL   H50243468   3.068   0.591   5.767 -1.3672  0.3059 -1.6210
   64MOL   H50343469   3.295   0.493   5.754  0.9160 -1.5843  0.5458
   64MOL   H50443470   3.318   0.230   5.382  1.4831 -1.2674 -3.7866
   64MOL   H50543471   3.323   0.015   5.254  0.3862 -0.6101 -0.4839
   64MOL   H50643472   3.638   8.098   5.199 -3.2950 -0.6511 -0.1430
   64MOL   H50743473   3.824   7.946   5.250  0.0189  0.7135 -0.1161
   64MOL   H50843474   3.564   7.718   5.514 -0.7194  0.1213  0.4124
   64MOL   H50943475   3.379   7.865   5.455 -0.4256  2.1244  0.9620
   64MOL   H51043476   3.493   8.124   5.598  1.0992  0.9688 -0.5005
   64MOL   H51143477   3.473   0.023   5.731 -0.0019 -1.5068  0.8210
   64MOL   C51243478   3.905   7.845   5.773  0.6349  0.7295  0.3182
   64MOL   C51343479   3.845   7.846   5.651  0.6840 -0.1639  0.1397
   64MOL   C51443480   3.878   7.746   5.556  0.2449  0.2115 -0.1592
   64MOL   O51543481   3.820   7.746   5.425 -0.1763  0.4084 -0.3753
   64MOL   C51643482   3.983   7.657   5.579 -0.4255 -1.0183 -0.0436
   64MOL   C51743483   4.043   7.661   5.707 -0.0526  0.7516  0.7431
   64MOL   C51843484   4.017   7.759   5.802  0.8390  0.2346 -0.0845
   64MOL   C51943485   4.093   7.763   5.932  0.2659 -0.1391  0.2982
   64MOL   O52043486   4.166   7.677   5.969  0.0484  0.1516 -0.1961
   64MOL   C52143487   4.062   7.882   6.024 -0.2352  0.0582  0.3717
   64MOL   C52243488   4.066   8.024   5.984 -0.7424 -0.3844 -0.9084
   64MOL   C52343489   4.024   8.124   6.069 -0.2812  0.7966 -0.1801
   64MOL   C52443490   3.996   8.086   6.206 -1.4705 -0.2825 -0.1496
   64MOL   O52543491   3.985   8.188   6.298 -0.3944  0.0624 -0.0341
   64MOL   C52643492   3.866   8.226   6.350 -0.6115  0.3046  0.0127
   64MOL   C52743493   3.812   8.150   6.458  0.7945 -0.4889 -0.4774
   64MOL   C52843494   3.673   8.176   6.489  0.5247 -0.3885  0.2103
   64MOL   C52943495   3.593   8.275   6.426 -0.5374 -0.3539  0.4886
   64MOL   C53043496   3.654   0.037   6.325  1.1481  0.0412 -1.0650
   64MOL   C53143497   3.785   0.009   6.287  0.2909  0.0614 -0.6899
   64MOL   C53243498   4.007   7.951   6.253 -0.4374  0.6729 -0.1650
   64MOL   C53343499   4.028   7.851   6.153  1.2466 -0.6328 -0.0489
   64MOL   H53443500   3.862   7.900   5.856  1.2292  1.6215  0.0451
   64MOL   H53543501   3.765   7.916   5.632  3.3420  2.1809 -2.9102
   64MOL   H53643502   4.020   7.590   5.503  1.1745  1.5608 -1.6206
   64MOL   H53743503   4.128   7.596   5.723 -1.8272 -2.2525 -1.4466
   64MOL   H53843504   4.078   8.053   5.881 -1.9850 -0.6714 -1.1492
   64MOL   H53943505   4.027   8.227   6.037  0.3894  1.3035  1.4383
   64MOL   H54043506   3.877   8.084   6.513  0.4891 -0.8746 -0.5831
   64MOL   H54143507   3.621   8.115   6.561 -1.2324  0.8791  0.0396
   64MOL   H54243508   3.603   0.106   6.259  0.1465  1.0580  0.7362
   64MOL   H54343509   3.824   0.060   6.200  1.9899  1.6025  0.9390
   64MOL   H54443510   4.011   7.919   6.356  0.8521 -0.5760 -0.5790
   64MOL   H54543511   4.032   7.748   6.185 -0.0712 -0.7715 -0.2897
   64MOL   C54643512   3.369   0.301   6.600 -0.1300  0.0829 -0.1322
   64MOL   C54743513   3.437   0.174   6.575  0.9044 -0.2827 -0.3854
   64MOL   C54843514   3.402   0.088   6.473 -0.5413 -0.2803  0.0102
   64MOL   O54943515   3.462   8.284   6.449  0.2606 -0.6116 -0.3942
   64MOL   C55043516   3.292   0.120   6.393 -0.1866  0.1120 -0.7614
   64MOL   C55143517   3.222   0.246   6.410  0.1975 -0.4186  0.3781
   64MOL   C55243518   3.262   0.338   6.513 -0.5174 -0.4415  0.7293
   64MOL   C55343519   3.190   0.469   6.534  0.2936 -0.0283 -0.9074
   64MOL   O55443520   3.139   0.525   6.441 -0.0563  0.2239 -0.1910
   64MOL   C55543521   3.175   0.521   6.671  0.0259 -0.0449  1.0413
   64MOL   C55643522   3.174   0.659   6.684  0.0388 -0.1646 -0.0556
   64MOL   C55743523   3.162   0.720   6.814  0.6105  0.3586 -0.1544
   64MOL   C55843524   3.175   0.640   6.929  0.3210 -0.9980 -0.3124
   64MOL   O55943525   3.182   0.707   7.049  0.6576  0.0144  0.1381
   64MOL   C56043526   3.123   0.656   7.163  0.2655 -0.1464  1.0881
   64MOL   C56143527   3.210   0.646   7.276  0.2540  0.2826 -0.0593
   64MOL   C56243528   3.156   0.616   7.400 -0.3326 -0.4552 -0.1748
   64MOL   C56343529   3.019   0.603   7.413  0.1697 -0.5861  0.0294
   64MOL   C56443530   2.931   0.617   7.303 -0.2612 -0.4893 -1.1557
   64MOL   C56543531   2.987   0.651   7.183  0.6384  0.3764 -0.1405
   64MOL   C56643532   3.175   0.501   6.911 -1.0377  0.0045  0.8150
   64MOL   C56743533   3.179   0.442   6.789 -0.0710  0.1530  0.0055
   64MOL   H56843534   3.402   0.371   6.676 -0.5500  0.3734 -0.2122
   64MOL   H56943535   3.521   0.155   6.640  1.1562  0.4480 -0.4937
   64MOL   H57043536   3.270   0.049   6.314  0.9121 -2.4173  1.1426
   64MOL   H57143537   3.147   0.274   6.337 -0.8692 -1.9066  0.8693
   64MOL   H57243538   3.176   0.730   6.603  1.7440 -0.8806 -0.6484
   64MOL   H57343539   3.161   0.828   6.825  1.7634  0.1974  1.6844
   64MOL   H57443540   3.317   0.664   7.276  0.2064  0.5965 -0.9623
   64MOL   H57543541   3.207   0.588   7.491 -0.8961 -1.8979 -0.2961
   64MOL   H57643542   2.825   0.625   7.325 -0.3782  1.0624 -2.1897
   64MOL   H57743543   2.930   0.687   7.098  0.3944 -0.8986 -0.5148
   64MOL   H57843544   3.175   0.439   6.999  2.0106 -1.6100 -0.2545
   64MOL   H57943545   3.177   0.334   6.786 -0.0808  0.1241  0.9187
   64MOL   C58043546   3.038   0.218   7.627  0.1676  0.1193 -0.0089
   64MOL   C58143547   3.056   0.354   7.611  0.4054 -1.2488 -0.7922
   64MOL   C58243548   2.946   0.437   7.574  0.1723  1.1510  0.8347
   64MOL   O58343549   2.955   0.571   7.536 -0.2726 -0.4449 -0.3597
   64MOL   C58443550   2.821   0.379   7.555  0.0344 -0.2663 -0.7784
   64MOL   C58543551   2.799   0.245   7.571 -0.2934 -0.4606 -0.1241
   64MOL   C58643552   2.908   0.162   7.603  0.0834  0.3068 -0.7898
   64MOL   C58743553   2.878   0.014   7.601  0.0272 -0.2753 -0.5691
   64MOL   O58843554   2.783   8.292   7.541  0.3445  0.0948 -0.5545
   64MOL   C58943555   2.955   8.227   7.690 -0.1911 -0.2824 -0.0148
   64MOL   C59043556   3.027   8.265   7.810 -0.1874 -0.5457 -0.2943
   64MOL   C59143557   3.070   8.168   7.895 -0.4441  0.7215  0.1220
   64MOL   C59243558   3.071   8.035   7.859 -0.3878 -0.4366  0.9263
   64MOL   O59343559   3.127   7.952   7.948  0.2911 -0.2519  0.2862
   64MOL   C59443560   3.233   7.876   7.912  0.3392 -0.2699 -0.2419
   64MOL   C59543561   3.355   7.909   7.969  0.3537  0.0931 -0.2694
   64MOL   C59643562   3.470   7.828   7.949 -0.2789 -0.2753  0.2054
   64MOL   C59743563   3.463   7.715   7.865  1.2538 -0.0247 -0.5064
   64MOL   C59843564   3.343   7.690   7.801  0.3260  0.3374  0.7598
   64MOL   C59943565   3.221   7.756   7.836 -0.4285  0.1072  0.8894
   64MOL   C60043566   3.023   7.999   7.731  0.9971 -0.2946  0.5190
   64MOL   C60143567   2.962   8.091   7.651  0.2432 -0.0607  0.3081
   64MOL   H60243568   3.116   0.149   7.655  0.8881  0.8368 -0.2184
   64MOL   H60343569   3.157   0.392   7.606 -0.0539  0.0483 -0.1555
   64MOL   H60443570   2.737   0.432   7.511 -0.1845 -1.8486 -2.3329
   64MOL   H60543571   2.703   0.204   7.542 -1.3473  1.2578  0.8846
   64MOL   H60643572   3.032   0.054   7.848  1.8171 -0.3789 -0.9586
   64MOL   H60743573   3.113   8.198   7.989  0.0001 -0.1851  0.2105
   64MOL   H60843574   3.354   7.997   8.032 -0.5864  0.2925 -0.5483
   64MOL   H60943575   3.558   7.862   8.002  0.8587 -1.9976 -0.5509
   64MOL   H61043576   3.346   7.611   7.727  1.6479 -1.3006  2.5193
   64MOL   H61143577   3.124   7.736   7.793  0.6742 -0.3774 -1.4303
   64MOL   H61243578   3.042   7.899   7.695  2.3753  0.8602 -2.0982
   64MOL   H61343579   2.924   8.069   7.552  0.9500 -1.0886  0.2501
   64MOL   C61443580   3.751   7.829   7.564 -0.3528  0.1741  0.5048
   64MOL   C61543581   3.659   7.744   7.634  0.3267 -0.4666 -0.1262
   64MOL   C61643582   3.678   7.723   7.770  0.1890  0.1991 -0.1736
   64MOL   O61743583   3.582   7.654   7.843 -0.1849  0.5704 -0.4827
   64MOL   C61843584   3.781   7.787   7.841  0.5564  0.1345 -0.1134
   64MOL   C61943585   3.861   7.879   7.773  0.0598  0.6389  0.5214
   64MOL   C62043586   3.847   7.895   7.633 -0.6548 -0.3394 -0.1649
   64MOL   C62143587   3.932   8.002   7.571  0.2647  0.6366 -0.1898
   64MOL   O62243588   4.017   8.060   7.636  1.0318  0.0277 -0.5350
   64MOL   C62343589   3.907   8.032   7.426 -0.3353  0.2054  0.7724
   64MOL   C62443590   4.006   8.006   7.330 -0.1462 -0.3947  0.1579
   64MOL   C62543591   3.986   8.037   7.195 -0.2783  0.8656  0.2001
   64MOL   C62643592   3.864   8.094   7.158 -0.1347 -0.3729  0.6270
   64MOL   O62743593   3.839   8.114   7.026  0.0954 -0.4928 -0.6098
   64MOL   C62843594   3.843   8.235   6.977 -0.1784  0.0647 -0.2658
   64MOL   C62943595   3.741   8.276   6.891  0.0700  0.1577 -0.9080
   64MOL   C63043596   3.752   0.098   6.833 -0.0647 -0.1791 -0.5480
   64MOL   C63143597   3.851   0.188   6.881  1.0112 -0.0110  0.4848
   64MOL   C63243598   3.943   0.147   6.973 -0.4248 -0.0652 -0.1899
   64MOL   C63343599   3.946   0.015   7.012 -0.2193  0.4347 -0.2390
   64MOL   C63443600   3.762   8.124   7.250  1.2034 -0.4373 -0.1163
   64MOL   C63543601   3.787   8.104   7.396 -0.3193 -0.2163 -0.5129
   64MOL   H63643602   3.743   7.842   7.458  0.9355 -0.3385  0.3452
   64MOL   H63743603   3.569   7.714   7.581 -0.5280  0.1985  0.9238
   64MOL   H63843604   3.785   7.784   7.949  1.4244 -1.4552 -0.1891
   64MOL   H63943605   3.934   7.938   7.828 -0.5755  0.2549  1.7913
   64MOL   H64043606   4.105   7.975   7.360 -1.3439 -2.9187  1.6877
   64MOL   H64143607   4.059   8.019   7.118 -2.2806 -2.1118 -1.0840
   64MOL   H64243608   3.658   8.214   6.861 -0.2271 -0.9315  2.0134
   64MOL   H64343609   3.678   0.130   6.763  0.5901  0.0753 -1.1266
   64MOL   H64443610   4.020   0.215   7.007 -0.5214  0.1451 -0.3820
   64MOL   H64543611   4.019   8.295   7.084 -0.7305 -1.9649 -0.7845
   64MOL   H64643612   3.664   8.160   7.221  2.2071 -0.3114 -3.5721
   64MOL   H64743613   3.713   8.134   7.468 -0.4493 -0.4775 -0.5357
   64MOL   C64843614   3.619   0.535   7.015  0.1364 -0.0623 -0.4300
   64MOL   C64943615   3.669   0.441   6.920  0.2841  0.5082  0.4297
   64MOL   C65043616   3.805   0.412   6.919  0.2873  0.2547 -0.3322
   64MOL   O65143617   3.852   0.318   6.832 -0.6037 -0.3902  0.2533
   64MOL   C65243618   3.896   0.483   6.996  0.0275  0.5697  0.5659
   64MOL   C65343619   3.850   0.589   7.076  0.8240  0.5584  0.1870
   64MOL   C65443620   3.710   0.616   7.092  0.4883  0.4878  0.2067
   64MOL   C65543621   3.662   0.716   7.197 -0.6782  0.4023 -0.4630
   64MOL   O65643622   3.551   0.705   7.253 -0.5631 -0.6230  0.2246
   64MOL   C65743623   3.758   0.818   7.241 -0.3518  0.6930 -0.9950
   64MOL   C65843624   3.797   0.835   7.377  0.2900 -0.6861  0.4976
   64MOL   C65943625   3.884   0.942   7.420  0.3271  0.0921 -0.6335
   64MOL   C66043626   3.943   1.024   7.324  0.1218 -0.0809 -0.5826
   64MOL   O66143627   4.033   1.121   7.363  0.3044 -0.4746 -0.1934
   64MOL   C66243628   3.993   1.210   7.458 -0.6041  0.4424  0.5251
   64MOL   C66343629   4.070   1.207   7.575 -0.3223  0.5689  0.1136
   64MOL   C66443630   4.030   1.287   7.687 -0.0383  0.1672  0.4727
   64MOL   C66543631   3.926   1.385   7.669  0.1462 -0.0473 -0.5487
   64MOL   C66643632   3.871   1.396   7.541 -0.3747 -0.1695  0.2983
   64MOL   C66743633   3.904   1.311   7.432  0.3106 -0.2383 -0.1226
   64MOL   C66843634   3.901   1.012   7.189 -0.6683 -0.5439  0.1030
   64MOL   C66943635   3.809   0.911   7.153  0.3933 -0.5761 -0.4880
   64MOL   H67043636   3.513   0.555   7.027  0.7594  2.5957  1.2215
   64MOL   H67143637   3.594   0.395   6.858 -0.0285 -0.5733  1.5911
   64MOL   H67243638   4.000   0.453   6.993 -0.3945 -1.4056  3.4849
   64MOL   H67343639   3.930   0.636   7.132 -0.6368  2.1379  0.9761
   64MOL   H67443640   3.749   0.777   7.454  1.5823  0.8840  2.5517
   64MOL   H67543641   3.899   0.952   7.527  0.6486  2.2799 -0.8603
   64MOL   H67643642   4.148   1.133   7.587 -0.0318  1.1053  1.7303
   64MOL   H67743643   4.098   1.289   7.770  0.4970  1.5988  0.0266
   64MOL   H67843644   3.781   1.454   7.527 -0.2741 -0.0831  0.0254
   64MOL   H67943645   3.859   1.314   7.334 -0.3401 -2.0218  0.0941
   64MOL   H68043646   3.926   1.083   7.112  1.3413 -1.0266  0.2799
   64MOL   H68143647   3.785   0.900   7.049 -0.2166 -1.3380 -0.2677
   64MOL   H68243648   3.901   1.455   7.748 -1.3488 -1.2919  0.1092
   65MOL     C143649   2.941   3.778   4.187 -0.2940  0.2004  0.3497
   65MOL     C243650   2.925   3.792   4.048 -0.6340  0.6161 -0.0797
   65MOL     C343651   2.810   3.859   3.999 -0.1178 -0.1997  0.2762
   65MOL     O443652   2.799   3.884   3.868 -0.3064  0.1781 -0.0699
   65MOL     C543653   2.711   3.902   4.094  0.4323  0.0494  0.4777
   65MOL     C643654   2.720   3.865   4.228 -0.4474 -0.1546 -0.5392
   65MOL     C743655   2.833   3.801   4.272 -0.4458  0.7913 -0.0137
   65MOL     C843656   2.846   3.774   4.420  0.1116 -1.2578 -0.3714
   65MOL     O943657   2.758   3.728   4.481  0.3764 -0.5007 -0.4237
   65MOL    C1043658   2.976   3.820   4.489 -0.0725 -0.6094  0.2034
   65MOL    C1143659   3.034   3.943   4.453  0.3158  0.1644 -0.0970
   65MOL    C1243660   3.147   3.990   4.516 -0.3869 -0.2635 -0.8251
   65MOL    C1343661   3.214   3.912   4.618 -0.1802  0.4784 -0.0094
   65MOL    O1443662   3.328   3.960   4.678 -0.1643  0.4246 -0.0552
   65MOL    C1543663   3.444   3.967   4.611  0.0902  0.3647  0.5873
   65MOL    C1643664   3.542   4.063   4.655  0.5487  0.4220  0.7940
   65MOL    C1743665   3.663   4.077   4.593  0.0568  0.6914 -0.6597
   65MOL    C1843666   3.694   4.005   4.481 -0.0210 -0.1931  0.2144
   65MOL    C1943667   3.607   3.906   4.442  0.6073 -0.6467 -0.1463
   65MOL    C2043668   3.481   3.877   4.502 -0.6192 -0.1393  0.3019
   65MOL    C2143669   3.160   3.786   4.650 -0.0346 -0.5531  0.0530
   65MOL    C2243670   3.036   3.744   4.594 -0.6201  0.0343  0.2898
   65MOL    H2343671   3.036   3.744   4.225  0.3171  0.3349 -1.0030
   65MOL    H2443672   3.001   3.750   3.984 -0.0504  0.4520  0.7115
   65MOL    H2543673   2.629   3.960   4.056  0.4571 -0.2725 -0.0700
   65MOL    H2643674   2.648   3.899   4.301 -0.1967 -0.3062 -0.2215
   65MOL    H2743675   2.991   4.000   4.372  0.3501 -0.9135 -0.8952
   65MOL    H2843676   3.185   4.086   4.486 -0.7372  0.5697  1.2960
   65MOL    H2943677   3.505   4.123   4.738 -0.8578 -2.1131  2.0649
   65MOL    H3043678   3.736   4.140   4.640 -0.9768  2.1599 -0.9758
   65MOL    H3143679   3.639   3.837   4.365  2.3006  0.3237 -0.3386
   65MOL    H3243680   3.424   3.793   4.466  0.6225 -0.6202 -0.5965
   65MOL    H3343681   3.208   3.729   4.728  1.7816 -1.8785 -1.9906
   65MOL    H3443682   2.980   3.657   4.626  0.2381  0.2601  2.4286
   65MOL    H3543683   2.753   3.966   3.855 -0.3157  0.2309  0.2915
   65MOL    C3643684   4.059   4.279   4.415  0.2054  0.0982  0.1394
   65MOL    C3743685   3.938   4.207   4.381  0.1394 -0.0230 -0.0681
   65MOL    C3843686   3.915   4.083   4.447 -0.2404  0.7811 -0.3430
   65MOL    O3943687   3.806   4.013   4.402 -0.7770 -0.0520  0.4316
   65MOL    C4043688   4.001   4.042   4.557  0.4390  0.5099 -0.1016
   65MOL    C4143689   4.112   4.116   4.589  0.5001 -0.1034  0.7270
   65MOL    C4243690   4.147   4.228   4.515 -0.2918 -0.2119 -0.3074
   65MOL    C4343691   4.278   4.297   4.556 -0.2210 -0.3927  0.0466
   65MOL    O4443692   4.298   4.321   4.675  0.4915 -0.0277  0.0721
   65MOL    C4543693   4.386   4.326   4.460  0.2100 -0.5632 -0.3663
   65MOL    C4643694   4.391   4.256   4.330 -0.4732  0.2760 -0.5478
   65MOL    C4743695   4.485   4.292   4.237 -0.1740  0.2703 -0.0972
   65MOL    C4843696   4.582   4.388   4.267 -0.4922  0.3534  0.7163
   65MOL    O4943697   4.688   4.408   4.179  0.6118  0.4367 -0.0590
   65MOL    C5043698   4.696   4.524   4.112 -0.0307  0.0977 -0.8525
   65MOL    C5143699   4.822   4.552   4.057  0.3103  0.4355  0.0315
   65MOL    C5243700   4.848   4.669   3.989 -0.2269  0.6003 -0.6015
   65MOL    C5343701   4.749   4.771   3.982 -0.4459  0.6355  0.2097
   65MOL    C5443702   4.622   4.746   4.037 -0.7455  0.5998 -0.0851
   65MOL    C5543703   4.598   4.625   4.102  0.5930  0.4244 -0.1307
   65MOL    C5643704   4.585   4.449   4.394 -0.1532  0.6544  0.4539
   65MOL    C5743705   4.485   4.420   4.493  0.3044  0.6241  0.3657
   65MOL    H5843706   4.074   4.374   4.366 -0.8285  0.0029 -0.3929
   65MOL    H5943707   3.866   4.247   4.312 -1.4499 -0.3500  1.3707
   65MOL    H6043708   3.983   3.952   4.616  1.6828  1.4026  1.6830
   65MOL    H6143709   4.178   4.086   4.669  1.2133 -1.1016 -0.2202
   65MOL    H6243710   4.326   4.174   4.304  0.7542 -0.7231 -0.4916
   65MOL    H6343711   4.489   4.244   4.140  1.6657  3.0378 -1.4669
   65MOL    H6443712   4.897   4.474   4.066  0.1557  0.2385 -0.3524
   65MOL    H6543713   4.941   4.684   3.937  0.3722 -1.0682 -0.0518
   65MOL    H6643714   4.540   4.815   4.024 -2.4080 -1.2473  0.3015
   65MOL    H6743715   4.497   4.603   4.132  1.2580  0.2874  2.0730
   65MOL    H6843716   4.667   4.516   4.415 -1.1157  2.0338 -0.1052
   65MOL    H6943717   4.491   4.464   4.592  3.0420  0.2880  0.3827
   65MOL    C7043718   4.790   4.767   3.543  0.0896 -0.0025 -0.1974
   65MOL    C7143719   4.824   4.782   3.677 -0.4240 -0.6180 -0.5160
   65MOL    C7243720   4.739   4.861   3.764 -0.0004  0.5204 -0.1940
   65MOL    O7343721   4.770   4.877   3.895 -0.0299  0.8381 -0.2826
   65MOL    C7443722   4.624   4.920   3.707  0.3566 -0.5411  0.0258
   65MOL    C7543723   4.598   4.903   3.569 -0.3066 -0.1840  0.2521
   65MOL    C7643724   4.681   4.824   3.482 -0.0463 -0.0552 -0.2812
   65MOL    C7743725   4.650   4.818   3.340  0.5759  0.4924 -0.0810
   65MOL    O7843726   4.603   4.713   3.282 -0.0300  0.2291 -0.7302
   65MOL    C7943727   4.694   4.925   3.247  0.4003 -0.4248  0.6234
   65MOL    C8043728   4.619   4.950   3.135  0.3069  0.0866 -0.0675
   65MOL    C8143729   4.673   5.034   3.033  0.0505  0.0340 -0.5105
   65MOL    C8243730   4.811   5.089   3.041 -0.3674  0.3222 -0.2843
   65MOL    O8343731   4.864   5.171   2.948 -0.1276 -0.3172 -0.3074
   65MOL    C8443732   4.789   5.270   2.896 -0.3279 -0.5666  0.1362
   65MOL    C8543733   4.732   5.370   2.979  1.0332  0.0128  0.1013
   65MOL    C8643734   4.639   5.462   2.916 -0.1330 -0.4278  0.2024
   65MOL    C8743735   4.624   5.470   2.774  0.0098  0.5921  0.6888
   65MOL    C8843736   4.684   5.375   2.692 -0.1692  0.4337 -0.0909
   65MOL    C8943737   4.771   5.278   2.754  1.0372  0.5727  0.2140
   65MOL    C9043738   4.884   5.065   3.159  0.2478  0.0564 -0.5782
   65MOL    C9143739   4.820   4.988   3.259  1.1078  0.5515  0.0181
   65MOL    H9243740   4.860   4.702   3.491 -1.6671 -0.7677 -1.6631
   65MOL    H9343741   4.916   4.739   3.714 -0.9880  0.5438  2.3548
   65MOL    H9443742   4.543   4.965   3.764 -1.3393 -0.5313 -2.2959
   65MOL    H9543743   4.506   4.944   3.529  0.4069  3.1826  1.8283
   65MOL    H9643744   4.532   4.889   3.115 -0.8673  1.5026  0.6542
   65MOL    H9743745   4.606   5.049   2.949 -0.2670  1.0718 -0.0723
   65MOL    H9843746   4.763   5.372   3.082 -1.0727 -0.3556  0.7700
   65MOL    H9943747   4.579   5.524   2.981 -1.6462 -2.5222  0.8541
   65MOL   H10043748   4.680   5.380   2.584  1.3012 -0.5559 -0.2152
   65MOL   H10143749   4.817   5.206   2.687 -0.2730 -1.0963  1.0691
   65MOL   H10243750   4.980   5.109   3.182 -1.4941  1.9974  3.4289
   65MOL   H10343751   4.872   4.955   3.347  2.2261  0.7965 -0.5435
   65MOL   C10443752   4.467   5.737   2.410  0.1604 -0.2771  0.4055
   65MOL   C10543753   4.458   5.654   2.522  0.2409 -0.1393 -0.4114
   65MOL   C10643754   4.567   5.636   2.608  0.2131 -0.5213  0.0233
   65MOL   O10743755   4.539   5.564   2.725 -0.3067 -0.0073  0.0968
   65MOL   C10843756   4.692   5.689   2.576  0.1838  0.7175  0.0821
   65MOL   C10943757   4.709   5.763   2.457 -0.3684 -0.3906  0.0905
   65MOL   C11043758   4.595   5.793   2.381  0.7751 -0.3083  0.1224
   65MOL   C11143759   4.616   5.871   2.262 -0.1381  0.8667  0.2222
   65MOL   O11243760   4.705   5.835   2.178  0.2867  0.8289 -0.2176
   65MOL   C11343761   4.559   6.008   2.256  0.3736 -0.5172  0.2759
   65MOL   C11443762   4.555   6.074   2.129 -0.0479 -0.3601 -0.0025
   65MOL   C11543763   4.525   6.208   2.116  0.6890 -0.2639 -0.5482
   65MOL   C11643764   4.499   6.290   2.228 -0.5513 -0.2336 -0.1534
   65MOL   O11743765   4.474   6.423   2.221 -0.3078  0.6193  0.5577
   65MOL   C11843766   4.517   6.498   2.113 -0.0194 -0.3254 -0.2988
   65MOL   C11943767   4.654   6.516   2.091  0.0594  0.0485 -0.0486
   65MOL   C12043768   4.699   6.589   1.981 -0.0035  0.4710 -0.7275
   65MOL   C12143769   4.619   6.646   1.889  0.5553 -0.1251  0.4139
   65MOL   C12243770   4.477   6.638   1.911  0.9712  0.0711 -0.2508
   65MOL   C12343771   4.427   6.556   2.022  0.2248  0.1567  0.6994
   65MOL   C12443772   4.490   6.223   2.353  0.0571 -0.3646  0.3830
   65MOL   C12543773   4.522   6.091   2.366  0.1071 -0.3749 -0.1968
   65MOL   H12643774   4.379   5.749   2.349  0.7567 -1.3398 -0.6779
   65MOL   H12743775   4.368   5.599   2.542  0.2947  0.0209  0.2791
   65MOL   H12843776   4.776   5.654   2.634  0.4745  0.7225 -0.3408
   65MOL   H12943777   4.811   5.791   2.436 -0.5985 -0.2566 -0.8612
   65MOL   H13043778   4.581   6.014   2.043 -3.1611  0.2164 -1.4246
   65MOL   H13143779   4.537   6.253   2.018  1.8890  0.9401  0.1226
   65MOL   H13243780   4.726   6.473   2.160 -1.2219 -2.5711 -0.2699
   65MOL   H13343781   4.806   6.590   1.967  0.0143 -0.5259 -0.7243
   65MOL   H13443782   4.414   6.689   1.840 -0.6010 -3.3203 -1.4472
   65MOL   H13543783   4.322   6.537   2.035  0.0014  0.8477 -0.0875
   65MOL   H13643784   4.467   6.274   2.445  0.4229  0.1679  0.1871
   65MOL   H13743785   4.534   6.036   2.459 -1.5799  1.5138  1.1882
   65MOL   C13843786   4.987   6.739   1.605 -0.6185  0.8406 -0.3116
   65MOL   C13943787   4.880   6.770   1.698  0.5678 -0.5648  0.7388
   65MOL   C14043788   4.771   6.678   1.698 -0.5478 -0.6257  0.1586
   65MOL   O14143789   4.659   6.711   1.773  0.1792  0.1691 -0.8556
   65MOL   C14243790   4.764   6.574   1.604 -0.9700  0.5907 -0.3578
   65MOL   C14343791   4.869   6.544   1.517 -0.0932 -0.4693 -0.1624
   65MOL   C14443792   4.984   6.627   1.518  0.0953 -1.1795  0.7634
   65MOL   C14543793   5.105   6.591   1.444 -0.4556 -0.0504 -0.8472
   65MOL   O14643794   5.215   6.644   1.464 -0.3009 -0.1646  0.1008
   65MOL   C14743795   5.097   6.462   1.364 -0.2860 -0.3302 -0.3712
   65MOL   C14843796   5.044   6.465   1.231  0.5640 -0.5213 -0.6944
   65MOL   C14943797   5.052   6.353   1.144  0.0731  0.5486  0.0334
   65MOL   C15043798   5.126   6.246   1.190 -0.0330 -0.1444  0.4935
   65MOL   O15143799   5.148   6.139   1.109 -0.1621 -0.3957  0.4677
   65MOL   C15243800   5.278   6.136   1.056 -0.1796 -0.4001  0.4360
   65MOL   C15343801   5.319   6.236   0.961  0.5873 -0.0212 -0.3146
   65MOL   C15443802   5.444   6.232   0.902  0.3011  0.1850  0.1346
   65MOL   C15543803   5.536   6.130   0.937  0.8516  0.4786  0.1547
   65MOL   C15643804   5.491   6.032   1.030  0.2651  0.0965 -0.0224
   65MOL   C15743805   5.366   6.037   1.096 -0.6953  0.2629  0.5004
   65MOL   C15843806   5.176   6.240   1.322  0.6322 -0.5627  0.0959
   65MOL   C15943807   5.159   6.342   1.411 -0.2005  0.3043  0.2756
   65MOL   H16043808   5.073   6.804   1.603  0.6650 -0.8397 -0.7514
   65MOL   H16143809   4.888   6.854   1.766  3.1541 -0.2672  0.1058
   65MOL   H16243810   4.683   6.502   1.600 -0.8575  0.4610 -0.2528
   65MOL   H16343811   4.876   6.449   1.465 -0.5184  0.8964 -2.7952
   65MOL   H16443812   4.991   6.555   1.203 -2.3353 -0.8500  3.2636
   65MOL   H16543813   5.016   6.347   1.042 -0.4502  0.6528  0.2139
   65MOL   H16643814   5.248   6.314   0.935  1.3091  0.9031  0.4607
   65MOL   H16743815   5.474   6.301   0.825 -0.8799  0.9105  0.3157
   65MOL   H16843816   5.566   5.959   1.057  1.2157  1.1990  0.3687
   65MOL   H16943817   5.330   5.961   1.163 -0.4931  0.9497  1.3928
   65MOL   H17043818   5.227   6.155   1.365  1.1932  0.2484  1.0756
   65MOL   H17143819   5.195   6.337   1.512 -0.2189  0.8227  0.3103
   65MOL   C17243820   5.863   6.383   1.042  0.2937  0.1977 -0.1440
   65MOL   C17343821   5.773   6.278   1.025  0.7447  0.0225  0.3375
   65MOL   C17443822   5.744   6.235   0.894  0.7974  0.1252 -0.3513
   65MOL   O17543823   5.658   6.127   0.874 -0.0545  0.2474 -0.1462
   65MOL   C17643824   5.810   6.293   0.786 -0.0861 -0.2008 -0.0563
   65MOL   C17743825   5.909   6.393   0.805  0.1853 -0.8115  0.3957
   65MOL   C17843826   5.932   6.443   0.934 -0.0559  0.3634  0.5219
   65MOL   C17943827   6.030   6.557   0.933 -0.0428 -0.5032 -0.7274
   65MOL   O18043828   6.124   6.574   0.853  0.2007 -0.1422 -0.6167
   65MOL   C18143829   5.985   6.651   1.041 -0.5221 -0.9239  0.1885
   65MOL   C18243830   5.917   6.773   1.011  0.1393 -0.0086  0.3196
   65MOL   C18343831   5.896   6.865   1.115 -0.3716  0.4728  0.6540
   65MOL   C18443832   5.956   6.843   1.243 -0.6390 -0.4454  0.8869
   65MOL   O18543833   5.953   6.935   1.339 -0.1451  0.2484 -0.1305
   65MOL   C18643834   5.826   6.965   1.388 -0.4378  0.2436 -0.0127
   65MOL   C18743835   5.756   7.073   1.333  0.2587 -0.4516 -0.4801
   65MOL   C18843836   5.633   7.113   1.395 -0.0516 -0.1325 -0.4227
   65MOL   C18943837   5.572   7.039   1.501 -0.7260  0.6794 -0.2973
   65MOL   C19043838   5.643   6.931   1.551  0.4002  1.1942  0.1848
   65MOL   C19143839   5.768   6.893   1.503  0.6513 -0.4499  0.9113
   65MOL   C19243840   6.020   6.725   1.271 -0.2146  0.3027  0.6968
   65MOL   C19343841   6.032   6.627   1.172 -0.6434 -0.1575 -0.2487
   65MOL   H19443842   5.878   6.409   1.146 -4.5832  0.8696  0.4915
   65MOL   H19543843   5.734   6.240   1.118  2.3070  1.7577  1.7523
   65MOL   H19643844   5.782   6.250   0.691  2.7262 -0.6769 -0.7245
   65MOL   H19743845   5.957   6.435   0.718 -0.9215 -0.3366  0.0026
   65MOL   H19843846   5.886   6.795   0.910  0.8646 -1.6937 -0.2834
   65MOL   H19943847   5.857   6.965   1.100 -2.1587 -0.0433  1.7554
   65MOL   H20043848   5.801   7.127   1.251  0.0745 -0.9362 -0.9066
   65MOL   H20143849   5.578   7.200   1.362 -0.0121 -0.3234 -1.0105
   65MOL   H20243850   5.603   6.870   1.630  1.0123 -2.3285 -2.0733
   65MOL   H20343851   5.824   6.814   1.551 -0.1790 -1.1350  0.7607
   65MOL   H20443852   6.046   6.702   1.373 -2.1277 -0.8503  0.9436
   65MOL   H20543853   6.091   6.540   1.197 -1.7269 -0.3608  1.6248
   65MOL   C20643854   5.171   7.177   1.317 -0.3938  0.8253 -0.1710
   65MOL   C20743855   5.265   7.176   1.415 -0.5341 -0.4243 -0.0333
   65MOL   C20843856   5.341   7.058   1.448  0.5099 -0.6736 -0.4462
   65MOL   O20943857   5.443   7.067   1.542  0.1019  0.5191  0.0791
   65MOL   C21043858   5.307   6.935   1.381  0.1880  0.5507  0.3345
   65MOL   C21143859   5.215   6.930   1.277 -0.9079  0.5722  0.0230
   65MOL   C21243860   5.154   7.052   1.245  0.9534  0.2309  0.2354
   65MOL   C21343861   5.060   7.059   1.127  0.2402  0.0393  0.1748
   65MOL   O21443862   5.057   7.155   1.054 -0.5994 -0.3833  0.4246
   65MOL   C21543863   4.960   6.943   1.110 -0.7118 -0.5729  0.2007
   65MOL   C21643864   4.927   6.905   0.979 -0.1783  0.7726 -0.2010
   65MOL   C21743865   4.828   6.805   0.958 -0.2505 -0.0784 -0.0196
   65MOL   C21843866   4.765   6.742   1.068  0.0664 -1.2250  0.5027
   65MOL   O21943867   4.660   6.655   1.050 -0.1634 -0.2364  0.6749
   65MOL   C22043868   4.649   6.541   1.125 -0.5107  0.5978 -0.6539
   65MOL   C22143869   4.721   6.418   1.090 -0.0357  0.8350 -0.0272
   65MOL   C22243870   4.703   6.308   1.176 -0.3320 -0.2191 -0.8196
   65MOL   C22343871   4.627   6.315   1.294 -0.4875  0.7595  0.4336
   65MOL   C22443872   4.557   6.431   1.328  0.5409  0.0847  0.1983
   65MOL   C22543873   4.566   6.534   1.242  0.1903  0.1041  0.4618
   65MOL   C22643874   4.804   6.774   1.202 -0.3029  0.0337  0.3970
   65MOL   C22743875   4.904   6.871   1.223 -0.0910  0.1147  0.3065
   65MOL   H22843876   5.123   7.268   1.282 -3.1947 -1.4876 -2.6059
   65MOL   H22943877   5.288   7.269   1.465 -0.2231  0.1860 -1.2893
   65MOL   H23043878   5.369   6.851   1.408  0.5293 -0.2920 -2.9151
   65MOL   H23143879   5.198   6.845   1.213  1.6976  0.1432 -0.1165
   65MOL   H23243880   4.985   6.958   0.905  0.6569 -1.1784 -0.9789
   65MOL   H23343881   4.799   6.783   0.856  0.9650  0.6928 -0.5377
   65MOL   H23443882   4.770   6.407   0.994 -0.1102 -1.1496  0.1408
   65MOL   H23543883   4.762   6.218   1.162 -0.5545 -0.1923 -2.0463
   65MOL   H23643884   4.501   6.430   1.421 -1.0486  0.4540 -0.7472
   65MOL   H23743885   4.503   6.613   1.279  0.5505  0.4169  0.4201
   65MOL   H23843886   4.747   6.730   1.282 -2.6514  1.1670 -0.5986
   65MOL   H23943887   4.915   6.908   1.324  0.5204 -1.2793  0.7554
   65MOL   C24043888   4.678   6.177   1.735 -0.1166  0.0320 -0.3548
   65MOL   C24143889   4.609   6.189   1.611 -0.9746 -0.7201  0.6529
   65MOL   C24243890   4.682   6.194   1.489  0.2889 -0.8716 -0.2731
   65MOL   O24343891   4.613   6.200   1.373 -0.2693  0.0239 -0.3330
   65MOL   C24443892   4.830   6.176   1.488  0.1669 -0.2038  0.1755
   65MOL   C24543893   4.893   6.153   1.615  0.0285 -0.3489  0.1017
   65MOL   C24643894   4.815   6.148   1.736  0.2103 -0.2881  0.2197
   65MOL   C24743895   4.888   6.146   1.865 -0.0053  0.6035 -0.2938
   65MOL   O24843896   4.882   6.042   1.935  0.2295 -0.0111 -0.1931
   65MOL   C24943897   4.980   6.254   1.895 -0.2644  0.0786 -0.6251
   65MOL   C25043898   5.062   6.240   2.008 -1.0396 -0.1275 -0.8488
   65MOL   C25143899   5.158   6.339   2.035 -0.5657  0.2469  0.7373
   65MOL   C25243900   5.160   6.461   1.958 -0.0522 -0.1306  0.1012
   65MOL   O25343901   5.240   6.562   1.991 -1.0033 -0.1222  0.3592
   65MOL   C25443902   5.225   6.614   2.123  0.6484  0.4770  1.0969
   65MOL   C25543903   5.334   6.613   2.210 -0.3052 -0.0256 -0.1621
   65MOL   C25643904   5.335   6.677   2.336 -0.6699  0.1130 -0.1467
   65MOL   C25743905   5.212   6.724   2.380 -0.6877 -0.1111  0.3162
   65MOL   C25843906   5.098   6.730   2.291  0.2680  0.6587 -0.2417
   65MOL   C25943907   5.100   6.675   2.160  0.4604 -0.0767  0.1242
   65MOL   C26043908   5.078   6.477   1.848 -0.0256 -0.1813 -0.6750
   65MOL   C26143909   4.988   6.375   1.819 -0.0544 -0.9448 -0.8682
   65MOL   H26243910   4.615   6.182   1.823 -0.1591 -1.8776 -0.2408
   65MOL   H26343911   4.504   6.214   1.613 -1.1805 -1.4527 -0.4984
   65MOL   H26443912   4.882   6.188   1.394  0.0566  0.5368  0.2057
   65MOL   H26543913   5.000   6.157   1.628 -0.2721  1.1146  2.3626
   65MOL   H26643914   5.053   6.153   2.071 -1.3191  0.5625  0.0710
   65MOL   H26743915   5.225   6.316   2.117 -2.5740  0.9864  2.6464
   65MOL   H26843916   5.431   6.574   2.184 -0.7041 -0.0117 -1.6959
   65MOL   H26943917   5.423   6.689   2.398  0.6296 -1.1432 -1.7079
   65MOL   H27043918   5.011   6.783   2.327 -0.0351 -0.5745  0.8848
   65MOL   H27143919   5.014   6.680   2.095  1.1627 -0.0514 -0.8163
   65MOL   H27243920   5.078   6.570   1.793  0.3678  0.6823  0.7552
   65MOL   H27343921   4.912   6.393   1.744 -0.8570  1.7520  0.5403
   65MOL   C27443922   5.133   6.539   2.764 -0.2070 -0.1118 -0.2485
   65MOL   C27543923   5.200   6.602   2.659 -0.2573  0.3204 -0.6187
   65MOL   C27643924   5.143   6.719   2.603  0.0311  0.0846  0.0230
   65MOL   O27743925   5.209   6.785   2.505 -0.4101 -0.3099  0.0347
   65MOL   C27843926   5.028   6.782   2.653  0.0394  0.0214 -0.2470
   65MOL   C27943927   4.961   6.714   2.754  0.2933  0.0346 -0.0267
   65MOL   C28043928   5.010   6.583   2.807  1.4098  0.0178 -0.1530
   65MOL   C28143929   4.933   6.519   2.916  0.2123  0.3557  0.4376
   65MOL   O28243930   4.898   6.572   3.023  0.7199 -0.2098 -0.8387
   65MOL   C28343931   4.896   6.378   2.894  0.2503 -0.2813  1.3338
   65MOL   C28443932   4.903   6.286   3.000 -0.0517 -0.5459  0.5738
   65MOL   C28543933   4.877   6.149   2.982  0.2544 -0.0523  0.1728
   65MOL   C28643934   4.833   6.111   2.854 -0.3903  0.6969 -0.4229
   65MOL   O28743935   4.803   5.979   2.827  0.7072  0.3338 -0.6973
   65MOL   C28843936   4.904   5.897   2.809 -0.2491 -0.3125 -0.1881
   65MOL   C28943937   4.921   5.789   2.902  0.2242  0.1495  0.3283
   65MOL   C29043938   5.005   5.678   2.878  0.0318  0.3652  0.1577
   65MOL   C29143939   5.094   5.686   2.767  0.5779 -0.2481  0.2963
   65MOL   C29243940   5.092   5.801   2.681 -0.4551 -0.0247 -0.4428
   65MOL   C29343941   4.994   5.906   2.697  0.1754 -0.2488 -0.1751
   65MOL   C29443942   4.807   6.204   2.749 -0.5006  0.7159  0.3220
   65MOL   C29543943   4.844   6.339   2.766  0.0455  0.2270 -0.2048
   65MOL   H29643944   5.180   6.449   2.799  2.1250  0.3839 -1.9224
   65MOL   H29743945   5.297   6.564   2.632  0.1767  0.4646  0.7102
   65MOL   H29843946   5.000   6.880   2.618 -0.3252  0.5817  1.5581
   65MOL   H29943947   4.876   6.759   2.803  0.3836 -0.2618  0.4034
   65MOL   H30043948   4.939   6.324   3.095 -0.1306 -0.8559  0.7271
   65MOL   H30143949   4.887   6.069   3.054 -1.0588 -0.8832 -0.5519
   65MOL   H30243950   4.840   5.764   2.970 -0.1924  0.4229 -0.0626
   65MOL   H30343951   5.008   5.587   2.937 -0.3033 -1.3795 -2.4280
   65MOL   H30443952   5.168   5.811   2.605 -0.2178 -0.5493 -0.2737
   65MOL   H30543953   4.990   5.991   2.630 -0.2638  0.7240  1.0623
   65MOL   H30643954   4.776   6.162   2.655  0.6059 -1.0622  0.7290
   65MOL   H30743955   4.849   6.410   2.684  0.5096  0.6265  0.1688
   65MOL   C30843956   5.033   5.360   2.504  0.0491 -0.2102 -0.3379
   65MOL   C30943957   5.048   5.434   2.625  0.0755  0.8764 -1.1883
   65MOL   C31043958   5.163   5.516   2.635  0.3611 -0.1548 -0.5008
   65MOL   O31143959   5.188   5.585   2.749  0.2385  0.2563 -0.2483
   65MOL   C31243960   5.256   5.531   2.531  0.3261 -0.0154  0.1836
   65MOL   C31343961   5.230   5.461   2.408 -0.8332 -0.2917 -0.2448
   65MOL   C31443962   5.120   5.377   2.391 -0.1487  0.0424  0.5790
   65MOL   C31543963   5.105   5.306   2.267  0.1071 -0.7575 -0.2693
   65MOL   O31643964   5.196   5.257   2.213  0.0904  0.5965  0.4348
   65MOL   C31743965   4.977   5.315   2.196  0.5481 -0.6516  0.0702
   65MOL   C31843966   4.939   5.227   2.095 -0.9798 -0.0725 -0.5697
   65MOL   C31943967   4.834   5.254   2.004  0.3220 -0.1191 -0.2097
   65MOL   C32043968   4.747   5.354   2.034  0.3426 -0.5453  0.2449
   65MOL   O32143969   4.645   5.380   1.943  0.0134 -0.5143  0.1031
   65MOL   C32243970   4.651   5.497   1.872  0.0589  0.2964 -0.0575
   65MOL   C32343971   4.639   5.629   1.928 -0.7025  0.1204  0.1956
   65MOL   C32443972   4.658   5.743   1.847  0.9255  0.7442  0.2455
   65MOL   C32543973   4.673   5.725   1.707 -0.3056 -0.8512 -0.1200
   65MOL   C32643974   4.670   5.594   1.654 -0.5493  0.1055 -0.4293
   65MOL   C32743975   4.666   5.477   1.733  0.2279  0.3249  0.2259
   65MOL   C32843976   4.773   5.438   2.145 -0.2720  0.3450 -0.9098
   65MOL   C32943977   4.886   5.419   2.226  0.9862 -0.3094  0.2189
   65MOL   H33043978   4.955   5.285   2.501 -0.1859  0.0601 -0.9092
   65MOL   H33143979   4.975   5.419   2.703  2.6025 -1.4098  0.8560
   65MOL   H33243980   5.339   5.599   2.521  2.1069 -2.3028 -1.0462
   65MOL   H33343981   5.294   5.472   2.321 -2.2871  1.5646 -1.1224
   65MOL   H33443982   5.014   5.154   2.072  0.4228  1.0552  0.3352
   65MOL   H33543983   4.823   5.190   1.917 -1.0839 -0.8319  0.4741
   65MOL   H33643984   4.625   5.644   2.034 -3.6906  3.2308 -0.5466
   65MOL   H33743985   4.658   5.841   1.892  3.2495  0.1361  1.6353
   65MOL   H33843986   4.674   5.578   1.547 -0.7372 -1.8654 -0.1560
   65MOL   H33943987   4.676   5.385   1.678  1.8741  2.0155 -2.3846
   65MOL   H34043988   4.699   5.510   2.177  1.6019  2.9863 -2.3734
   65MOL   H34143989   4.901   5.482   2.312 -0.2754  0.6158 -0.2360
   65MOL   C34243990   5.007   5.835   1.426  0.1561 -0.1513  0.8235
   65MOL   C34343991   4.921   5.851   1.536 -0.3095  0.0508  0.3277
   65MOL   C34443992   4.784   5.826   1.525 -0.6497 -1.0231  0.3596
   65MOL   O34543993   4.698   5.838   1.635 -0.0704  0.1966  0.1021
   65MOL   C34643994   4.734   5.811   1.393  0.0932  0.0595  0.2495
   65MOL   C34743995   4.819   5.806   1.278  0.3385 -1.1023  0.2281
   65MOL   C34843996   4.957   5.814   1.294 -0.9494 -0.0942 -0.6366
   65MOL   C34943997   5.054   5.802   1.178 -0.2642 -0.4520  0.4988
   65MOL   O35043998   5.162   5.749   1.195 -0.3030 -0.7320 -0.3165
   65MOL   C35143999   5.022   5.852   1.044 -0.0277 -0.3139 -0.4089
   65MOL   C35244000   5.098   5.803   0.935 -0.1963 -0.1615 -0.8820
   65MOL   C35344001   5.072   5.852   0.801 -0.5245 -0.2354  0.7004
   65MOL   C35444002   4.971   5.948   0.781  0.1759  0.2737 -0.7469
   65MOL   O35544003   4.933   5.983   0.654 -0.1936 -0.0014  0.8885
   65MOL   C35644004   5.040   6.022   0.573 -0.0619  0.1121  0.0548
   65MOL   C35744005   5.026   6.010   0.431  0.4432 -0.2269 -0.5592
   65MOL   C35844006   5.125   6.062   0.350 -0.2730 -0.3609 -0.2907
   65MOL   C35944007   5.232   6.135   0.401  0.2289 -0.2842 -0.7892
   65MOL   C36044008   5.244   6.145   0.539 -0.3916 -0.2393 -0.5097
   65MOL   C36144009   5.150   6.090   0.624 -0.0630 -0.4997 -0.2905
   65MOL   C36244010   4.902   6.007   0.888 -0.3324 -0.2001 -0.8337
   65MOL   C36344011   4.925   5.955   1.014 -0.0031 -0.6851 -0.1258
   65MOL   H36444012   5.113   5.850   1.440  0.5185 -0.2640 -1.6604
   65MOL   H36544013   4.971   5.863   1.631  1.2356 -1.4982 -0.2522
   65MOL   H36644014   4.626   5.804   1.387  0.0838 -0.2550  0.7839
   65MOL   H36744015   4.769   5.800   1.182  0.1734 -0.2315  0.2564
   65MOL   H36844016   5.182   5.737   0.954  0.8678  1.3856 -0.0964
   65MOL   H36944017   5.130   5.809   0.720  0.4599  0.5749  0.9720
   65MOL   H37044018   4.938   5.966   0.387 -0.5851  0.4261  0.7971
   65MOL   H37144019   5.106   6.057   0.244 -1.2622  3.6262 -0.3861
   65MOL   H37244020   5.332   6.194   0.578 -0.7462 -0.6256  0.7797
   65MOL   H37344021   5.159   6.106   0.730  0.7487 -0.3073 -0.3864
   65MOL   H37444022   4.818   6.071   0.863 -1.7032 -1.5734  0.1337
   65MOL   H37544023   4.869   5.989   1.100 -1.5121  2.2899 -2.1879
   65MOL   C37644024   5.530   5.883   0.220 -0.1211  0.1827  0.1135
   65MOL   C37744025   5.461   5.982   0.294 -0.4772  0.1174  0.0867
   65MOL   C37844026   5.393   6.086   0.235 -0.3067 -0.6095 -0.4696
   65MOL   O37944027   5.320   6.183   0.310 -0.4148  0.0786  0.2311
   65MOL   C38044028   5.423   6.103   0.098  0.2396  0.2030  0.1947
   65MOL   C38144029   5.497   6.012   0.020 -0.4049 -0.4944 -0.2484
   65MOL   C38244030   5.552   5.898   0.085 -0.2820 -0.2270 -0.0041
   65MOL   C38344031   5.641   5.801   0.013  0.4703 -0.1166 -0.4805
   65MOL   O38444032   5.657   5.799   8.206 -0.3115  0.0502  0.2403
   65MOL   C38544033   5.722   5.710   0.097  0.8714 -0.2795 -0.1475
   65MOL   C38644034   5.803   5.757   0.207  0.3816 -1.3332 -0.7940
   65MOL   C38744035   5.863   5.661   0.289 -0.3559  0.5111 -0.2519
   65MOL   C38844036   5.832   5.523   0.278 -0.0830  0.1264  0.1457
   65MOL   O38944037   5.885   5.425   0.359 -0.0726  0.5970  0.6909
   65MOL   C39044038   5.873   5.445   0.495 -0.2319 -0.4159 -0.2730
   65MOL   C39144039   5.989   5.469   0.573 -0.2032 -0.0667  0.0121
   65MOL   C39244040   5.996   5.493   0.709 -0.4720  0.6891  0.2207
   65MOL   C39344041   5.876   5.500   0.778  0.8278  0.3529  1.0481
   65MOL   C39444042   5.754   5.490   0.702  0.4916 -0.0735  0.2828
   65MOL   C39544043   5.752   5.463   0.561  0.2978  0.1306 -0.2659
   65MOL   C39644044   5.761   5.479   0.164 -0.3382 -0.0082  0.8022
   65MOL   C39744045   5.707   5.571   0.072 -0.5544 -0.2084  0.2164
   65MOL   H39844046   5.566   5.801   0.280 -0.4567 -1.4634 -1.8905
   65MOL   H39944047   5.443   5.988   0.400  1.7116  0.5339  0.4678
   65MOL   H40044048   5.392   6.191   0.043 -0.8442  1.7240  3.0899
   65MOL   H40144049   5.514   6.029   8.227 -2.0020 -0.3745 -0.5087
   65MOL   H40244050   5.823   5.863   0.209 -0.8354 -1.1122  1.6769
   65MOL   H40344051   5.931   5.696   0.365  0.5986 -0.9007 -0.4211
   65MOL   H40444052   6.087   5.470   0.527  0.1288 -1.3119  0.6672
   65MOL   H40544053   6.086   5.524   0.760 -2.1524  2.2840  2.2725
   65MOL   H40644054   5.660   5.527   0.740  0.0666 -0.3366 -0.4911
   65MOL   H40744055   5.664   5.476   0.499 -0.1613  1.6986  0.6743
   65MOL   H40844056   5.748   5.372   0.154 -2.0739  0.3211 -0.7389
   65MOL   H40944057   5.651   5.537   8.299  1.9826 -1.7394 -0.8915
   65MOL   C41044058   6.011   5.835   1.019  0.1930 -0.9697 -0.0894
   65MOL   C41144059   5.921   5.748   0.956 -0.8698 -0.0479  0.3503
   65MOL   C41244060   5.940   5.609   0.976  0.2321  0.3748 -0.7990
   65MOL   O41344061   5.859   5.522   0.913  0.4415 -0.2592 -0.0001
   65MOL   C41444062   6.036   5.557   1.068  1.3688 -0.4580  0.0496
   65MOL   C41544063   6.125   5.644   1.132 -0.0680 -0.1772  0.2022
   65MOL   C41644064   6.112   5.781   1.106 -0.0021  0.2583 -0.8789
   65MOL   C41744065   6.198   5.866   1.191 -0.1990  0.2327  0.1094
   65MOL   O41844066   6.312   5.831   1.217 -0.0327  0.0916  0.1034
   65MOL   C41944067   6.138   5.981   1.255  0.4830  0.0720  0.6030
   65MOL   C42044068   6.217   6.088   1.286 -0.2857  0.8541  0.1036
   65MOL   C42144069   6.158   6.199   1.341 -0.2570  0.1791  0.3679
   65MOL   C42244070   6.025   6.208   1.375 -0.4730 -0.3177  0.6668
   65MOL   O42344071   5.964   6.320   1.411  0.0974  0.2278 -0.2355
   65MOL   C42444072   5.996   6.380   1.529 -0.1760 -0.8819 -0.0956
   65MOL   C42544073   6.094   6.484   1.526 -0.2745 -0.2882  0.0337
   65MOL   C42644074   6.136   6.561   1.638  0.2687 -0.2357  0.4437
   65MOL   C42744075   6.064   6.537   1.758  0.2211 -0.4612  0.3377
   65MOL   C42844076   5.968   6.431   1.772  0.2288  0.0380 -0.7323
   65MOL   C42944077   5.939   6.354   1.655  0.3281  0.5144  0.1814
   65MOL   C43044078   5.947   6.098   1.346  0.7718  0.5936 -0.0038
   65MOL   C43144079   6.001   5.983   1.291  0.1160  0.1819  0.1092
   65MOL   H43244080   5.991   5.940   1.003 -1.4080 -1.2203  0.1744
   65MOL   H43344081   5.842   5.784   0.891  1.1177  1.2983 -1.3898
   65MOL   H43444082   6.034   5.449   1.078 -2.2461 -0.4206  0.2686
   65MOL   H43544083   6.190   5.607   1.210  0.8441  1.2417  0.1349
   65MOL   H43644084   6.323   6.085   1.267 -0.4437 -0.7005 -0.5521
   65MOL   H43744085   6.217   6.288   1.358 -1.5341  0.9785  0.6555
   65MOL   H43844086   6.150   6.497   1.435  1.1920 -0.3184  0.9097
   65MOL   H43944087   6.215   6.635   1.638 -0.9401  1.0825  1.1973
   65MOL   H44044088   5.924   6.405   1.867  0.7470 -0.3582 -0.5990
   65MOL   H44144089   5.864   6.278   1.666  0.9870 -0.1325  0.2956
   65MOL   H44244090   5.841   6.106   1.365  0.5861 -1.6678  0.0200
   65MOL   H44344091   5.938   5.897   1.271 -0.6363  0.7862 -0.1233
   65MOL   C44444092   6.405   6.659   2.029  1.0222 -0.2641  0.3489
   65MOL   C44544093   6.289   6.685   1.955  0.3484  1.2961 -1.0588
   65MOL   C44644094   6.186   6.591   1.947 -0.5343  0.7062 -0.2670
   65MOL   O44744095   6.080   6.613   1.871 -0.2990 -0.0702  0.6743
   65MOL   C44844096   6.202   6.467   2.017  0.0641 -0.7839  0.6402
   65MOL   C44944097   6.314   6.445   2.086  0.2759 -0.3936 -1.1948
   65MOL   C45044098   6.424   6.539   2.094  0.4425 -0.0559  0.6670
   65MOL   C45144099   6.552   6.508   2.171  0.9979  0.6443  0.0845
   65MOL   O45244100   6.613   6.602   2.225 -0.4596 -0.2675 -0.1313
   65MOL   C45344101   6.617   6.375   2.151  0.7222  0.1558 -0.4979
   65MOL   C45444102   6.733   6.340   2.225  0.6427  0.2994  0.5237
   65MOL   C45544103   6.797   6.215   2.190 -0.9621 -0.1295  0.6209
   65MOL   C45644104   6.761   6.137   2.080  0.5322  0.1359 -0.0125
   65MOL   O45744105   6.832   6.021   2.052  0.6939  0.5174  0.8553
   65MOL   C45844106   6.888   6.018   1.927 -0.3175  0.2161 -0.4217
   65MOL   C45944107   7.018   6.068   1.891 -0.1296  0.3960 -0.6744
   65MOL   C46044108   7.077   6.054   1.760 -0.0295 -0.2083  0.9766
   65MOL   C46144109   7.004   5.987   1.663 -0.2330 -0.2111 -0.2751
   65MOL   C46244110   6.878   5.932   1.697  0.0823 -0.1851 -0.3728
   65MOL   C46344111   6.825   5.946   1.825 -0.2731  0.0497  0.6211
   65MOL   C46444112   6.655   6.180   2.000 -0.3363  0.7805 -0.2268
   65MOL   C46544113   6.575   6.295   2.039 -0.0415 -0.7828 -0.5496
   65MOL   H46644114   6.491   6.724   2.035  1.0780 -0.2915 -0.0665
   65MOL   H46744115   6.281   6.775   1.896 -1.0581  0.9799 -1.3643
   65MOL   H46844116   6.124   6.393   2.006 -1.5712  1.1790 -1.4662
   65MOL   H46944117   6.338   6.348   2.128  2.8109  0.4458 -0.6202
   65MOL   H47044118   6.764   6.399   2.310 -0.1513 -0.1610  1.1405
   65MOL   H47144119   6.876   6.177   2.254 -1.6361 -0.0014  1.5387
   65MOL   H47244120   7.081   6.112   1.967 -1.5472 -0.7125  1.1681
   65MOL   H47344121   7.175   6.096   1.743  0.3733 -1.2595  0.6819
   65MOL   H47444122   6.821   5.880   1.621 -2.1103 -0.2015  1.2703
   65MOL   H47544123   6.732   5.897   1.851 -0.3698 -0.3761 -0.4941
   65MOL   H47644124   6.631   6.128   1.908 -2.2834  3.1824 -1.1342
   65MOL   H47744125   6.498   6.331   1.972 -0.5934 -1.0970 -0.0912
   65MOL   C47844126   7.356   5.786   1.473  0.2403  0.1401 -0.7645
   65MOL   C47944127   7.268   5.885   1.525 -0.1228 -0.8160 -0.0705
   65MOL   C48044128   7.129   5.875   1.497 -0.2897  0.2814  0.1458
   65MOL   O48144129   7.049   5.980   1.536 -0.1047 -0.9527  0.7840
   65MOL   C48244130   7.074   5.762   1.434  0.2871 -0.4423  0.2665
   65MOL   C48344131   7.164   5.659   1.393 -0.6268  0.2022 -1.0000
   65MOL   C48444132   7.301   5.675   1.408 -0.5990  0.0412  0.2580
   65MOL   C48544133   7.399   5.568   1.353  0.6321 -0.4273 -0.2148
   65MOL   O48644134   7.510   5.595   1.301  0.0793 -0.0387 -0.0578
   65MOL   C48744135   7.348   5.429   1.364 -0.0461  0.2071 -0.9341
   65MOL   C48844136   7.291   5.363   1.258 -0.1300 -0.6657  0.2538
   65MOL   C48944137   7.227   5.237   1.277  0.0011 -0.5735 -0.4564
   65MOL   C49044138   7.226   5.175   1.401 -0.1266 -0.0373 -1.0511
   65MOL   O49144139   7.153   5.060   1.420 -0.1608 -0.4237 -0.4715
   65MOL   C49244140   7.080   5.049   1.532  0.5788 -0.3908 -0.1487
   65MOL   C49344141   6.969   5.131   1.543 -0.5241 -0.1613 -0.7122
   65MOL   C49444142   6.892   5.126   1.661  0.0112  0.4641 -0.3851
   65MOL   C49544143   6.930   5.033   1.770 -0.5645 -0.3950 -0.4422
   65MOL   C49644144   7.036   4.950   1.757  0.4841  0.3612  0.3633
   65MOL   C49744145   7.114   4.964   1.640  0.1522 -0.1999 -0.1082
   65MOL   C49844146   7.282   5.251   1.510 -0.8048  0.2039 -0.3925
   65MOL   C49944147   7.345   5.375   1.494 -0.1742  0.3966  0.4284
   65MOL   H50044148   7.462   5.803   1.488  0.6554 -2.2419 -0.8875
   65MOL   H50144149   7.310   5.976   1.565 -1.8253  1.4179 -3.1634
   65MOL   H50244150   6.967   5.761   1.414  0.1015  0.6646  1.1427
   65MOL   H50344151   7.125   5.570   1.347  0.9991 -0.2055 -1.6318
   65MOL   H50444152   7.299   5.411   1.162  0.6644 -1.7225 -0.2120
   65MOL   H50544153   7.188   5.187   1.190  0.3705 -0.3245 -0.7646
   65MOL   H50644154   6.954   5.208   1.468  1.5855  0.5209 -0.4519
   65MOL   H50744155   6.814   5.200   1.660  0.5354  1.0450 -2.4310
   65MOL   H50844156   7.064   4.881   1.835 -0.1711  0.1388  0.4116
   65MOL   H50944157   7.205   4.906   1.634  0.0754 -0.3493  0.1214
   65MOL   H51044158   7.264   5.219   1.612 -2.0938  0.6695 -0.4611
   65MOL   H51144159   7.384   5.425   1.581 -1.0294 -0.9144  1.5869
   65MOL   C51244160   7.012   5.216   2.148  0.1284 -0.5728 -0.3379
   65MOL   C51344161   6.993   5.119   2.051  0.4548  0.1967 -0.2805
   65MOL   C51444162   6.870   5.113   1.975  0.3691 -0.3794 -0.3774
   65MOL   O51544163   6.846   5.018   1.881  0.1678 -0.0648 -0.0177
   65MOL   C51644164   6.768   5.202   2.008 -0.1753 -0.1811  0.2200
   65MOL   C51744165   6.786   5.309   2.100 -0.2881 -0.1188 -0.1213
   65MOL   C51844166   6.915   5.319   2.168  0.3861 -0.4471  0.4040
   65MOL   C51944167   6.934   5.421   2.278  0.7463  0.4384  0.5650
   65MOL   O52044168   7.043   5.438   2.337  0.1194  0.3134  0.2066
   65MOL   C52144169   6.831   5.522   2.300  0.2076  0.3220 -0.4623
   65MOL   C52244170   6.828   5.639   2.224 -0.2643 -0.0186  0.0520
   65MOL   C52344171   6.730   5.737   2.248  0.7226  0.5062 -0.1111
   65MOL   C52444172   6.638   5.704   2.360 -0.3219  0.4656 -0.2339
   65MOL   O52544173   6.560   5.796   2.419  0.2464 -1.1946 -1.4083
   65MOL   C52644174   6.455   5.850   2.359 -0.2027 -0.4956  0.0044
   65MOL   C52744175   6.470   5.964   2.282 -0.0163  0.5349 -0.2167
   65MOL   C52844176   6.361   6.004   2.210  0.3524 -0.1149 -0.4243
   65MOL   C52944177   6.230   5.949   2.225 -0.3981 -0.0338 -0.4368
   65MOL   C53044178   6.216   5.837   2.312 -0.0310  0.5757  0.2484
   65MOL   C53144179   6.330   5.787   2.376 -0.0402 -0.6692  0.4717
   65MOL   C53244180   6.642   5.585   2.426  0.4705 -0.4341 -0.0250
   65MOL   C53344181   6.741   5.491   2.403  0.1705  0.0590 -0.1234
   65MOL   H53444182   7.103   5.226   2.206  1.1542 -0.6773 -1.8941
   65MOL   H53544183   7.071   5.046   2.039 -0.7590 -1.3536  1.0512
   65MOL   H53644184   6.680   5.204   1.946  1.4430  1.3203 -2.1378
   65MOL   H53744185   6.705   5.380   2.106 -0.5503 -0.3118 -1.2358
   65MOL   H53844186   6.912   5.657   2.158  0.0184 -0.6010  0.2465
   65MOL   H53944187   6.750   5.833   2.204 -0.1761  1.6959  2.0157
   65MOL   H54044188   6.565   6.016   2.278 -0.4186  1.4130  1.1379
   65MOL   H54144189   6.363   6.099   2.160 -0.4780  0.4193  0.5327
   65MOL   H54244190   6.125   5.781   2.330  1.2434 -2.2299 -1.6450
   65MOL   H54344191   6.325   5.693   2.430  1.9721 -0.1900  1.5330
   65MOL   H54444192   6.581   5.565   2.513 -0.8148 -0.2570 -0.8836
   65MOL   H54544193   6.753   5.399   2.458  0.8664 -0.0359 -0.4345
   65MOL   C54644194   6.016   6.043   1.812 -0.2888  0.7863 -0.0375
   65MOL   C54744195   6.067   6.068   1.943 -0.0359  0.6437  0.2133
   65MOL   C54844196   6.096   5.962   2.034 -0.4669 -0.4013  0.0298
   65MOL   O54944197   6.114   5.993   2.162 -0.3228  0.1123 -0.2208
   65MOL   C55044198   6.072   5.830   1.988 -0.4439 -0.0687  0.2897
   65MOL   C55144199   6.027   5.805   1.862 -0.4455 -0.1225  0.6856
   65MOL   C55244200   5.991   5.906   1.774 -0.2167  0.3030  0.4492
   65MOL   C55344201   5.924   5.869   1.642  0.4733  0.3368  0.2395
   65MOL   O55444202   5.836   5.945   1.596 -0.4043  0.4694 -0.2959
   65MOL   C55544203   5.976   5.749   1.564  0.2684  0.9580 -0.5869
   65MOL   C55644204   5.880   5.667   1.502  0.1231 -0.2679  0.7448
   65MOL   C55744205   5.924   5.547   1.439 -0.3051  0.8548  0.0369
   65MOL   C55844206   6.054   5.509   1.433  0.0913  0.2933  0.3647
   65MOL   O55944207   6.096   5.383   1.385  0.2324  0.4205 -0.3579
   65MOL   C56044208   6.060   5.270   1.459 -0.0304  0.1985  0.4937
   65MOL   C56144209   6.122   5.248   1.584  0.2026 -0.3631 -0.1088
   65MOL   C56244210   6.080   5.142   1.669 -0.0848 -0.0060  0.1807
   65MOL   C56344211   5.981   5.055   1.629  0.5824 -0.5157  1.0754
   65MOL   C56444212   5.911   5.082   1.505 -0.1089  0.4143 -0.1807
   65MOL   C56544213   5.950   5.188   1.418 -0.1554  0.2744  0.1339
   65MOL   C56644214   6.148   5.604   1.474  0.1535  0.3423 -0.0170
   65MOL   C56744215   6.109   5.720   1.547  0.5130  0.6759  0.6867
   65MOL   H56844216   5.985   6.119   1.742  0.5528  0.8560 -0.3425
   65MOL   H56944217   6.066   6.170   1.979  0.3329  0.6868  0.1125
   65MOL   H57044218   6.087   5.748   2.057 -3.0307 -1.3735 -0.6362
   65MOL   H57144219   6.004   5.705   1.829  0.8272 -0.2049  0.0307
   65MOL   H57244220   5.777   5.698   1.507  0.1890 -0.1957  1.9650
   65MOL   H57344221   5.861   5.473   1.393  0.8589 -1.0494  1.4433
   65MOL   H57444222   6.183   5.329   1.620 -0.9330 -0.2345  1.5698
   65MOL   H57544223   6.126   5.123   1.765  1.7026 -1.1553 -0.8639
   65MOL   H57644224   5.823   5.027   1.473  0.4401  0.0718 -1.1188
   65MOL   H57744225   5.904   5.200   1.321  0.1020 -1.8743 -0.2916
   65MOL   H57844226   6.255   5.591   1.467 -0.0667 -0.5140 -2.1239
   65MOL   H57944227   6.186   5.789   1.580 -0.4158  0.9934  2.2393
   65MOL   C58044228   6.036   4.638   1.540 -0.4004  0.1563 -0.3459
   65MOL   C58144229   6.017   4.780   1.562  0.0553  0.6581 -0.0002
   65MOL   C58244230   5.949   4.824   1.677  0.1561  0.5317  0.7130
   65MOL   O58344231   5.934   4.958   1.715  0.6539  0.3040  0.1842
   65MOL   C58444232   5.895   4.732   1.762 -0.3243  0.3487  0.1257
   65MOL   C58544233   5.910   4.597   1.735  0.3164  0.3306  0.4214
   65MOL   C58644234   5.987   4.547   1.631 -0.0061  0.8257  0.6352
   65MOL   C58744235   6.016   4.404   1.609 -0.6800  0.9679 -0.9300
   65MOL   O58844236   6.052   4.359   1.504 -0.3797 -0.0578  0.2861
   65MOL   C58944237   6.007   4.323   1.728  0.3376 -0.1199 -0.0353
   65MOL   C59044238   6.101   4.341   1.828 -0.9536  0.1833  0.2062
   65MOL   C59144239   6.113   4.248   1.932  0.0382 -0.0476 -0.0263
   65MOL   C59244240   6.027   4.138   1.945 -0.2274 -0.1437 -0.0502
   65MOL   O59344241   6.031   4.058   2.056 -0.2193  0.6386  0.5841
   65MOL   C59444242   6.069   3.925   2.043 -0.3552  0.0763  0.4225
   65MOL   C59544243   6.202   3.882   2.062 -0.7368 -0.2679  0.0277
   65MOL   C59644244   6.230   3.748   2.057  0.0997  0.9165  0.2293
   65MOL   C59744245   6.130   3.649   2.036 -0.3330 -1.0328 -0.0769
   65MOL   C59844246   5.993   3.690   2.010 -0.2838  0.1834 -0.7447
   65MOL   C59944247   5.966   3.830   2.022  0.5667  0.3054 -0.5554
   65MOL   C60044248   5.929   4.116   1.843  0.2256  0.4379  0.4736
   65MOL   C60144249   5.921   4.211   1.736 -0.7341 -0.2025 -0.3322
   65MOL   H60244250   6.107   4.596   1.470  1.8296  2.0922  0.7061
   65MOL   H60344251   6.068   4.854   1.502  3.1280 -0.0150  1.6943
   65MOL   H60444252   5.836   4.767   1.846  0.2999  1.5720  0.0755
   65MOL   H60544253   5.849   4.527   1.791 -1.7154  0.6178 -1.3752
   65MOL   H60644254   6.176   4.419   1.818 -1.5176  0.7450  0.2877
   65MOL   H60744255   6.188   4.274   2.005  0.7963 -1.0998 -0.4324
   65MOL   H60844256   6.281   3.955   2.076  2.2348 -3.5823  1.2034
   65MOL   H60944257   6.330   3.706   2.063  0.5087  1.4680 -2.2342
   65MOL   H61044258   5.911   3.620   2.013  1.0254 -1.3868 -0.4255
   65MOL   H61144259   5.866   3.867   2.013 -0.3520 -1.8014  0.6353
   65MOL   H61244260   5.856   4.037   1.848  0.2240  0.4916  1.5159
   65MOL   H61344261   5.844   4.195   1.662 -1.8648  0.2261  0.7338
   65MOL   C61444262   6.285   3.394   1.736 -0.6934 -0.1481  0.0439
   65MOL   C61544263   6.198   3.441   1.831  0.1862  0.0945 -0.6483
   65MOL   C61644264   6.247   3.452   1.962 -0.5277 -0.2725 -0.8785
   65MOL   O61744265   6.159   3.516   2.056  0.0508 -0.5011  0.7530
   65MOL   C61844266   6.375   3.401   2.005  0.1122  0.2424 -0.1774
   65MOL   C61944267   6.455   3.345   1.907  0.0872 -0.5484 -0.1845
   65MOL   C62044268   6.416   3.351   1.766 -0.3706  0.3113  0.0728
   65MOL   C62144269   6.517   3.302   1.661 -0.4086 -0.1034  0.1653
   65MOL   O62244270   6.569   3.190   1.687  0.1068  0.2124 -0.5870
   65MOL   C62344271   6.547   3.389   1.547 -0.7433  0.0481 -0.2506
   65MOL   C62444272   6.620   3.343   1.442  0.5316  0.1492 -0.1309
   65MOL   C62544273   6.656   3.420   1.327  0.9290  0.3410  0.1149
   65MOL   C62644274   6.636   3.560   1.334 -0.3757 -0.2829  0.3089
   65MOL   O62744275   6.674   3.649   1.236  0.4594 -0.3469  0.7494
   65MOL   C62844276   6.797   3.651   1.183 -0.7216 -0.1467 -0.1803
   65MOL   C62944277   6.912   3.619   1.263 -0.0663  0.3582 -0.1834
   65MOL   C63044278   7.035   3.613   1.196 -0.2136  0.3588 -0.3622
   65MOL   C63144279   7.047   3.639   1.056  0.3394 -0.4278 -0.4017
   65MOL   C63244280   6.931   3.655   0.977 -0.0155  0.0977 -0.3911
   65MOL   C63344281   6.806   3.662   1.041  0.3328  0.8772  1.1538
   65MOL   C63444282   6.559   3.610   1.443  0.1910  0.2571  0.3102
   65MOL   C63544283   6.516   3.526   1.548  0.8844 -0.4588 -1.2993
   65MOL   H63644284   6.255   3.388   1.633  1.5916 -1.6618 -0.5840
   65MOL   H63744285   6.093   3.458   1.812 -0.2076 -2.7703 -1.2627
   65MOL   H63844286   6.401   3.402   2.110  0.0741 -1.6023 -0.1389
   65MOL   H63944287   6.553   3.309   1.933  0.5991  0.4580 -0.6777
   65MOL   H64044288   6.655   3.241   1.451  0.4307  0.3676  3.2434
   65MOL   H64144289   6.706   3.372   1.244 -0.3765 -2.7601  1.0586
   65MOL   H64244290   6.901   3.606   1.370  2.5441  0.5806  0.1406
   65MOL   H64344291   7.120   3.592   1.258  2.4420  1.0681 -3.6041
   65MOL   H64444292   6.936   3.667   0.870  3.3757  0.3333 -0.2897
   65MOL   H64544293   6.716   3.678   0.983 -0.1473 -0.6832  1.4552
   65MOL   H64644294   6.545   3.717   1.441  2.0297  0.5105 -1.1342
   65MOL   H64744295   6.466   3.571   1.632 -0.2687 -3.1364 -0.5205
   65MOL   C64844296   7.499   3.603   1.134 -0.3624  0.6873  0.3232
   65MOL   C64944297   7.370   3.650   1.111 -0.0447 -0.6037 -0.7382
   65MOL   C65044298   7.279   3.573   1.045 -0.0109 -0.8592 -0.3913
   65MOL   O65144299   7.171   3.640   0.991 -0.5489 -0.2771 -0.8095
   65MOL   C65244300   7.310   3.447   0.994 -0.1287 -0.1808  0.0201
   65MOL   C65344301   7.442   3.404   1.010  1.1588 -0.2651  0.4478
   65MOL   C65444302   7.540   3.478   1.079 -0.2578  0.0436  0.2306
   65MOL   C65544303   7.675   3.414   1.094  0.0644 -0.3595 -0.3639
   65MOL   O65644304   7.693   3.292   1.080 -0.2269  0.4930 -0.4631
   65MOL   C65744305   7.786   3.504   1.118  0.1247 -0.6954 -0.1557
   65MOL   C65844306   7.802   3.628   1.044  0.3407  0.1348  0.4985
   65MOL   C65944307   7.917   3.701   1.066  0.6118  0.0267 -0.6875
   65MOL   C66044308   8.015   3.668   1.166 -0.2337 -0.2350  1.1088
   65MOL   O66144309   8.125   3.752   1.178 -0.3544  0.1565  0.2774
   65MOL   C66244310   8.235   3.717   1.108 -0.4510  0.3373  0.3900
   65MOL   C66344311   8.263   3.780   0.984 -0.6418 -0.0321 -0.3205
   65MOL   C66444312   0.068   3.748   0.920 -0.1325 -0.1112 -0.0681
   65MOL   C66544313   0.149   3.645   0.968 -0.6615 -0.4639 -0.8806
   65MOL   C66644314   0.125   3.582   1.092  0.8107  0.1461  0.4325
   65MOL   C66744315   0.011   3.623   1.164 -0.2228  0.2424  0.4221
   65MOL   C66844316   7.995   3.554   1.237  0.0456 -0.2033  0.6370
   65MOL   C66944317   7.882   3.471   1.208 -0.9215  0.1928  0.0063
   65MOL   H67044318   7.566   3.665   1.191  0.4165 -0.6933  0.9373
   65MOL   H67144319   7.353   3.754   1.135 -1.1463 -0.1215 -3.5266
   65MOL   H67244320   7.239   3.393   0.933  0.2435  2.2837 -2.7168
   65MOL   H67344321   7.468   3.308   0.969  2.9207  0.1677  0.4980
   65MOL   H67444322   7.728   3.655   0.970 -0.5397  1.6870  1.9307
   65MOL   H67544323   7.932   3.790   1.007 -0.4906  1.6240  1.3964
   65MOL   H67644324   8.200   3.861   0.952 -0.0816 -0.5375 -2.7651
   65MOL   H67744325   0.103   3.794   0.828 -0.4033  0.3145  0.0415
   65MOL   H67844326   0.189   3.499   1.117  1.3250  0.4551  0.1273
   65MOL   H67944327   8.299   3.576   1.258  0.0142  1.5473  1.1586
   65MOL   H68044328   8.064   3.529   1.316  1.9571 -2.8936 -1.7902
   65MOL   H68144329   7.870   3.381   1.267  0.3644  0.2361  0.3425
   65MOL   H68244330   0.238   3.616   0.915 -0.3845 -0.4790 -0.4005
   66MOL     C144331   6.426   0.541   1.212 -0.6150 -0.3118 -0.0795
   66MOL     C244332   6.559   0.564   1.262 -0.0696 -0.2254 -0.3505
   66MOL     C344333   6.637   0.672   1.200  0.3513 -0.1652 -0.3193
   66MOL     O444334   6.761   0.712   1.231 -0.0785 -0.2215 -0.4281
   66MOL     C544335   6.574   0.755   1.111 -0.3099  0.7551  0.2239
   66MOL     C644336   6.441   0.734   1.066  0.0830  0.7590  0.2303
   66MOL     C744337   6.365   0.619   1.111 -0.6036 -0.4738  0.2911
   66MOL     C844338   6.229   0.584   1.068  0.5091  0.2286  0.8612
   66MOL     O944339   6.145   0.545   1.141 -0.1012  0.6996 -0.3253
   66MOL    C1044340   6.209   0.612   0.924  0.6363  0.6203  0.1585
   66MOL    C1144341   6.303   0.572   0.820 -0.0453  0.0887 -0.3230
   66MOL    C1244342   6.285   0.619   0.688  0.6411  0.2815 -0.0511
   66MOL    C1344343   6.164   0.690   0.654 -0.0746  0.7998 -0.2267
   66MOL    O1444344   6.149   0.729   0.530  0.1756 -0.0717  0.0129
   66MOL    C1544345   6.167   0.862   0.509 -0.0728  0.2386 -0.1159
   66MOL    C1644346   6.054   0.953   0.510 -0.0280 -0.2870 -0.3336
   66MOL    C1744347   6.080   1.086   0.467 -0.3254 -1.1047 -0.3630
   66MOL    C1844348   6.205   1.121   0.413  0.0234  0.1539  0.5782
   66MOL    C1944349   6.315   1.028   0.408  0.6225  0.4547  0.0890
   66MOL    C2044350   6.295   0.900   0.464 -0.2291  0.5203  0.5182
   66MOL    C2144351   6.064   0.720   0.747 -0.2617  0.1551 -0.3818
   66MOL    C2244352   6.095   0.689   0.884 -0.1228  0.4616 -0.4476
   66MOL    H2344353   6.362   0.464   1.253 -1.6966  0.5763 -0.0743
   66MOL    H2444354   6.611   0.497   1.329 -0.2069  1.1707  1.1839
   66MOL    H2544355   6.632   0.841   1.078  1.4160 -0.1298  0.8636
   66MOL    H2644356   6.398   0.805   0.997  0.7881 -0.0709 -1.0664
   66MOL    H2744357   6.392   0.518   0.846  0.3023  1.9747  2.6821
   66MOL    H2844358   6.349   0.585   0.609 -0.9211 -0.0370 -1.2079
   66MOL    H2944359   5.951   0.929   0.531 -0.6020  1.0732 -1.5471
   66MOL    H3044360   5.995   1.152   0.474  0.8767  0.2670  1.6472
   66MOL    H3144361   6.414   1.054   0.373 -0.4681  2.3573 -1.6768
   66MOL    H3244362   6.377   0.832   0.477 -0.1128  0.3301 -1.1095
   66MOL    H3344363   5.977   0.780   0.727 -1.5341 -2.0911 -1.8385
   66MOL    H3444364   6.028   0.725   0.962  0.7128 -0.1122  0.5397
   66MOL    H3544365   6.795   0.677   1.312 -0.4456  1.9152  0.7101
   66MOL    C3644366   6.340   1.417   0.679 -0.1981  0.5837  0.1636
   66MOL    C3744367   6.301   1.317   0.585 -0.2746  0.3096  0.6521
   66MOL    C3844368   6.276   1.344   0.449  0.2402 -0.4562  0.2632
   66MOL    O3944369   6.224   1.250   0.367  0.2217  0.2286 -1.0782
   66MOL    C4044370   6.308   1.474   0.407 -0.3960 -0.2510 -0.4957
   66MOL    C4144371   6.337   1.576   0.499  0.5777 -0.6180 -0.0168
   66MOL    C4244372   6.354   1.552   0.637 -0.1098  0.3912 -0.4292
   66MOL    C4344373   6.381   1.665   0.728  0.0050  0.2213  0.3473
   66MOL    O4444374   6.490   1.673   0.788  0.0115 -0.1247 -0.0102
   66MOL    C4544375   6.277   1.773   0.740  0.4938 -0.0098  0.5880
   66MOL    C4644376   6.295   1.883   0.830  0.4037 -0.0147  0.0069
   66MOL    C4744377   6.212   1.992   0.834  0.4152 -0.1882 -0.1836
   66MOL    C4844378   6.101   2.002   0.748  0.6162  0.3366 -0.3360
   66MOL    O4944379   6.024   2.114   0.748 -0.2661  0.4645  0.3895
   66MOL    C5044380   5.919   2.138   0.832  0.2975 -0.1550 -0.3455
   66MOL    C5144381   5.887   2.044   0.939 -0.0404 -0.6859 -0.5741
   66MOL    C5244382   5.777   2.069   1.022 -0.3030 -0.1985  0.7933
   66MOL    C5344383   5.694   2.182   1.004 -0.2709  0.0601  0.4245
   66MOL    C5444384   5.738   2.281   0.911  0.7301 -0.2295  0.4687
   66MOL    C5544385   5.841   2.258   0.824  0.2292  0.3568  0.1078
   66MOL    C5644386   6.085   1.897   0.652  0.5364  0.1092 -0.1200
   66MOL    C5744387   6.172   1.787   0.649  0.8212 -0.5080 -0.5771
   66MOL    H5844388   6.353   1.384   0.781 -0.9647  1.8130  0.6731
   66MOL    H5944389   6.296   1.218   0.628  2.7510  0.0210  0.4182
   66MOL    H6044390   6.290   1.502   0.305 -0.4001  2.5734  0.2395
   66MOL    H6144391   6.351   1.673   0.453  1.2151 -1.5530 -1.8456
   66MOL    H6244392   6.384   1.866   0.889  1.8824 -2.1186 -2.6707
   66MOL    H6344393   6.227   2.075   0.902  1.2443 -0.4309 -0.0772
   66MOL    H6444394   5.946   1.954   0.948 -1.5299 -1.7483 -1.1919
   66MOL    H6544395   5.740   1.997   1.093 -0.6975 -2.5159 -1.6634
   66MOL    H6644396   5.674   2.368   0.914 -0.6246 -1.2290  1.7262
   66MOL    H6744397   5.875   2.336   0.757  0.6120  1.4585  1.5671
   66MOL    H6844398   6.000   1.908   0.586 -1.0866  1.3301  2.0721
   66MOL    H6944399   6.147   1.706   0.581 -2.0875  0.0401 -0.2222
   66MOL    C7044400   5.582   2.407   1.374 -0.2095 -0.8291 -0.4148
   66MOL    C7144401   5.626   2.316   1.275 -0.2753  0.2672 -0.0674
   66MOL    C7244402   5.549   2.281   1.165 -0.0016 -0.6460 -0.4113
   66MOL    O7344403   5.578   2.186   1.076 -0.2712  0.1470  0.5626
   66MOL    C7444404   5.419   2.331   1.157 -0.4007 -0.0853  0.5595
   66MOL    C7544405   5.373   2.418   1.254 -0.5892 -0.3291  0.5128
   66MOL    C7644406   5.455   2.462   1.362 -0.5902  0.3278 -0.5697
   66MOL    C7744407   5.417   2.554   1.468 -0.3749 -0.2311  0.2415
   66MOL    O7844408   5.428   2.527   1.584  0.0596  0.3079 -0.1343
   66MOL    C7944409   5.367   2.686   1.419  0.1760  0.1049 -0.3266
   66MOL    C8044410   5.284   2.765   1.505  0.2588  0.1577  0.1548
   66MOL    C8144411   5.240   2.889   1.465 -0.0372  0.1856 -0.0470
   66MOL    C8244412   5.270   2.943   1.340 -0.0489  0.8861 -0.7944
   66MOL    O8344413   5.215   3.066   1.302  0.5224 -0.3081  0.7204
   66MOL    C8444414   5.301   3.165   1.278  0.5368 -0.1700 -0.2097
   66MOL    C8544415   5.332   3.252   1.384 -0.4963  0.0721  0.0005
   66MOL    C8644416   5.428   3.359   1.362  0.0947 -0.2667  0.4874
   66MOL    C8744417   5.469   3.386   1.232  0.0552  0.2064  0.3765
   66MOL    C8844418   5.432   3.298   1.126 -0.5488 -0.2426  0.0953
   66MOL    C8944419   5.356   3.183   1.154  0.5832  0.2263  0.4230
   66MOL    C9044420   5.350   2.863   1.254  0.3454 -0.5657 -0.4525
   66MOL    C9144421   5.406   2.743   1.292 -0.0155  0.6495 -0.0238
   66MOL    H9244422   5.641   2.425   1.463 -0.1031  0.4379 -0.7331
   66MOL    H9344423   5.727   2.279   1.275  0.7441  2.8947 -1.6141
   66MOL    H9444424   5.354   2.314   1.072  0.9195 -0.2963 -0.4288
   66MOL    H9544425   5.270   2.448   1.242 -0.1361  0.7544 -0.8535
   66MOL    H9644426   5.247   2.719   1.596  2.7441  2.2186  2.2995
   66MOL    H9744427   5.191   2.945   1.543  0.2894  0.8329 -0.3090
   66MOL    H9844428   5.295   3.235   1.484 -0.4352  1.8949  0.3402
   66MOL    H9944429   5.465   3.430   1.434  1.6422  0.0238 -0.5609
   66MOL   H10044430   5.472   3.310   1.027 -0.0644 -2.8285 -0.0661
   66MOL   H10144431   5.324   3.120   1.073  1.5343 -2.3310  1.9601
   66MOL   H10244432   5.366   2.896   1.153  1.1060  0.5355  0.0147
   66MOL   H10344433   5.471   2.674   1.240 -1.6834 -0.8743 -0.1839
   66MOL   C10444434   5.904   3.434   1.188 -0.5370  0.3523 -0.6689
   66MOL   C10544435   5.768   3.447   1.153  1.2613  0.5597 -0.3312
   66MOL   C10644436   5.670   3.504   1.238  0.3455 -0.2087 -0.1748
   66MOL   O10744437   5.540   3.503   1.208  0.1943 -0.2419 -0.5272
   66MOL   C10844438   5.715   3.550   1.365  0.4456  0.5780  0.0506
   66MOL   C10944439   5.855   3.537   1.398  0.4104 -0.3206 -0.5383
   66MOL   C11044440   5.948   3.477   1.316  0.2223  0.1401  0.2618
   66MOL   C11144441   6.087   3.454   1.366 -0.2497  0.0157 -0.2269
   66MOL   O11244442   6.139   3.523   1.453 -0.0600 -0.2264 -0.2014
   66MOL   C11344443   6.157   3.328   1.330  0.3228  0.0636  0.7097
   66MOL   C11444444   6.095   3.200   1.330 -0.0213 -0.0832 -0.3906
   66MOL   C11544445   6.170   3.094   1.278 -0.1113  0.2933 -0.4144
   66MOL   C11644446   6.310   3.103   1.248 -0.1775 -0.2325  0.1092
   66MOL   O11744447   6.387   2.997   1.206  0.0074 -0.0565 -0.2869
   66MOL   C11844448   6.433   2.913   1.304 -0.3047  0.1835  0.2663
   66MOL   C11944449   6.485   2.785   1.263  0.6532 -0.7063  0.5651
   66MOL   C12044450   6.538   2.698   1.359 -0.7425 -0.1478  1.0440
   66MOL   C12144451   6.574   2.745   1.485  0.5002 -0.6932 -0.1335
   66MOL   C12244452   6.536   2.876   1.526  0.3535  0.6738 -1.0554
   66MOL   C12344453   6.461   2.955   1.436 -0.0465  0.4781  0.1400
   66MOL   C12444454   6.373   3.226   1.265  0.3013 -0.5403  0.2559
   66MOL   C12544455   6.297   3.340   1.304  0.8900  0.8413  0.2714
   66MOL   H12644456   5.967   3.377   1.122 -0.2232  0.4640 -0.4710
   66MOL   H12744457   5.737   3.410   1.057  1.5725  0.1253 -0.2640
   66MOL   H12844458   5.648   3.583   1.442  0.8711 -0.0892  0.7115
   66MOL   H12944459   5.889   3.549   1.500 -0.6335  0.3639 -0.2712
   66MOL   H13044460   5.993   3.183   1.361  0.6452 -0.1362  1.7905
   66MOL   H13144461   6.128   2.995   1.270 -0.3162  0.1917  1.7225
   66MOL   H13244462   6.468   2.748   1.163 -0.4548 -0.1968  0.5610
   66MOL   H13344463   6.564   2.594   1.342  0.1255  0.2954 -0.4510
   66MOL   H13444464   6.556   2.909   1.626 -3.0015 -0.3421 -0.0005
   66MOL   H13544465   6.429   3.053   1.467 -0.3468  0.3433  0.2685
   66MOL   H13644466   6.476   3.243   1.236  0.2482  1.8182  1.3262
   66MOL   H13744467   6.340   3.436   1.326  0.6452  0.9528  0.2741
   66MOL   C13844468   6.585   2.715   1.935 -0.4807  0.1838  0.3134
   66MOL   C13944469   6.561   2.694   1.797  0.4026  0.1922 -0.6037
   66MOL   C14044470   6.664   2.707   1.707  0.2580 -0.2302  0.6479
   66MOL   O14144471   6.655   2.668   1.569 -0.3945  0.1784 -0.4244
   66MOL   C14244472   6.792   2.754   1.752 -0.4556 -0.4248 -0.2080
   66MOL   C14344473   6.823   2.776   1.890 -0.4045 -0.5038 -0.1804
   66MOL   C14444474   6.713   2.758   1.978  0.4122  0.0500  1.4848
   66MOL   C14544475   6.735   2.780   2.121  0.1013 -1.1613  0.1139
   66MOL   O14644476   6.836   2.742   2.187 -0.1463  0.2775  0.1103
   66MOL   C14744477   6.613   2.840   2.185  0.0021  0.2446 -0.2541
   66MOL   C14844478   6.578   2.787   2.317 -0.1755 -0.9934 -0.3806
   66MOL   C14944479   6.469   2.853   2.383 -0.1822  0.0215  0.2914
   66MOL   C15044480   6.393   2.952   2.315  0.4076  0.0714  0.5223
   66MOL   O15144481   6.287   3.014   2.375  0.2277 -0.5054  0.3552
   66MOL   C15244482   6.157   2.967   2.362  0.0006 -0.3487 -0.6062
   66MOL   C15344483   6.055   3.042   2.426  0.9295  0.1282  0.3487
   66MOL   C15444484   5.921   3.016   2.410 -0.4629  0.0254 -0.0331
   66MOL   C15544485   5.887   2.912   2.317 -0.4718  0.4572 -0.3598
   66MOL   C15644486   5.987   2.833   2.250  0.4516  0.1390  0.5475
   66MOL   C15744487   6.119   2.868   2.266  0.5525  0.5602 -0.5106
   66MOL   C15844488   6.433   3.005   2.192 -0.1702 -0.2517  0.3339
   66MOL   C15944489   6.547   2.950   2.127 -0.2059 -0.2299 -0.1866
   66MOL   H16044490   6.505   2.695   2.005 -0.6625  0.6857  0.2520
   66MOL   H16144491   6.465   2.657   1.763  0.3348  1.2139 -1.5844
   66MOL   H16244492   6.871   2.775   1.683 -1.1746 -0.5599 -1.0831
   66MOL   H16344493   6.915   2.819   1.927 -0.2042  1.6439 -3.0194
   66MOL   H16444494   6.637   2.709   2.362  1.8660 -0.1205 -1.4183
   66MOL   H16544495   6.443   2.823   2.484  0.6351  3.2965  1.5544
   66MOL   H16644496   6.074   3.125   2.493 -2.7897 -0.0160  1.7288
   66MOL   H16744497   5.840   3.067   2.461 -2.6234 -2.2837 -1.0474
   66MOL   H16844498   5.961   2.757   2.177 -0.1395  1.2627 -0.4304
   66MOL   H16944499   6.194   2.813   2.213 -0.5215 -0.5207 -0.9403
   66MOL   H17044500   6.380   3.085   2.143 -1.0531 -0.5907  0.7339
   66MOL   H17144501   6.573   2.988   2.030 -5.2828  0.6660 -1.3095
   66MOL   C17244502   5.593   3.126   2.075  0.6203  0.4593 -0.8699
   66MOL   C17344503   5.669   3.013   2.117 -0.1884  0.1275  0.7306
   66MOL   C17444504   5.664   2.971   2.249 -0.7482  0.2182  0.6620
   66MOL   O17544505   5.755   2.879   2.304 -0.1521  0.3815 -0.0728
   66MOL   C17644506   5.582   3.039   2.330 -0.1816 -0.2705 -0.5800
   66MOL   C17744507   5.496   3.145   2.295  0.2017 -0.5138  0.4847
   66MOL   C17844508   5.503   3.193   2.158  0.1470  0.4410  0.2265
   66MOL   C17944509   5.438   3.316   2.119 -1.0518 -0.1161 -0.3646
   66MOL   O18044510   5.477   3.400   2.041  0.3530  0.1782  0.4704
   66MOL   C18144511   5.307   3.348   2.189  0.2235  0.8207  0.3981
   66MOL   C18244512   5.215   3.243   2.207 -0.1995 -0.1722  0.3002
   66MOL   C18344513   5.082   3.273   2.253  0.0897  0.6391  0.9269
   66MOL   C18444514   5.052   3.405   2.282  0.0691 -0.1684  0.0483
   66MOL   O18544515   4.927   3.443   2.334 -0.4458 -0.2658  0.6960
   66MOL   C18644516   4.821   3.401   2.259  0.2482 -0.1666  0.6540
   66MOL   C18744517   4.796   3.461   2.132 -0.0208 -0.9547  0.2165
   66MOL   C18844518   4.706   3.397   2.040  0.6357 -0.1978  0.1919
   66MOL   C18944519   4.621   3.299   2.087 -0.5935 -0.5169 -0.0434
   66MOL   C19044520   4.635   3.248   2.221 -0.4737 -0.0732 -0.0832
   66MOL   C19144521   4.734   3.300   2.304  0.2344 -0.1270  0.4189
   66MOL   C19244522   5.145   3.513   2.269 -0.0701 -0.3900 -0.4467
   66MOL   C19344523   5.273   3.480   2.217 -0.0683 -0.2658 -0.4111
   66MOL   H19444524   5.611   3.171   1.978 -2.8197  2.1029 -0.8405
   66MOL   H19544525   5.725   2.960   2.041 -2.1078 -0.7350 -0.0987
   66MOL   H19644526   5.593   3.016   2.435  3.5615 -0.3183 -0.9073
   66MOL   H19744527   5.440   3.187   2.377 -0.4648 -2.0659  0.8490
   66MOL   H19844528   5.233   3.139   2.185 -3.3108 -0.4848 -1.0591
   66MOL   H19944529   5.014   3.191   2.269  1.2342 -0.0427  2.4905
   66MOL   H20044530   4.862   3.531   2.084 -1.5046  0.1451 -0.2551
   66MOL   H20144531   4.694   3.443   1.943 -0.1366 -0.2695  0.2527
   66MOL   H20244532   4.567   3.171   2.256 -1.5920  1.3133  0.8451
   66MOL   H20344533   4.752   3.258   2.402 -1.7484 -1.0627  0.4101
   66MOL   H20444534   5.116   3.615   2.290  2.6609  0.7155 -1.7162
   66MOL   H20544535   5.344   3.557   2.191  1.2304 -0.5052  2.2955
   66MOL   C20644536   4.538   3.132   1.652 -0.0022  0.1293  0.3687
   66MOL   C20744537   4.496   3.180   1.776  0.9810  0.1504 -0.3991
   66MOL   C20844538   4.586   3.192   1.884  1.4274 -0.1763 -0.1147
   66MOL   O20944539   4.542   3.237   2.005  0.9761  0.1084  0.2308
   66MOL   C21044540   4.718   3.154   1.860 -0.1910 -0.4084  0.5945
   66MOL   C21144541   4.757   3.080   1.744 -0.5316 -0.5065 -0.0731
   66MOL   C21244542   4.669   3.084   1.638  0.2107  0.7742 -0.4767
   66MOL   C21344543   4.710   3.031   1.513 -0.0826  0.1108  0.2247
   66MOL   O21444544   4.725   2.908   1.497 -0.1434  0.2019 -0.3006
   66MOL   C21544545   4.735   3.124   1.401 -0.3059 -0.1791  0.3805
   66MOL   C21644546   4.766   3.073   1.274 -0.0093 -0.2335 -0.6934
   66MOL   C21744547   4.775   3.167   1.171 -0.2335  0.3206 -0.1408
   66MOL   C21844548   4.768   3.304   1.193 -0.1926 -0.5574  1.1325
   66MOL   O21944549   4.776   3.395   1.090  0.5622  0.0173 -0.2153
   66MOL   C22044550   4.890   3.453   1.057 -0.3670  0.0467 -0.7835
   66MOL   C22144551   5.016   3.415   1.104 -0.1771  0.0702 -0.5836
   66MOL   C22244552   5.132   3.488   1.071  0.1480  0.0289 -0.2462
   66MOL   C22344553   5.114   3.605   0.993  0.1239  0.5494 -0.4198
   66MOL   C22444554   4.989   3.635   0.936 -0.5205  0.1022  0.1646
   66MOL   C22544555   4.876   3.561   0.971 -0.3660 -0.5095  0.0829
   66MOL   C22644556   4.745   3.356   1.322 -0.1889  0.1777 -0.0840
   66MOL   C22744557   4.721   3.262   1.428 -0.2191  0.0597 -0.1266
   66MOL   H22844558   4.471   3.126   1.568 -0.5321  0.2710  0.7724
   66MOL   H22944559   4.397   3.221   1.789  1.8443  2.7952 -1.8219
   66MOL   H23044560   4.797   3.160   1.934  1.4853 -1.3565 -1.0874
   66MOL   H23144561   4.862   3.055   1.736  0.0989  1.6654  0.9977
   66MOL   H23244562   4.781   2.968   1.257  2.3040  0.0600 -0.6297
   66MOL   H23344563   4.806   3.121   1.079 -0.8686 -0.0221 -0.1866
   66MOL   H23444564   5.022   3.330   1.171  0.7913 -1.6218 -2.7521
   66MOL   H23544565   5.224   3.474   1.125 -0.5012  1.1455  1.1649
   66MOL   H23644566   4.976   3.720   0.871  0.5267 -0.1267 -0.3621
   66MOL   H23744567   4.780   3.596   0.936 -1.0643 -0.1681  2.2220
   66MOL   H23844568   4.740   3.459   1.356 -3.0889 -0.1438  0.5857
   66MOL   H23944569   4.686   3.304   1.521 -1.7658 -0.5600 -0.4206
   66MOL   C24044570   5.265   3.684   0.599  0.4216  0.2931  0.4888
   66MOL   C24144571   5.240   3.639   0.732 -0.1430  0.9924  0.5412
   66MOL   C24244572   5.233   3.731   0.837  0.3170 -0.2516  0.5619
   66MOL   O24344573   5.217   3.690   0.968  0.1338  0.4017  0.2921
   66MOL   C24444574   5.268   3.862   0.818 -0.8271  0.5678 -0.1172
   66MOL   C24544575   5.290   3.909   0.681 -0.0138  0.3769 -0.6245
   66MOL   C24644576   5.292   3.821   0.574  0.3213  0.4798 -0.1191
   66MOL   C24744577   5.312   3.874   0.434 -0.6722 -0.4805 -0.2676
   66MOL   O24844578   5.229   3.857   0.347 -0.4005  0.2571 -0.5987
   66MOL   C24944579   5.436   3.959   0.418 -0.1829 -0.4706 -0.0754
   66MOL   C25044580   5.558   3.923   0.486 -0.1986  0.7377 -0.1069
   66MOL   C25144581   5.678   3.990   0.461  0.6013 -0.0250  0.2902
   66MOL   C25244582   5.676   4.105   0.375  0.1126 -0.0925  0.0737
   66MOL   O25344583   5.793   4.170   0.338  0.9018 -0.3131 -0.4325
   66MOL   C25444584   5.875   4.093   0.253  0.1334  0.3341 -0.4879
   66MOL   C25544585   5.996   4.043   0.304  0.0035  0.0245 -0.1331
   66MOL   C25644586   6.087   3.971   0.223 -0.5531 -0.5457 -0.0131
   66MOL   C25744587   6.056   3.955   0.091  0.2452  0.1454  0.6397
   66MOL   C25844588   5.927   3.995   0.042 -1.1545 -0.1581 -0.1338
   66MOL   C25944589   5.838   4.067   0.122 -0.6408 -0.2451  0.0554
   66MOL   C26044590   5.561   4.135   0.298  0.6191 -0.3987  0.0747
   66MOL   C26144591   5.443   4.056   0.321  0.0653  0.6243 -0.3480
   66MOL   H26244592   5.276   3.624   0.510 -0.3884  0.2194  0.4309
   66MOL   H26344593   5.224   3.535   0.759 -0.4734  0.6933 -0.7560
   66MOL   H26444594   5.284   3.918   0.909 -0.1166 -4.0484  2.7217
   66MOL   H26544595   5.308   4.014   0.665 -0.9562  0.7708  0.8458
   66MOL   H26644596   5.575   3.839   0.551  0.9314  1.0472 -0.0071
   66MOL   H26744597   5.774   3.967   0.504  2.0916  1.0660 -2.3920
   66MOL   H26844598   6.018   4.067   0.407 -0.0451  1.1714 -0.3870
   66MOL   H26944599   6.186   3.944   0.256 -1.2420 -1.7477  1.1328
   66MOL   H27044600   5.890   3.979   8.255 -1.9746 -1.7239  0.4180
   66MOL   H27144601   5.743   4.096   0.079 -0.5327 -1.4184 -1.0027
   66MOL   H27244602   5.571   4.210   0.221 -1.3826 -0.1896 -0.0033
   66MOL   H27344603   5.355   4.078   0.262 -1.0599 -2.2685  0.1800
   66MOL   C27444604   6.269   3.636   8.102 -0.1848  0.1236  0.1277
   66MOL   C27544605   6.262   3.750   8.185  0.8916  0.2782 -0.3003
   66MOL   C27644606   6.148   3.781   8.263 -0.2977 -0.7005 -0.7180
   66MOL   O27744607   6.153   3.901   0.008 -0.1963 -0.0320  0.2209
   66MOL   C27844608   6.050   3.682   8.272  0.4625  0.2429 -0.5207
   66MOL   C27944609   6.067   3.557   8.206  0.0299  0.1460  0.1281
   66MOL   C28044610   6.173   3.538   8.118  0.6517 -0.1183  0.0960
   66MOL   C28144611   6.164   3.418   8.029 -0.2393  0.1530 -0.1640
   66MOL   O28244612   6.163   3.428   7.902 -0.0716  0.6843  0.1756
   66MOL   C28344613   6.170   3.284   8.092 -0.0575 -0.3836 -0.3289
   66MOL   C28444614   6.173   3.272   8.239  0.0813  0.0984  0.0146
   66MOL   C28544615   6.176   3.143   8.294 -0.5730  0.1903 -0.3935
   66MOL   C28644616   6.188   3.024   8.211  0.4074 -0.1819 -0.0967
   66MOL   O28744617   6.193   2.902   8.270 -0.2439  0.4312  0.0478
   66MOL   C28844618   6.297   2.812   8.240  0.8576 -0.6625  0.3428
   66MOL   C28944619   6.422   2.820   8.306 -0.1454 -0.7330 -0.1940
   66MOL   C29044620   6.534   2.734   8.274  0.0718  0.1955 -0.7871
   66MOL   C29144621   6.510   2.632   8.178 -0.1504  0.2986  0.8953
   66MOL   C29244622   6.383   2.623   8.115  0.3648 -0.1643 -0.2299
   66MOL   C29344623   6.282   2.712   8.138  0.1444  0.8002 -0.6618
   66MOL   C29444624   6.177   3.040   8.075  0.0071 -0.0529 -0.3651
   66MOL   C29544625   6.161   3.168   8.012  0.7901 -0.0130  1.0842
   66MOL   H29644626   6.354   3.620   8.036 -0.4625 -1.3372  0.1182
   66MOL   H29744627   6.346   3.816   8.199  0.0441  1.1677  0.7461
   66MOL   H29844628   5.971   3.701   0.031  0.0050  1.4912 -1.3452
   66MOL   H29944629   5.989   3.483   8.219  1.0157 -0.9008  0.2155
   66MOL   H30044630   6.169   3.360   8.302  0.6718  0.7096 -0.7956
   66MOL   H30144631   6.169   3.128   0.088 -0.3752 -1.5432 -0.6072
   66MOL   H30244632   6.434   2.898   0.067 -0.8254  1.6025 -2.5100
   66MOL   H30344633   6.633   2.751   0.001 -0.1553 -1.2596  0.4813
   66MOL   H30444634   6.369   2.543   8.045 -0.0773  1.6229 -2.2331
   66MOL   H30544635   6.191   2.698   8.081  0.8057 -0.2560 -1.4661
   66MOL   H30644636   6.182   2.951   8.014  1.4200 -0.3236  0.1455
   66MOL   H30744637   6.150   3.172   7.905  0.8100  0.0024  1.0832
   66MOL   C30844638   6.456   2.242   0.008 -0.3889 -0.4391  0.0604
   66MOL   C30944639   6.479   2.374   8.295 -1.1784  0.1850  0.3036
   66MOL   C31044640   6.572   2.406   8.186 -0.6289  0.0973 -0.2566
   66MOL   O31144641   6.609   2.538   8.160 -0.0121 -0.2847  0.7568
   66MOL   C31244642   6.615   2.299   8.103  0.9098 -0.0522 -0.0930
   66MOL   C31344643   6.570   2.167   8.124 -0.5959  0.4370 -0.2103
   66MOL   C31444644   6.497   2.137   8.241  0.6621  0.7639  0.3027
   66MOL   C31544645   6.457   1.992   8.271  0.9051  0.4218  0.5295
   66MOL   O31644646   6.343   1.959   8.286  0.1273  0.2829  0.3281
   66MOL   C31744647   6.568   1.893   8.276 -0.7293  0.1936 -0.3443
   66MOL   C31844648   6.697   1.929   0.014 -0.1696  0.0293  0.2090
   66MOL   C31944649   6.787   1.823   0.052  0.1612 -0.1828 -0.2964
   66MOL   C32044650   6.756   1.684   0.030  0.2933 -0.1491  0.3537
   66MOL   O32144651   6.840   1.586   0.089 -0.2056  0.1909 -0.0527
   66MOL   C32244652   6.791   1.531   0.208 -0.2091 -0.3108  0.2544
   66MOL   C32344653   6.757   1.393   0.209  0.5035 -0.5293  0.2852
   66MOL   C32444654   6.695   1.336   0.325 -0.5508 -0.2926 -0.3396
   66MOL   C32544655   6.669   1.422   0.436 -0.2989  0.0224 -0.2221
   66MOL   C32644656   6.705   1.556   0.433  0.3067 -0.2288 -0.3437
   66MOL   C32744657   6.771   1.611   0.320  0.6009 -0.3093 -0.3234
   66MOL   C32844658   6.637   1.653   8.279  0.0779 -0.0502 -0.2348
   66MOL   C32944659   6.540   1.751   8.250 -0.0756  0.5355 -0.3259
   66MOL   H33044660   6.398   2.208   0.093  0.8075 -1.5485  0.4423
   66MOL   H33144661   6.431   2.461   0.026  0.6382  1.5699 -0.3941
   66MOL   H33244662   6.667   2.321   8.011  0.3521  1.8005  0.0169
   66MOL   H33344663   6.579   2.089   8.051 -2.0871  0.0844 -0.0273
   66MOL   H33444664   6.720   2.034   0.025  1.2803 -0.0275 -1.9581
   66MOL   H33544665   6.877   1.848   0.106  0.6849  1.7950 -2.0694
   66MOL   H33644666   6.777   1.341   0.117 -0.3672  0.4346 -0.4744
   66MOL   H33744667   6.661   1.233   0.320  1.5356 -1.1094  1.4041
   66MOL   H33844668   6.702   1.610   0.526 -1.9538 -1.0731  0.1022
   66MOL   H33944669   6.812   1.711   0.328  0.3990 -0.4068  2.5888
   66MOL   H34044670   6.587   1.557   8.273  0.2793 -0.2453  1.0444
   66MOL   H34144671   6.440   1.722   8.222 -0.0513  0.4503 -0.3237
   66MOL   C34244672   6.868   1.200   0.777 -0.6751 -0.1410 -0.2725
   66MOL   C34344673   6.779   1.214   0.671 -0.2063 -0.0126 -0.0612
   66MOL   C34444674   6.698   1.334   0.657 -1.0184 -1.6802 -0.7072
   66MOL   O34544675   6.621   1.355   0.550 -0.5690  0.1758  0.0493
   66MOL   C34644676   6.719   1.437   0.755 -0.0561  0.1516  0.1569
   66MOL   C34744677   6.802   1.418   0.868  0.1822 -0.0676  0.1578
   66MOL   C34844678   6.879   1.298   0.878  0.0653 -0.4048 -0.1734
   66MOL   C34944679   6.976   1.262   0.987 -0.0133 -0.5298  0.4644
   66MOL   O35044680   7.070   1.185   0.968 -0.7098  0.4328 -0.6225
   66MOL   C35144681   6.965   1.327   1.117  0.4785  0.6032 -0.5156
   66MOL   C35244682   6.840   1.368   1.168 -0.8324 -0.0645  0.0611
   66MOL   C35344683   6.828   1.428   1.300 -0.6858 -0.3831  0.5867
   66MOL   C35444684   6.949   1.459   1.369 -0.8403 -0.2872 -0.5165
   66MOL   O35544685   6.941   1.538   1.480  0.2584  0.0041 -0.2951
   66MOL   C35644686   6.963   1.673   1.466 -0.6171 -0.2873 -0.0700
   66MOL   C35744687   6.857   1.753   1.416  0.5913  0.6144 -0.4150
   66MOL   C35844688   6.886   1.884   1.370  0.0774  0.0066 -0.2590
   66MOL   C35944689   7.009   1.938   1.410 -0.0878 -0.8733  0.0324
   66MOL   C36044690   7.102   1.861   1.477 -0.0285  0.0516 -0.0523
   66MOL   C36144691   7.084   1.727   1.504 -0.8421 -0.3274  0.3832
   66MOL   C36244692   7.074   1.417   1.317  0.4209  0.5513 -0.7953
   66MOL   C36344693   7.082   1.355   1.190  0.7351  0.5587 -0.2718
   66MOL   H36444694   6.931   1.112   0.775 -2.2889 -1.3124 -1.0333
   66MOL   H36544695   6.776   1.139   0.594  0.6891  1.1051 -1.1844
   66MOL   H36644696   6.671   1.531   0.735 -0.4019  0.3576  1.8614
   66MOL   H36744697   6.801   1.488   0.951 -3.6020 -2.3197  2.1400
   66MOL   H36844698   6.745   1.354   1.117 -1.8831 -0.5282  2.0865
   66MOL   H36944699   6.736   1.459   1.347  0.8970  3.7089  1.2897
   66MOL   H37044700   6.766   1.696   1.403  0.1521  1.2497 -0.1805
   66MOL   H37144701   6.807   1.950   1.339  0.8168  1.5869  1.1164
   66MOL   H37244702   7.193   1.912   1.506 -0.9296  1.3545  0.5291
   66MOL   H37344703   7.162   1.669   1.552  1.5806  1.2797 -1.4824
   66MOL   H37444704   7.169   1.429   1.367  0.0599 -0.0095  0.0346
   66MOL   H37544705   7.171   1.318   1.141 -0.1219 -1.8531 -0.1175
   66MOL   C37644706   7.151   2.326   1.611  0.5658 -0.2685 -0.4146
   66MOL   C37744707   7.154   2.217   1.523  0.1200  0.6910 -0.2257
   66MOL   C37844708   7.031   2.162   1.480 -0.0323  0.0280  0.4944
   66MOL   O37944709   7.038   2.065   1.382 -0.2211 -0.4168  0.6474
   66MOL   C38044710   6.908   2.205   1.526 -0.0236 -0.0142  0.4341
   66MOL   C38144711   6.904   2.320   1.610  0.0616 -0.1091  0.5887
   66MOL   C38244712   7.028   2.379   1.650 -0.2398 -0.6023  0.3108
   66MOL   C38344713   7.029   2.494   1.740 -0.0490  0.1067  0.0454
   66MOL   O38444714   6.973   2.488   1.848  0.7047 -0.1024  0.7655
   66MOL   C38544715   7.126   2.604   1.709 -0.1900  0.4505  0.6835
   66MOL   C38644716   7.159   2.626   1.576  0.1704 -0.2396 -0.4011
   66MOL   C38744717   7.249   2.732   1.547 -0.2181 -0.1258  0.4296
   66MOL   C38844718   7.287   2.824   1.648 -0.4562 -0.9107  0.2319
   66MOL   O38944719   7.361   2.934   1.612  0.4100  0.1642  0.0727
   66MOL   C39044720   7.483   2.916   1.551 -0.2947  0.7100 -0.1875
   66MOL   C39144721   7.503   2.985   1.438 -0.1235 -0.5959 -0.0508
   66MOL   C39244722   7.633   2.986   1.388  0.6885 -0.1691  0.7177
   66MOL   C39344723   7.740   2.917   1.448  0.6978 -0.0629 -0.6459
   66MOL   C39444724   7.717   2.844   1.565  0.1306 -0.0366 -0.0386
   66MOL   C39544725   7.587   2.847   1.614  0.3647 -0.2711  0.2455
   66MOL   C39644726   7.245   2.802   1.783 -0.0803 -0.8650  0.0915
   66MOL   C39744727   7.174   2.687   1.815  0.2622 -0.4359  0.3558
   66MOL   H39844728   7.245   2.365   1.648  0.0799  1.1534 -0.6582
   66MOL   H39944729   7.248   2.180   1.485  0.0807  2.1683 -1.8392
   66MOL   H40044730   6.817   2.154   1.498  1.5685 -2.2824 -0.7938
   66MOL   H40144731   6.812   2.360   1.649  0.2723 -0.4697  1.4510
   66MOL   H40244732   7.132   2.566   1.490  1.1992 -0.4351 -0.5922
   66MOL   H40344733   7.284   2.726   1.446 -0.3189  1.8649  0.2490
   66MOL   H40444734   7.424   3.050   1.402 -0.2121 -1.0464 -0.6663
   66MOL   H40544735   7.643   3.047   1.300  1.1171  0.1827  1.0064
   66MOL   H40644736   7.795   2.812   1.633  0.0127 -0.0889  0.0714
   66MOL   H40744737   7.573   2.798   1.709 -0.3607 -0.3815  0.0911
   66MOL   H40844738   7.266   2.870   1.864  2.2648 -3.1825  1.5355
   66MOL   H40944739   7.148   2.667   1.917  1.3032 -0.9196  0.5257
   66MOL   C41044740   7.957   3.133   1.098  0.4324  0.8539 -0.0898
   66MOL   C41144741   7.967   3.070   1.226 -0.8441  0.2668  1.1484
   66MOL   C41244742   7.880   2.964   1.261  0.0273 -0.4966 -0.3648
   66MOL   O41344743   7.870   2.924   1.392  0.5285 -0.6446 -0.2953
   66MOL   C41444744   7.817   2.894   1.159  0.6910  0.3851 -0.2071
   66MOL   C41544745   7.827   2.931   1.029 -0.5223 -0.6913  0.6616
   66MOL   C41644746   7.892   3.056   0.995 -0.5546 -0.8196  0.4859
   66MOL   C41744747   7.875   3.118   0.860 -0.1313 -0.4747 -0.5971
   66MOL   O41844748   7.773   3.093   0.791 -0.1345 -0.1903 -0.5338
   66MOL   C41944749   7.982   3.216   0.815  0.3443  0.2765  0.1288
   66MOL   C42044750   7.960   3.355   0.803 -0.4508  0.0462 -0.7391
   66MOL   C42144751   8.067   3.439   0.762 -0.0692  0.4432 -0.1361
   66MOL   C42244752   8.193   3.387   0.726  0.0258 -0.0841 -0.4414
   66MOL   O42344753   8.298   3.470   0.689 -0.1325 -0.3107 -0.1750
   66MOL   C42444754   8.294   3.526   0.561 -0.3012  0.9622  0.5107
   66MOL   C42544755   0.085   3.611   0.520  0.5352  1.0301 -0.5807
   66MOL   C42644756   0.077   3.677   0.396  0.0346 -0.1563 -0.4865
   66MOL   C42744757   8.295   3.648   0.293 -0.6110  0.2434 -0.1448
   66MOL   C42844758   8.200   3.547   0.334 -0.0097 -0.0686  0.5211
   66MOL   C42944759   8.201   3.487   0.464 -0.1879 -0.6980 -0.3748
   66MOL   C43044760   8.217   3.246   0.737 -0.6153 -0.7564  0.2211
   66MOL   C43144761   8.108   3.166   0.783  0.3766  0.2763  0.0285
   66MOL   H43244762   7.980   3.237   1.077  0.6949  0.8535  0.1926
   66MOL   H43344763   8.010   3.137   1.299 -0.0184  1.8068 -0.7137
   66MOL   H43444764   7.757   2.812   1.196 -0.9001  1.9401  0.7388
   66MOL   H43544765   7.781   2.877   0.948 -1.8446  1.5411 -0.1136
   66MOL   H43644766   7.872   3.405   0.841  0.9498  1.0029  1.3348
   66MOL   H43744767   8.055   3.546   0.768  0.6264  0.4871  0.5841
   66MOL   H43844768   0.157   3.631   0.598  0.0502 -2.0187  0.7320
   66MOL   H43944769   0.139   3.765   0.386 -1.6368  0.9791 -1.2358
   66MOL   H44044770   8.128   3.514   0.262  0.1096 -0.7670  0.7184
   66MOL   H44144771   8.126   3.413   0.486 -0.6013 -0.9972 -2.6220
   66MOL   H44244772   0.004   3.214   0.711 -0.0320  0.9623  0.2997
   66MOL   H44344773   8.121   3.059   0.787 -0.2006  0.2176  0.4011
   66MOL   C44444774   0.042   4.039   0.044 -0.2581 -0.5356  0.0952
   66MOL   C44544775   0.048   3.903   0.049 -0.1895 -0.8308  0.0520
   66MOL   C44644776   8.299   3.834   0.154  0.3996  0.0223 -0.1155
   66MOL   O44744777   8.299   3.702   0.164 -0.1771 -0.6994  0.1623
   66MOL   C44844778   8.227   3.909   0.250 -0.0038 -0.2033  0.4092
   66MOL   C44944779   8.201   4.049   0.238  0.2769 -0.2710 -0.3759
   66MOL   C45044780   8.275   4.112   0.139  0.0940 -0.0793  0.2023
   66MOL   C45144781   8.273   4.260   0.129 -0.3202  0.0242  0.6173
   66MOL   O45244782   0.035   4.319   0.054 -0.0863  0.3042 -0.7287
   66MOL   C45344783   8.171   4.331   0.202  0.7023 -0.5680 -0.5455
   66MOL   C45444784   8.030   4.300   0.186  0.4398  0.2561  0.3782
   66MOL   C45544785   7.931   4.369   0.248 -0.2047 -0.6065  0.4393
   66MOL   C45644786   7.966   4.475   0.331 -0.5468  0.1339 -0.2047
   66MOL   O45744787   7.869   4.559   0.391 -0.0723  0.4827 -0.4339
   66MOL   C45844788   7.846   4.553   0.529 -0.8601  0.5705 -0.7639
   66MOL   C45944789   7.889   4.442   0.604  0.2973 -0.3966 -0.3088
   66MOL   C46044790   7.858   4.431   0.738 -0.2782  0.1461  0.4321
   66MOL   C46144791   7.806   4.535   0.803 -0.3678  0.0069  0.2089
   66MOL   C46244792   7.766   4.648   0.730 -0.0120 -0.2826 -1.0870
   66MOL   C46344793   7.786   4.662   0.592 -0.3476 -0.7559 -0.1688
   66MOL   C46444794   8.098   4.515   0.347 -0.1361  0.3271  0.2438
   66MOL   C46544795   8.206   4.442   0.283 -0.7737  0.1662  0.1524
   66MOL   H46644796   0.085   4.077   8.265 -2.3485 -0.5360 -0.9129
   66MOL   H46744797   0.100   3.855   8.279  0.9561 -0.5157  0.5755
   66MOL   H46844798   8.180   3.861   0.335 -2.3646 -0.6028 -1.0550
   66MOL   H46944799   8.145   4.108   0.310  2.6523  1.8147 -0.1511
   66MOL   H47044800   8.011   4.222   0.114  0.9609 -0.6168  1.1595
   66MOL   H47144801   7.826   4.348   0.233 -0.4133 -0.1210  1.1867
   66MOL   H47244802   7.940   4.363   0.552 -0.0309 -0.1256 -1.0485
   66MOL   H47344803   7.872   4.343   0.798 -0.9980 -0.1516  0.1702
   66MOL   H47444804   7.715   4.727   0.783  1.9382  0.9786 -1.0561
   66MOL   H47544805   7.759   4.750   0.536  2.6711  0.3855  0.0848
   66MOL   H47644806   8.118   4.595   0.417 -1.5846  1.2724 -0.3915
   66MOL   H47744807   8.310   4.466   0.299 -0.5510 -1.2842  0.9253
   66MOL   C47844808   7.882   4.388   1.250  0.0836 -0.1203  0.1112
   66MOL   C47944809   7.792   4.446   1.151 -0.1946 -0.1135 -0.2985
   66MOL   C48044810   7.854   4.493   1.035 -0.0425  0.5330  0.3496
   66MOL   O48144811   7.769   4.537   0.939 -0.3326  0.1744  0.3720
   66MOL   C48244812   7.994   4.493   1.022 -0.0048 -0.2394  0.4968
   66MOL   C48344813   8.082   4.437   1.117  0.0496  0.2435 -0.1578
   66MOL   C48444814   8.022   4.392   1.237 -0.4760  0.6064  0.1912
   66MOL   C48544815   8.118   4.347   1.342  0.0738  0.0925 -0.7482
   66MOL   O48644816   8.087   4.353   1.457 -0.9283 -0.1443 -1.0542
   66MOL   C48744817   8.243   4.275   1.299  0.8873 -0.4650  0.2376
   66MOL   C48844818   0.055   4.348   1.313 -0.2864 -0.2173  0.3036
   66MOL   C48944819   0.174   4.283   1.285 -0.0777  0.0491  0.2210
   66MOL   C49044820   0.180   4.147   1.244  0.3640 -0.0190  0.9260
   66MOL   O49144821   0.302   4.087   1.229  0.4943  0.1352 -0.6981
   66MOL   C49244822   0.360   4.086   1.103 -0.7927 -0.2148  1.0453
   66MOL   C49344823   0.345   3.973   1.019  0.7015  0.3914 -0.0465
   66MOL   C49444824   0.409   3.973   0.895  0.5780  0.0661 -0.4745
   66MOL   C49544825   0.493   4.069   0.850  0.3230  0.1790  0.1908
   66MOL   C49644826   0.513   4.175   0.942  0.1913 -0.6264  0.3490
   66MOL   C49744827   0.442   4.193   1.059  0.6848  0.0355  0.1159
   66MOL   C49844828   0.064   4.067   1.240 -0.0640  0.5470  0.1451
   66MOL   C49944829   8.253   4.139   1.266 -0.2023 -0.0074  0.3101
   66MOL   H50044830   7.833   4.354   1.340 -0.7176  0.1486 -0.2195
   66MOL   H50144831   7.685   4.456   1.161 -0.4790 -0.6051 -2.6150
   66MOL   H50244832   8.030   4.521   0.925 -3.2694  0.2541 -0.6359
   66MOL   H50344833   8.186   4.436   1.089  0.1214  1.1947  0.0480
   66MOL   H50444834   0.058   4.449   1.350  0.8389  0.7521 -2.2938
   66MOL   H50544835   0.265   4.335   1.311  0.3350  0.0081 -1.1160
   66MOL   H50644836   0.298   3.888   1.064 -0.2361  1.2682  0.6621
   66MOL   H50744837   0.392   3.891   0.827 -1.2219  0.4190 -0.4969
   66MOL   H50844838   0.576   4.258   0.912 -2.3185  1.0535 -0.4641
   66MOL   H50944839   0.448   4.280   1.123 -1.5669  0.0891  0.2942
   66MOL   H51044840   0.074   3.960   1.234  1.7388  0.5199  2.8144
   66MOL   H51144841   8.174   4.065   1.262 -2.1572  1.9581  1.8473
   66MOL   C51244842   0.890   4.220   0.772 -0.7380 -0.4152  0.4340
   66MOL   C51344843   0.777   4.134   0.785 -0.2999  0.3063 -0.0361
   66MOL   C51444844   0.666   4.150   0.700 -0.2574 -0.0003 -0.0195
   66MOL   O51544845   0.557   4.070   0.724 -0.6347  0.1258 -0.2626
   66MOL   C51644846   0.669   4.229   0.585 -0.0303 -0.3032  0.6998
   66MOL   C51744847   0.778   4.324   0.574  0.4823 -0.2278 -0.5935
   66MOL   C51844848   0.885   4.322   0.676 -0.5935  0.3382  0.0482
   66MOL   C51944849   0.999   4.414   0.656 -0.5934  0.2154 -0.3451
   66MOL   O52044850   1.021   4.456   0.542  0.1076 -0.3249  0.4316
   66MOL   C52144851   1.100   4.447   0.762 -0.3770  0.0137 -0.4855
   66MOL   C52244852   1.230   4.476   0.725  0.7843 -0.5206  0.9247
   66MOL   C52344853   1.327   4.515   0.813 -0.9090 -0.0876  0.3575
   66MOL   C52444854   1.296   4.511   0.955 -0.3150  0.5077  0.0318
   66MOL   O52544855   1.392   4.553   1.044 -0.2948 -0.3607 -0.3450
   66MOL   C52644856   1.499   4.462   1.055  0.0343  0.3848 -0.4611
   66MOL   C52744857   1.477   4.342   1.132  0.2929 -0.0861 -0.7827
   66MOL   C52844858   1.581   4.252   1.153  1.1785 -0.2975  0.4955
   66MOL   C52944859   1.699   4.271   1.084 -0.3724 -0.3830 -0.2894
   66MOL   C53044860   1.725   4.384   1.006  0.4927  0.1262  0.0528
   66MOL   C53144861   1.621   4.482   0.995  0.5003 -0.1700  0.4215
   66MOL   C53244862   1.160   4.483   0.997 -0.5551 -0.1863 -0.1325
   66MOL   C53344863   1.061   4.456   0.900  0.2829  0.2012 -1.0379
   66MOL   H53444864   0.975   4.207   0.837  0.1773  1.3680 -0.3548
   66MOL   H53544865   0.772   4.059   0.863  2.0632 -0.5462 -0.6488
   66MOL   H53644866   0.580   4.225   0.525 -0.3438 -0.1722  1.1464
   66MOL   H53744867   0.778   4.393   0.491 -0.1058  0.9409  0.3662
   66MOL   H53844868   1.259   4.477   0.621  2.8872  0.6923  1.4718
   66MOL   H53944869   1.423   4.545   0.774 -1.9515  0.7671 -1.6485
   66MOL   H54044870   1.381   4.326   1.178 -0.3168 -1.4755 -2.5191
   66MOL   H54144871   1.562   4.163   1.211 -2.3159  0.6195  0.8937
   66MOL   H54244872   1.821   4.388   0.957  0.4976 -1.6268 -0.0860
   66MOL   H54344873   1.630   4.572   0.936 -2.2334 -0.5911 -0.7049
   66MOL   H54444874   1.133   4.497   1.100  0.1365  1.6687 -0.1913
   66MOL   H54544875   0.956   4.441   0.921  0.8322 -0.6213  1.3317
   66MOL   C54644876   1.914   4.118   1.422 -0.4112  0.4133  0.0253
   66MOL   C54744877   1.870   4.177   1.302  0.3522 -0.0763 -0.0095
   66MOL   C54844878   1.829   4.100   1.191  0.8592 -1.0259  0.1941
   66MOL   O54944879   1.789   4.167   1.078  0.2659  0.0014 -0.0023
   66MOL   C55044880   1.840   3.962   1.196  0.0992  0.6518 -0.2835
   66MOL   C55144881   1.898   3.901   1.308 -0.7634  0.3706 -0.0172
   66MOL   C55244882   1.925   3.976   1.428  0.2518  0.3548 -0.1664
   66MOL   C55344883   1.965   3.902   1.553  0.1683  0.4015  0.3807
   66MOL   O55444884   1.882   3.826   1.601  0.0825 -0.5716 -0.2012
   66MOL   C55544885   2.088   3.944   1.621  0.3767 -0.5582  0.0315
   66MOL   C55644886   2.110   3.936   1.758 -0.6020 -0.6211 -0.1285
   66MOL   C55744887   2.233   3.978   1.813  0.2764 -0.0645 -0.2344
   66MOL   C55844888   2.334   4.030   1.731  0.2272  0.2877  0.0548
   66MOL   O55944889   2.463   4.039   1.779 -0.1171  0.4221 -0.0794
   66MOL   C56044890   2.528   3.921   1.788 -0.0179  0.2809 -0.1985
   66MOL   C56144891   2.528   3.845   1.911  0.8582  0.5029  0.3000
   66MOL   C56244892   2.614   3.739   1.915 -0.2649  0.2845 -0.2994
   66MOL   C56344893   2.697   3.693   1.806  0.1387  0.2747  0.2591
   66MOL   C56444894   2.700   3.771   1.692 -0.1155 -0.3753  0.2453
   66MOL   C56544895   2.613   3.882   1.679 -0.3161  0.7054 -0.2641
   66MOL   C56644896   2.312   4.043   1.587 -0.8651  0.4173 -0.1465
   66MOL   C56744897   2.191   3.994   1.534  0.2756 -0.2495 -0.0903
   66MOL   H56844898   1.942   4.173   1.510  0.2586 -1.8981  1.2967
   66MOL   H56944899   1.858   4.284   1.307 -1.8125 -0.3547  1.2474
   66MOL   H57044900   1.814   3.902   1.110 -0.8781 -0.9019  1.0438
   66MOL   H57144901   1.905   3.794   1.296 -0.4759  0.3252  0.5505
   66MOL   H57244902   2.033   3.900   1.825 -0.1219  1.3204  1.5293
   66MOL   H57344903   2.257   3.955   1.916 -1.0305  1.3519  0.4077
   66MOL   H57444904   2.463   3.875   1.991 -0.7459  0.9498 -1.1520
   66MOL   H57544905   2.605   3.681   2.006 -1.1880 -1.2444 -1.3496
   66MOL   H57644906   2.766   3.732   1.616 -2.4168  0.9234 -2.5196
   66MOL   H57744907   2.608   3.937   1.586 -0.2452  1.2458  0.0468
   66MOL   H57844908   2.386   4.075   1.516  1.6608 -1.1666  1.6539
   66MOL   H57944909   2.181   4.012   1.428  0.7194 -1.9396 -0.4429
   66MOL   C58044910   2.835   3.408   2.142 -0.0353 -0.3390  0.7746
   66MOL   C58144911   2.839   3.521   2.050 -0.1126 -0.1287 -0.4962
   66MOL   C58244912   2.776   3.500   1.923 -0.7399 -0.3837 -0.1887
   66MOL   O58344913   2.793   3.589   1.822  0.1618 -0.6526  0.6646
   66MOL   C58444914   2.703   3.381   1.896  0.2224  0.2606 -0.1963
   66MOL   C58544915   2.684   3.281   1.993 -0.2068  0.3886  0.1447
   66MOL   C58644916   2.757   3.291   2.115 -0.7596  0.4958 -0.6455
   66MOL   C58744917   2.742   3.183   2.215 -0.8941 -0.3012 -0.9007
   66MOL   O58844918   2.774   3.196   2.336 -0.2826 -0.1255  0.4285
   66MOL   C58944919   2.679   3.054   2.170  0.1031  0.0451  0.0147
   66MOL   C59044920   2.765   2.951   2.118  0.3222 -0.3413 -0.3076
   66MOL   C59144921   2.705   2.831   2.079 -0.0618 -0.1056  0.5843
   66MOL   C59244922   2.566   2.807   2.098 -0.0122 -0.3411  0.0250
   66MOL   O59344923   2.524   2.679   2.059  0.3031  0.3501 -0.4890
   66MOL   C59444924   2.588   2.580   2.125 -0.0897 -0.1043 -0.4280
   66MOL   C59544925   2.556   2.558   2.265  0.1263 -0.0806  0.3123
   66MOL   C59644926   2.635   2.476   2.343 -0.2088 -0.2475 -0.1994
   66MOL   C59744927   2.742   2.401   2.291  0.2264 -0.0118 -0.0628
   66MOL   C59844928   2.770   2.415   2.153 -0.0195 -0.1343 -0.2443
   66MOL   C59944929   2.694   2.505   2.073 -0.5368 -0.1478  0.2943
   66MOL   C60044930   2.488   2.905   2.167  0.7817  0.2273  0.0454
   66MOL   C60144931   2.543   3.028   2.202 -0.6842  0.0202 -0.6913
   66MOL   H60244932   2.895   3.398   2.231  3.8105  1.1864 -1.5492
   66MOL   H60344933   2.889   3.614   2.072 -2.2133  0.9943 -0.4018
   66MOL   H60444934   2.673   3.374   1.793 -0.6702  2.8626 -0.1615
   66MOL   H60544935   2.632   3.191   1.966  1.5065 -0.1700 -1.4089
   66MOL   H60644936   2.866   2.980   2.096 -0.3740  0.1560 -3.1374
   66MOL   H60744937   2.756   2.755   2.021  1.6662  2.3325 -1.1995
   66MOL   H60844938   2.472   2.603   2.314 -1.9616 -1.0985 -2.1698
   66MOL   H60944939   2.606   2.459   2.445 -0.9302 -0.4473 -0.4332
   66MOL   H61044940   2.853   2.356   2.115  0.6328  2.4886 -3.0911
   66MOL   H61144941   2.704   2.505   1.965 -1.9115  1.8880  0.1421
   66MOL   H61244942   2.382   2.890   2.184  1.0811 -1.0096  0.9042
   66MOL   H61344943   2.482   3.103   2.250 -1.0889 -2.8119  3.4781
   66MOL   C61444944   3.135   2.130   2.402  0.1036  0.3431 -0.2242
   66MOL   C61544945   2.996   2.161   2.390 -0.2307 -0.1746 -0.3540
   66MOL   C61644946   2.947   2.293   2.361  0.4384  0.7486  0.2393
   66MOL   O61744947   2.808   2.317   2.377 -0.0156  0.6595  0.0876
   66MOL   C61844948   3.042   2.393   2.308 -0.4273  1.0913  0.2874
   66MOL   C61944949   3.184   2.366   2.329 -0.0279  0.2796 -0.1518
   66MOL   C62044950   3.232   2.235   2.373  0.4057  0.3167 -0.0963
   66MOL   C62144951   3.374   2.211   2.394 -0.2603  0.0465  1.0281
   66MOL   O62244952   3.413   2.103   2.413  0.5108 -0.4950 -0.4767
   66MOL   C62344953   3.466   2.327   2.377 -0.7649 -0.3100  0.2638
   66MOL   C62444954   3.456   2.450   2.442  1.0113 -0.2401  0.2036
   66MOL   C62544955   3.552   2.548   2.433  0.4856  0.4430  0.8691
   66MOL   C62644956   3.667   2.533   2.355 -0.4449 -0.6424  0.3282
   66MOL   O62744957   3.770   2.626   2.341  0.4205  0.1010  0.4286
   66MOL   C62844958   3.751   2.759   2.342 -0.4023 -0.7770 -0.6665
   66MOL   C62944959   3.845   2.838   2.413 -1.0929 -0.4379 -0.1086
   66MOL   C63044960   3.843   2.978   2.411  1.2173 -0.3348 -0.7005
   66MOL   C63144961   3.735   3.044   2.350 -0.0018  0.2066 -0.9423
   66MOL   C63244962   3.632   2.969   2.285  0.0224 -0.1358  0.6100
   66MOL   C63344963   3.641   2.826   2.279 -0.6035 -0.3605  0.5467
   66MOL   C63444964   3.682   2.414   2.277  0.5547  0.1380 -0.0431
   66MOL   C63544965   3.587   2.308   2.294 -0.3655  0.0534 -0.4436
   66MOL   H63644966   3.170   2.037   2.441  1.2614  1.9075  2.5733
   66MOL   H63744967   2.926   2.088   2.428 -1.0537  0.6535 -0.2533
   66MOL   H63844968   3.004   2.489   2.280 -2.4805  0.3438  0.4258
   66MOL   H63944969   3.255   2.438   2.291  1.0205 -0.6021  0.0978
   66MOL   H64044970   3.365   2.469   2.498 -0.2769 -0.4701 -1.7304
   66MOL   H64144971   3.535   2.636   2.493  0.4953  0.7668  0.3971
   66MOL   H64244972   3.926   2.782   2.457 -0.2553  1.1634  0.4378
   66MOL   H64344973   3.912   3.035   2.472 -0.3722  1.0104 -0.1132
   66MOL   H64444974   3.550   3.026   2.243 -1.0790 -2.0300  0.1260
   66MOL   H64544975   3.576   2.762   2.222 -0.9688  1.3073 -0.9976
   66MOL   H64644976   3.766   2.395   2.212 -0.7492  2.4208 -2.4809
   66MOL   H64744977   3.606   2.214   2.244  2.2922  2.0093 -3.2676
   66MOL   C64844978   3.688   3.300   2.020 -0.1917  0.8046  0.4089
   66MOL   C64944979   3.726   3.223   2.128 -0.0103  0.0150  0.3426
   66MOL   C65044980   3.694   3.263   2.260 -0.8952  0.4800 -0.1907
   66MOL   O65144981   3.729   3.183   2.364 -0.2630 -0.3428  0.6559
   66MOL   C65244982   3.629   3.386   2.272 -0.2582 -0.0091  0.0609
   66MOL   C65344983   3.589   3.464   2.163  0.0962  0.1179  1.2292
   66MOL   C65444984   3.610   3.415   2.032  0.0403 -0.7277  0.2666
   66MOL   C65544985   3.558   3.481   1.911  0.0950  0.8392  0.1322
   66MOL   O65644986   3.577   3.602   1.902  0.1618  0.2496  0.3939
   66MOL   C65744987   3.459   3.405   1.822  0.4744 -0.1433 -0.1291
   66MOL   C65844988   3.425   3.467   1.700  0.2461 -0.3328 -0.5712
   66MOL   C65944989   3.341   3.400   1.610 -0.4931 -0.4322 -0.4299
   66MOL   C66044990   3.302   3.266   1.634 -0.0645  0.2283  0.7555
   66MOL   O66144991   3.212   3.212   1.554 -0.1488  0.0223  0.7442
   66MOL   C66244992   3.257   3.140   1.444 -0.2753 -0.3412 -0.2372
   66MOL   C66344993   3.376   3.065   1.440 -0.5066  0.1067  0.3060
   66MOL   C66444994   3.416   2.997   1.327  0.9180  0.3694 -0.6180
   66MOL   C66544995   3.337   3.002   1.205 -0.5466  0.0830 -0.1112
   66MOL   C66644996   3.222   3.075   1.212  0.0998 -0.3822 -0.2553
   66MOL   C66744997   3.185   3.152   1.322 -0.3030 -0.5286  0.0288
   66MOL   C66844998   3.341   3.204   1.753 -0.1449 -0.1582 -0.6167
   66MOL   C66944999   3.423   3.269   1.845  0.0493 -0.5111  0.2677
   66MOL   H67045000   3.714   3.256   1.925 -0.5806 -2.4749  1.7638
   66MOL   H67145001   3.787   3.138   2.100  1.1278  0.9501 -0.0724
   66MOL   H67245002   3.616   3.436   2.367 -0.7440  1.0851 -0.5755
   66MOL   H67345003   3.554   3.565   2.181 -0.4807  0.3769 -1.0809
   66MOL   H67445004   3.453   3.570   1.685  2.6631 -0.9084 -0.1829
   66MOL   H67545005   3.320   3.453   1.519  0.5824 -0.2122 -0.5611
   66MOL   H67645006   3.438   3.062   1.528 -3.1403 -2.0578  2.1790
   66MOL   H67745007   3.505   2.936   1.331  2.1164  2.1173  0.3740
   66MOL   H67845008   3.166   3.090   1.121 -1.7289 -1.0967  0.7368
   66MOL   H67945009   3.096   3.213   1.326 -0.8832 -1.4045  0.4279
   66MOL   H68045010   3.312   3.100   1.758  2.0992 -0.7880 -0.0790
   66MOL   H68145011   3.458   3.216   1.932 -0.0669  2.1956  2.0127
   66MOL   H68245012   3.365   2.942   1.120  0.9912  1.1989 -0.4214
   67MOL     C145013   1.191   3.221   7.887  0.5611 -0.0993 -0.5319
   67MOL     C245014   1.156   3.139   7.992 -0.5433 -0.0324  0.3120
   67MOL     C345015   1.095   3.197   8.108 -0.1405  0.0085  0.3258
   67MOL     O445016   1.074   3.127   8.226  0.2522 -0.6142 -0.4570
   67MOL     C545017   1.051   3.329   8.102 -0.0974  0.2945 -0.4242
   67MOL     C645018   1.086   3.413   7.996  0.2218 -0.8623  0.6567
   67MOL     C745019   1.158   3.359   7.886  0.1234  0.0188 -0.0946
   67MOL     C845020   1.199   3.452   7.783 -0.4471 -0.6472  0.3234
   67MOL     O945021   1.179   3.577   7.791 -0.2926 -0.0256  0.0005
   67MOL    C1045022   1.267   3.396   7.667 -0.4522  0.5938 -0.2117
   67MOL    C1145023   1.196   3.321   7.571 -0.0364  0.4670  0.0367
   67MOL    C1245024   1.266   3.287   7.452 -0.4512  0.3414  0.4030
   67MOL    C1345025   1.407   3.307   7.436  0.0940 -0.3326  0.8247
   67MOL    O1445026   1.469   3.264   7.321  0.3509  0.3342  0.3124
   67MOL    C1545027   1.511   3.357   7.229 -1.1328 -0.1345 -0.7610
   67MOL    C1645028   1.436   3.375   7.110 -0.5252 -0.2572 -0.0678
   67MOL    C1745029   1.481   3.452   7.003 -0.6502 -0.5015  0.7795
   67MOL    C1845030   1.602   3.519   7.016 -0.5011 -0.3471  0.2040
   67MOL    C1945031   1.676   3.516   7.132 -0.3546  0.1547  0.1354
   67MOL    C2045032   1.630   3.437   7.245 -0.1373 -0.3418 -0.1627
   67MOL    C2145033   1.474   3.364   7.548  0.4682  0.7605 -0.3150
   67MOL    C2245034   1.403   3.419   7.658  0.6328 -0.7552  0.2445
   67MOL    H2345035   1.244   3.179   7.802 -2.2335 -2.8039 -1.0188
   67MOL    H2445036   1.183   3.035   8.002 -0.5376 -0.0272  0.3500
   67MOL    H2545037   1.004   3.368   8.191 -1.9704 -0.9020 -0.8471
   67MOL    H2645038   1.056   3.515   7.981 -1.3660 -1.3320  0.6337
   67MOL    H2745039   1.089   3.310   7.570 -0.1387  1.1791  1.8332
   67MOL    H2845040   1.214   3.248   7.366  1.6850  1.1539 -1.3332
   67MOL    H2945041   1.348   3.315   7.095 -0.3108 -0.5716 -0.0590
   67MOL    H3045042   1.416   3.465   6.918  1.2429  2.2710 -0.3413
   67MOL    H3145043   1.770   3.567   7.144  0.5580 -1.2846 -0.8517
   67MOL    H3245044   1.694   3.423   7.331  1.0202 -0.8338 -1.1031
   67MOL    H3345045   1.578   3.385   7.530  0.3416  2.0062  0.3598
   67MOL    H3445046   1.452   3.482   7.731 -0.4655 -0.0408  0.3701
   67MOL    H3545047   0.999   3.149   8.279  0.6049 -0.1285 -0.1587
   67MOL    C3645048   1.616   3.486   6.560 -0.3158  0.1354 -0.6315
   67MOL    C3745049   1.598   3.564   6.677 -0.6624 -0.7885 -0.0340
   67MOL    C3845050   1.664   3.538   6.800 -0.3082 -0.8969 -0.1281
   67MOL    O3945051   1.630   3.604   6.912 -0.0630 -0.5505  0.2189
   67MOL    C4045052   1.775   3.447   6.796  0.2631  0.0195 -0.3139
   67MOL    C4145053   1.792   3.360   6.680 -0.0954 -0.2581 -0.9674
   67MOL    C4245054   1.705   3.376   6.562 -1.2072 -0.0700 -0.6090
   67MOL    C4345055   1.742   3.289   6.440 -0.1444  0.3192  0.4029
   67MOL    O4445056   1.788   3.176   6.459  1.0734  0.1174 -1.3372
   67MOL    C4545057   1.730   3.344   6.304  0.0002 -0.0029 -0.2035
   67MOL    C4645058   1.754   3.481   6.283 -0.0231  0.0729 -0.0185
   67MOL    C4745059   1.749   3.534   6.151  0.6646 -0.0856  0.6407
   67MOL    C4845060   1.728   3.443   6.041  0.6118  0.1004 -0.4726
   67MOL    O4945061   1.716   3.495   5.912 -0.5483  0.3164 -0.1326
   67MOL    C5045062   1.827   3.546   5.850 -0.7515  0.0751  0.3399
   67MOL    C5145063   1.956   3.485   5.861  0.4982  0.3040 -0.1260
   67MOL    C5245064   2.060   3.551   5.805  0.0665  0.4945  0.1556
   67MOL    C5345065   2.044   3.671   5.730  0.1427  0.4575 -0.1438
   67MOL    C5445066   1.915   3.727   5.713  0.1743  0.0910 -0.4620
   67MOL    C5545067   1.807   3.659   5.773 -0.5488 -0.2705  0.2110
   67MOL    C5645068   1.719   3.310   6.065 -0.3433  0.1038  1.0498
   67MOL    C5745069   1.717   3.255   6.194 -0.8075  0.7715 -0.2341
   67MOL    H5845070   1.552   3.503   6.474  0.4961  0.9450 -1.0825
   67MOL    H5945071   1.525   3.643   6.686  1.8921  1.3846  2.3949
   67MOL    H6045072   1.834   3.427   6.885  0.3684  0.5051 -0.2760
   67MOL    H6145073   1.871   3.287   6.686  0.5268  0.4569 -0.3142
   67MOL    H6245074   1.787   3.550   6.360  0.7807  0.5491 -0.7797
   67MOL    H6345075   1.773   3.639   6.143  2.1245 -0.5593 -1.7703
   67MOL    H6445076   1.965   3.399   5.926 -2.7330 -0.2424 -0.2910
   67MOL    H6545077   2.159   3.508   5.815  0.0473  0.2955 -0.4894
   67MOL    H6645078   1.910   3.814   5.650  0.4254 -0.5038 -1.3233
   67MOL    H6745079   1.707   3.698   5.785 -0.1561  0.9380 -0.4395
   67MOL    H6845080   1.713   3.242   5.981 -0.1810  1.0451  0.2785
   67MOL    H6945081   1.701   3.150   6.212  0.5780  0.8379  1.4784
   67MOL    C7045082   2.515   3.769   5.683 -0.3452 -0.7013 -0.0727
   67MOL    C7145083   2.383   3.755   5.630  0.3105 -0.1194  0.1968
   67MOL    C7245084   2.271   3.754   5.717 -0.1833  0.7345  0.0297
   67MOL    O7345085   2.145   3.729   5.663  0.0598 -0.1553  0.2644
   67MOL    C7445086   2.291   3.784   5.850 -0.0468 -0.6685 -0.1177
   67MOL    C7545087   2.416   3.801   5.909 -0.5258 -0.5651 -0.9176
   67MOL    C7645088   2.531   3.802   5.822  0.4969 -0.0115 -0.6006
   67MOL    C7745089   2.677   3.832   5.861 -0.3113 -0.1770  0.1054
   67MOL    O7845090   2.750   3.889   5.778 -0.2364  0.1898 -0.1187
   67MOL    C7945091   2.711   3.810   6.001 -0.1222 -0.4532 -1.3647
   67MOL    C8045092   2.827   3.875   6.046  0.0610  0.4903 -0.2486
   67MOL    C8145093   2.870   3.861   6.177  0.4780  1.1005  0.3490
   67MOL    C8245094   2.804   3.762   6.261 -0.8148 -0.0952  0.2845
   67MOL    O8345095   2.850   3.734   6.389 -0.3980 -0.1829 -0.5003
   67MOL    C8445096   2.839   3.613   6.450  0.2798  0.1705  0.6617
   67MOL    C8545097   2.891   3.498   6.388 -1.0371 -0.2768  0.0864
   67MOL    C8645098   2.865   3.366   6.433  0.4295  0.0874 -0.2214
   67MOL    C8745099   2.783   3.349   6.542 -0.3157  0.0072  0.0962
   67MOL    C8845100   2.727   3.466   6.603 -0.7647 -0.7142 -0.0724
   67MOL    C8945101   2.757   3.598   6.558 -0.8922 -0.2653  0.1512
   67MOL    C9045102   2.689   3.690   6.210 -0.3755 -0.4574 -0.4659
   67MOL    C9145103   2.650   3.711   6.079 -0.0483 -0.0041 -0.1240
   67MOL    H9245104   2.602   3.756   5.620 -0.9350  0.3269 -1.1252
   67MOL    H9345105   2.385   3.732   5.524  2.0256 -0.5886  0.3088
   67MOL    H9445106   2.206   3.805   5.914 -0.3100  2.3503 -1.3680
   67MOL    H9545107   2.418   3.817   6.016 -1.1799  1.1327 -1.1502
   67MOL    H9645108   2.893   3.933   5.983 -0.4661 -0.1629 -1.4159
   67MOL    H9745109   2.951   3.913   6.226  0.9550  0.6790  0.0183
   67MOL    H9845110   2.946   3.508   6.296 -0.9540  0.6205  0.2243
   67MOL    H9945111   2.912   3.280   6.388  1.2259 -0.4687  1.6207
   67MOL   H10045112   2.660   3.452   6.686  0.4784 -1.1865  0.8755
   67MOL   H10145113   2.713   3.679   6.615  0.3916 -0.4267  1.4010
   67MOL   H10245114   2.637   3.617   6.269 -0.3304 -1.2293 -1.3761
   67MOL   H10345115   2.572   3.647   6.039 -0.0766  0.3982 -0.7106
   67MOL   C10445116   2.863   2.916   6.424  0.2582 -0.2173  0.4993
   67MOL   C10545117   2.789   3.034   6.450  0.1078  0.2735  0.3653
   67MOL   C10645118   2.812   3.104   6.570 -0.1179  0.3063  0.0285
   67MOL   O10745119   2.755   3.228   6.600  0.0282 -0.4017  0.3918
   67MOL   C10845120   2.905   3.059   6.656  0.3751  0.2400 -1.3345
   67MOL   C10945121   2.973   2.939   6.632  0.6668  0.1160  0.0797
   67MOL   C11045122   2.948   2.860   6.520  0.1871  0.1331 -0.2976
   67MOL   C11145123   3.007   2.726   6.517  0.4835 -0.0038  0.2979
   67MOL   O11245124   2.975   2.651   6.426 -0.1961 -0.3944 -0.2206
   67MOL   C11345125   3.107   2.683   6.619  0.5003 -0.1327  0.9306
   67MOL   C11445126   3.054   2.613   6.727  0.1963 -0.1321 -0.2156
   67MOL   C11545127   3.147   2.574   6.833  0.1563  0.1624  0.4080
   67MOL   C11645128   3.286   2.594   6.819 -0.0698 -0.1720 -0.9244
   67MOL   O11745129   3.357   2.555   6.931 -0.0975 -0.0656  0.0307
   67MOL   C11845130   3.486   2.598   6.944  0.4609  0.1188  0.0271
   67MOL   C11945131   3.591   2.500   6.967 -0.2560 -0.2420  0.2845
   67MOL   C12045132   3.719   2.541   7.001  0.3179  0.3720 -0.0156
   67MOL   C12145133   3.744   2.684   6.995 -0.2175  0.1067  0.4950
   67MOL   C12245134   3.640   2.779   6.976  1.0169  0.7883  0.1563
   67MOL   C12345135   3.508   2.734   6.950  0.3074 -0.0421  0.1166
   67MOL   C12445136   3.335   2.659   6.706  0.6480 -0.6272 -0.3424
   67MOL   C12545137   3.245   2.702   6.608  0.2930 -0.4205 -0.6916
   67MOL   H12645138   2.838   2.856   6.337  0.9878 -0.7745  0.6764
   67MOL   H12745139   2.722   3.072   6.374  0.3637  1.2545  0.6264
   67MOL   H12845140   2.934   3.112   6.745  0.4214 -0.7272 -0.7610
   67MOL   H12945141   3.037   2.889   6.703  0.2542 -2.0917 -1.0530
   67MOL   H13045142   2.952   2.581   6.741 -0.7068  3.3168  1.8295
   67MOL   H13145143   3.110   2.530   6.924 -2.8730  0.5520 -0.5630
   67MOL   H13245144   3.577   2.393   6.969 -1.2995 -0.2096 -2.6024
   67MOL   H13345145   3.795   2.464   7.001 -1.3087 -1.2632 -0.6429
   67MOL   H13445146   3.658   2.885   6.977 -1.8171  1.3576 -1.9466
   67MOL   H13545147   3.426   2.804   6.939  0.1717 -0.1681  0.3175
   67MOL   H13645148   3.441   2.667   6.687  0.9290 -1.7560  0.7315
   67MOL   H13745149   3.290   2.750   6.523  1.7513  0.6261  0.6478
   67MOL   C13845150   3.935   2.734   7.378 -0.5855 -0.0669 -0.8721
   67MOL   C13945151   3.932   2.695   7.245 -0.2745  0.8122  1.3757
   67MOL   C14045152   3.896   2.782   7.140  0.1704 -0.2813 -0.3905
   67MOL   O14145153   3.869   2.731   7.017  0.3848 -0.4146  0.1947
   67MOL   C14245154   3.863   2.911   7.177 -0.7170 -0.4722 -0.1016
   67MOL   C14345155   3.861   2.951   7.310 -0.4484 -0.2874  0.1946
   67MOL   C14445156   3.895   2.864   7.415 -0.6473 -0.0790 -0.4454
   67MOL   C14545157   3.894   2.915   7.553  0.2049  0.1002  0.8000
   67MOL   O14645158   3.809   2.999   7.584  0.3408  0.1264  0.3912
   67MOL   C14745159   3.990   2.866   7.653 -0.4966  0.0812 -0.4702
   67MOL   C14845160   4.125   2.864   7.612 -0.1880  0.0750 -0.6425
   67MOL   C14945161   4.229   2.811   7.693 -0.4998  0.6898 -0.3773
   67MOL   C15045162   4.194   2.756   7.817  0.1854  0.1680  0.0989
   67MOL   O15145163   4.296   2.706   7.899 -0.2614  0.2255 -0.1728
   67MOL   C15245164   4.270   2.632   8.009 -0.0208  0.2305 -0.7640
   67MOL   C15345165   4.321   2.675   8.131 -0.3027  0.2368 -0.2009
   67MOL   C15445166   4.295   2.604   8.246 -0.0214  0.0591 -0.4747
   67MOL   C15545167   4.214   2.497   8.246 -0.4271 -0.1498 -0.6181
   67MOL   C15645168   4.161   2.454   8.120  0.0835 -0.1201 -0.1927
   67MOL   C15745169   4.195   2.518   7.998 -0.4071  0.5615 -0.9911
   67MOL   C15845170   4.061   2.761   7.860  0.0603 -0.2560 -0.6103
   67MOL   C15945171   3.959   2.815   7.779  0.9425 -0.1942  0.3958
   67MOL   H16045172   3.964   2.663   7.453  1.9438  0.0921 -1.6653
   67MOL   H16145173   3.950   2.592   7.218  1.7540  1.7671 -1.0805
   67MOL   H16245174   3.839   2.985   7.101  1.3256  0.6771  0.3324
   67MOL   H16345175   3.829   3.051   7.335 -4.5097 -1.3123 -0.5854
   67MOL   H16445176   4.153   2.898   7.513  0.9476  0.7583 -0.1064
   67MOL   H16545177   4.332   2.818   7.664  0.0179  2.3923  1.6970
   67MOL   H16645178   4.382   2.764   8.135  2.2838 -1.4918  0.2838
   67MOL   H16745179   4.343   2.630   0.026 -0.4607  0.8805 -0.4760
   67MOL   H16845180   4.099   2.366   8.122 -0.9987  0.6409  0.9949
   67MOL   H16945181   4.156   2.480   7.905  1.1935 -1.5160 -0.8579
   67MOL   H17045182   4.042   2.731   7.962 -1.4961  1.5418 -0.3499
   67MOL   H17145183   3.854   2.817   7.805  0.6522 -1.7699 -0.5622
   67MOL   C17245184   4.401   2.167   0.135 -0.1133 -0.5108  0.0110
   67MOL   C17345185   4.358   2.298   0.117  0.2449 -0.2048 -0.1074
   67MOL   C17445186   4.224   2.314   0.077  0.4640  0.3318 -0.2860
   67MOL   O17545187   4.180   2.439   0.054  0.1611 -1.3211  0.2705
   67MOL   C17645188   4.137   2.210   0.054 -0.1824 -0.6754  0.1815
   67MOL   C17745189   4.187   2.076   0.071  0.6421  0.3501  0.4556
   67MOL   C17845190   4.322   2.056   0.104 -0.5370 -0.5789  0.8302
   67MOL   C17945191   4.380   1.920   0.114 -0.2565  0.2127 -0.3030
   67MOL   O18045192   4.322   1.837   0.179 -0.2381 -0.6146  0.3527
   67MOL   C18145193   4.509   1.897   0.044 -1.0191  0.0599 -0.0360
   67MOL   C18245194   4.564   1.983   8.264  0.0612 -0.1520 -0.0720
   67MOL   C18345195   4.687   1.948   8.201 -0.2881 -0.0065 -0.2174
   67MOL   C18445196   4.756   1.825   8.234 -0.1164  0.2763  0.0239
   67MOL   O18545197   4.877   1.790   8.177 -0.6255 -0.5825 -0.3580
   67MOL   C18645198   4.895   1.816   8.043  0.8916  0.0452 -0.3815
   67MOL   C18745199   4.818   1.740   7.950 -0.2075 -0.1268 -0.6815
   67MOL   C18845200   4.836   1.756   7.807  0.0143 -0.1738 -0.3031
   67MOL   C18945201   4.932   1.846   7.761 -0.7928  0.8589  0.2351
   67MOL   C19045202   5.000   1.927   7.854  1.3358 -0.9763 -0.8209
   67MOL   C19145203   4.979   1.915   7.995 -0.1728  0.0416  0.4605
   67MOL   C19245204   4.687   1.735   0.002 -0.6959 -0.8714 -0.4653
   67MOL   C19345205   4.565   1.768   0.065 -1.5866  0.4308 -0.1786
   67MOL   H19445206   4.507   2.154   0.149 -0.0125  0.9972  0.6893
   67MOL   H19545207   4.413   2.389   0.135 -3.9738  2.1523  1.6060
   67MOL   H19645208   4.037   2.229   0.016  0.6081 -0.2460 -1.7094
   67MOL   H19745209   4.119   1.996   0.045 -0.4543  0.9292  1.5041
   67MOL   H19845210   4.515   2.077   8.242 -1.8280 -0.7992  1.2417
   67MOL   H19945211   4.722   2.021   8.130 -0.8257  1.1958  0.7410
   67MOL   H20045212   4.748   1.666   7.985 -0.7794  0.5218 -0.4509
   67MOL   H20145213   4.769   1.706   7.740 -2.0601  0.6467  1.1270
   67MOL   H20245214   5.052   2.013   7.816  0.4768  0.2177  0.6607
   67MOL   H20345215   5.036   1.975   8.065 -2.3740  0.6764  1.7748
   67MOL   H20445216   4.741   1.643   0.023  0.7234 -0.0938 -0.6323
   67MOL   H20545217   4.520   1.695   0.131  2.8930 -0.6152  1.9215
   67MOL   C20645218   5.302   1.936   7.518 -0.2907 -0.0319 -0.0572
   67MOL   C20745219   5.166   1.958   7.556 -0.1843 -0.1640  0.2060
   67MOL   C20845220   5.079   1.845   7.578 -0.3966  0.6684 -0.6327
   67MOL   O20945221   4.951   1.864   7.624  0.1787  0.0251  0.0650
   67MOL   C21045222   5.132   1.716   7.565 -0.2174  0.4245 -0.2728
   67MOL   C21145223   5.272   1.693   7.535  0.3395 -0.8839  0.6051
   67MOL   C21245224   5.362   1.804   7.518  0.0814 -0.5641 -0.6729
   67MOL   C21345225   5.510   1.794   7.514 -0.2669  0.3146  0.3502
   67MOL   O21445226   5.577   1.894   7.534  0.2545  0.2525 -0.0264
   67MOL   C21545227   5.566   1.659   7.493  0.1605 -0.9166  0.5714
   67MOL   C21645228   5.543   1.596   7.365  0.3945  0.5611 -0.6345
   67MOL   C21745229   5.590   1.463   7.341 -0.1313  0.3570  0.2419
   67MOL   C21845230   5.663   1.395   7.442  0.3786  0.3028 -0.3225
   67MOL   O21945231   5.731   1.274   7.428  0.3116  0.0268 -0.0488
   67MOL   C22045232   5.652   1.158   7.406 -1.1742  0.2924  0.2085
   67MOL   C22145233   5.687   1.074   7.295 -0.4507 -0.6448 -0.6268
   67MOL   C22245234   5.601   0.968   7.253  0.9357 -0.3038  0.6245
   67MOL   C22345235   5.487   0.947   7.332 -0.4715 -0.5073  0.3870
   67MOL   C22445236   5.456   1.023   7.443  0.1413 -0.4872 -0.5855
   67MOL   C22545237   5.540   1.129   7.484  0.1330  1.0649 -0.3195
   67MOL   C22645238   5.669   1.453   7.571 -1.2063 -0.4511  0.2455
   67MOL   C22745239   5.628   1.585   7.591 -0.1412 -0.1049 -0.2176
   67MOL   H22845240   5.368   2.021   7.517 -0.9890  0.5175  0.1410
   67MOL   H22945241   5.137   2.059   7.581  0.2079  0.2475 -0.9457
   67MOL   H23045242   5.081   1.625   7.593  0.9453 -0.6808 -1.6732
   67MOL   H23145243   5.310   1.593   7.547  1.0713 -0.6085  0.5921
   67MOL   H23245244   5.493   1.645   7.283  1.7674  2.8506 -0.1492
   67MOL   H23345245   5.585   1.419   7.243 -0.5191  0.8432  0.0447
   67MOL   H23445246   5.779   1.093   7.241  0.2053 -0.9676  0.3601
   67MOL   H23545247   5.602   0.911   7.161  2.6601  0.6514  0.0320
   67MOL   H23645248   5.368   0.994   7.498  0.2686 -0.7003 -0.4946
   67MOL   H23745249   5.521   1.183   7.576  0.1062 -0.7875  0.7890
   67MOL   H23845250   5.702   1.385   7.648 -2.1029  1.1677  2.1024
   67MOL   H23945251   5.629   1.632   7.688  0.4210  0.9252 -0.7140
   67MOL   C24045252   5.574   0.561   7.475 -0.0141 -0.1126  0.5349
   67MOL   C24145253   5.554   0.682   7.404 -0.2868 -0.3937 -0.5223
   67MOL   C24245254   5.424   0.728   7.371  0.1838 -0.2551  0.3750
   67MOL   O24345255   5.403   0.844   7.305  0.4622 -0.5421  0.1077
   67MOL   C24445256   5.315   0.637   7.387 -0.1397  0.1114 -0.4154
   67MOL   C24545257   5.339   0.514   7.445  0.4479 -0.3036 -0.1274
   67MOL   C24645258   5.462   0.479   7.502  0.4353  0.1122  0.2846
   67MOL   C24745259   5.476   0.360   7.598  1.0357  0.2752  0.0673
   67MOL   O24845260   5.445   0.243   7.562  0.5122  0.0985 -0.3714
   67MOL   C24945261   5.537   0.396   7.732  0.0717 -0.6404 -0.1936
   67MOL   C25045262   5.627   0.312   7.794 -0.1604  0.7974  1.0169
   67MOL   C25145263   5.699   0.351   7.906 -0.7603  0.0439 -0.6069
   67MOL   C25245264   5.672   0.474   7.970  0.7653  0.1764  0.4019
   67MOL   O25345265   5.748   0.522   8.067 -0.0807 -0.5713  0.1769
   67MOL   C25445266   5.695   0.517   8.192 -0.2791  0.0548  0.3596
   67MOL   C25545267   5.659   0.392   8.248 -0.9272 -0.6000  0.4756
   67MOL   C25645268   5.596   0.387   0.061 -0.1952 -0.8535  0.1598
   67MOL   C25745269   5.578   0.507   0.135 -0.4481 -0.3745  0.0273
   67MOL   C25845270   5.616   0.630   0.080  0.7046  0.0407 -0.3355
   67MOL   C25945271   5.663   0.634   8.259 -0.2286  0.4708  0.4676
   67MOL   C26045272   5.588   0.567   7.906  0.0694 -1.1263 -0.2805
   67MOL   C26145273   5.510   0.521   7.792 -0.0592  0.0934 -0.5885
   67MOL   H26245274   5.674   0.544   7.512  0.0875  0.4740  0.5412
   67MOL   H26345275   5.636   0.735   7.358 -0.6312 -0.0769 -0.7720
   67MOL   H26445276   5.212   0.660   7.363  0.1143  0.5854 -1.0694
   67MOL   H26545277   5.261   0.443   7.468  0.4234 -1.2653 -2.9991
   67MOL   H26645278   5.644   0.216   7.746  2.3470  1.6951  0.0252
   67MOL   H26745279   5.784   0.299   7.948 -1.0848 -0.2654 -0.3150
   67MOL   H26845280   5.709   0.308   8.202  0.7795 -0.5736  2.2017
   67MOL   H26945281   5.581   0.291   0.107  4.1731 -0.5697  2.3531
   67MOL   H27045282   5.600   0.722   0.134  1.4272  0.2094 -0.4133
   67MOL   H27145283   5.691   0.728   8.214 -2.1690  0.8127 -0.0883
   67MOL   H27245284   5.578   0.668   7.943  1.0758 -0.8850 -0.6494
   67MOL   H27345285   5.444   0.594   7.747 -1.3815 -0.3806  0.5315
   67MOL   C27445286   5.813   0.514   0.490 -0.0165 -0.1781  0.3745
   67MOL   C27545287   5.732   0.546   0.382 -0.0043  0.5225 -0.1442
   67MOL   C27645288   5.616   0.468   0.359 -0.1374 -0.1242  0.9646
   67MOL   O27745289   5.521   0.502   0.261  0.4549  0.2894 -0.0885
   67MOL   C27845290   5.590   0.348   0.430  0.5944 -0.0028  0.0945
   67MOL   C27945291   5.669   0.317   0.543 -0.3410 -0.1481 -0.2720
   67MOL   C28045292   5.783   0.405   0.572  0.2855 -0.1488  0.3832
   67MOL   C28145293   5.874   0.376   0.689  0.1197 -0.3272  0.2482
   67MOL   O28245294   5.856   0.424   0.797 -0.1350 -0.2700 -0.0061
   67MOL   C28345295   5.993   0.289   0.662  0.7941  0.3461 -0.3224
   67MOL   C28445296   6.093   0.276   0.756 -0.5533  0.1281 -0.2730
   67MOL   C28545297   6.210   0.201   0.734 -0.3585  0.1159  0.2057
   67MOL   C28645298   6.224   0.139   0.610  0.0879 -0.5917  0.0041
   67MOL   O28745299   6.335   0.070   0.580  0.5021  0.1555  0.0838
   67MOL   C28845300   6.420   0.131   0.496  1.1449  0.1071 -0.0058
   67MOL   C28945301   6.422   0.100   0.358  0.4215 -0.5633 -0.0944
   67MOL   C29045302   6.515   0.167   0.273 -0.2480 -0.0807  0.1205
   67MOL   C29145303   6.609   0.260   0.320  0.0966  0.7005 -0.4071
   67MOL   C29245304   6.615   0.284   0.458  0.6525 -0.1699  0.1168
   67MOL   C29345305   6.523   0.216   0.545  0.0377  0.4185 -0.0927
   67MOL   C29445306   6.125   0.147   0.508 -0.2193  0.1709  0.3012
   67MOL   C29545307   6.014   0.229   0.534  0.1118 -0.4664 -0.4440
   67MOL   H29645308   5.891   0.583   0.518  1.3053 -1.2555 -0.5670
   67MOL   H29745309   5.744   0.635   0.322  1.3941  1.3692  1.3190
   67MOL   H29845310   5.510   0.284   0.395  0.1379  0.3294  0.5101
   67MOL   H29945311   5.640   0.237   0.608  1.5188  0.9767  2.0289
   67MOL   H30045312   6.081   0.327   0.851  3.0412  1.0337 -0.2157
   67MOL   H30145313   6.280   0.174   0.812  0.7301 -0.0943 -0.8341
   67MOL   H30245314   6.352   0.034   0.310  1.6031 -1.8021 -0.1463
   67MOL   H30345315   6.521   0.141   0.169  2.6288 -1.8865  0.6795
   67MOL   H30445316   6.691   0.346   0.503 -0.6458  0.1596  1.9062
   67MOL   H30545317   6.533   0.233   0.652  0.1469  1.1831 -0.2177
   67MOL   H30645318   6.137   0.111   0.407  0.0227 -0.8465  0.6862
   67MOL   H30745319   5.945   0.240   0.452  0.8272  1.0541 -0.8584
   67MOL   C30845320   6.612   0.675   0.286 -0.0287  0.3145 -0.7596
   67MOL   C30945321   6.594   0.541   0.268  0.5247  0.1570  0.4182
   67MOL   C31045322   6.709   0.459   0.254  0.5828  0.8692 -0.4768
   67MOL   O31145323   6.698   0.318   0.240 -0.0350 -0.4909 -0.5341
   67MOL   C31245324   6.842   0.517   0.252  0.3001  0.5105 -0.5339
   67MOL   C31345325   6.856   0.656   0.284  0.2877 -0.1292  0.1428
   67MOL   C31445326   6.739   0.736   0.295  0.4450 -1.0869  0.0962
   67MOL   C31545327   6.740   0.882   0.324 -0.2395 -0.4947  0.4406
   67MOL   O31645328   6.643   0.952   0.297 -0.6411 -0.0725 -0.9630
   67MOL   C31745329   6.866   0.935   0.388 -0.3283 -0.3428 -0.1086
   67MOL   C31845330   6.921   1.047   0.339  0.9961  0.2230  0.9396
   67MOL   C31945331   7.040   1.095   0.384  0.0733 -0.4783  0.1085
   67MOL   C32045332   7.091   1.046   0.507 -0.6227  0.4105 -0.3524
   67MOL   O32145333   7.205   1.102   0.558  0.6054 -0.0218  0.1047
   67MOL   C32245334   7.318   1.029   0.574  0.3206 -0.0429  0.3760
   67MOL   C32345335   7.396   1.010   0.462 -0.6106 -0.5092  0.3240
   67MOL   C32445336   7.529   0.961   0.477 -0.3164  0.4598 -0.5535
   67MOL   C32545337   7.581   0.924   0.604 -0.4171 -0.1036  0.1781
   67MOL   C32645338   7.489   0.942   0.717 -0.0694 -0.4474 -0.1642
   67MOL   C32745339   7.366   0.994   0.701 -0.3456 -0.3915  0.6933
   67MOL   C32845340   7.030   0.936   0.572  0.0331  0.7004 -0.0661
   67MOL   C32945341   6.918   0.878   0.505 -0.2631 -0.1532 -0.0658
   67MOL   H33045342   6.525   0.737   0.303 -1.1168 -0.9860 -1.4803
   67MOL   H33145343   6.492   0.510   0.283  0.0382  0.0340 -2.8180
   67MOL   H33245344   6.919   0.441   0.254  0.0052  0.1925 -1.0161
   67MOL   H33345345   6.954   0.695   0.307  0.7166 -3.0733  3.8269
   67MOL   H33445346   6.882   1.109   0.261 -1.1258 -0.6632  1.2726
   67MOL   H33545347   7.087   1.179   0.336  0.6317 -1.3123 -0.8280
   67MOL   H33645348   7.357   1.040   0.366 -0.1855  1.2318  0.6824
   67MOL   H33745349   7.592   0.947   0.390 -0.0343 -0.5616 -0.1922
   67MOL   H33845350   7.535   0.927   0.814 -1.6595  0.4473  0.7447
   67MOL   H33945351   7.321   1.021   0.795 -1.1120 -0.5648  0.3824
   67MOL   H34045352   7.055   0.878   0.659  2.7363  1.7123 -0.1121
   67MOL   H34145353   6.873   0.790   0.549 -2.5157  1.7009  1.4322
   67MOL   C34245354   7.891   0.660   0.828 -0.8772 -0.0460 -0.2880
   67MOL   C34345355   7.843   0.773   0.755 -0.3136  0.4249  0.7363
   67MOL   C34445356   7.733   0.760   0.667 -0.4870  0.0471 -0.5884
   67MOL   O34545357   7.705   0.874   0.602  0.3436 -0.5516 -0.0761
   67MOL   C34645358   7.679   0.627   0.645  0.5493 -0.8020 -0.2204
   67MOL   C34745359   7.725   0.521   0.726 -0.2536  0.4488 -0.3439
   67MOL   C34845360   7.830   0.532   0.817  0.1335 -0.0470  0.5649
   67MOL   C34945361   7.870   0.418   0.899 -0.3082  0.3198 -0.5945
   67MOL   O35045362   7.903   0.437   1.013 -0.8931  0.8386  0.0238
   67MOL   C35145363   7.875   0.274   0.843 -0.1543 -0.6467 -0.5476
   67MOL   C35245364   7.857   0.161   0.928  0.0628  0.1630 -0.4630
   67MOL   C35345365   7.839   0.029   0.879  0.4842  0.5417 -0.2824
   67MOL   C35445366   7.854   0.004   0.741  0.0814 -0.6703 -0.3427
   67MOL   O35545367   7.837   8.185   0.707  0.0490  0.5618 -0.4007
   67MOL   C35645368   7.881   8.129   0.587 -0.9304 -0.8015 -0.7553
   67MOL   C35745369   7.793   8.067   0.494  0.2294 -0.7066  0.1455
   67MOL   C35845370   7.841   8.018   0.370  0.3427  0.6172 -0.9611
   67MOL   C35945371   7.981   8.033   0.345  0.3734  0.3280 -0.0501
   67MOL   C36045372   8.076   8.082   0.437 -0.1237  0.2051  0.2728
   67MOL   C36145373   8.023   8.132   0.561  0.6435  0.3202  0.6725
   67MOL   C36245374   7.877   0.118   0.659  0.2146 -0.3493 -0.1132
   67MOL   C36345375   7.884   0.247   0.707  0.3014 -0.0713  0.3449
   67MOL   H36445376   7.961   0.673   0.909 -1.3775 -3.1795  0.7113
   67MOL   H36545377   7.880   0.873   0.771 -2.3897  1.2423  0.6699
   67MOL   H36645378   7.597   0.611   0.577  0.4627  1.5664 -0.7227
   67MOL   H36745379   7.668   0.431   0.707 -0.4830  0.5367 -0.0718
   67MOL   H36845380   7.845   0.180   1.034 -2.5789  2.2375 -1.0883
   67MOL   H36945381   7.817   8.259   0.945  1.6113  0.5933  0.1686
   67MOL   H37045382   7.689   8.058   0.521  0.1153 -0.8893 -0.3440
   67MOL   H37145383   7.782   7.973   0.291 -0.6758  1.0283 -0.4400
   67MOL   H37245384   8.182   8.081   0.415  0.0343 -2.4575  0.9488
   67MOL   H37345385   8.080   8.186   0.635  0.8754  1.7061 -0.5027
   67MOL   H37445386   7.884   0.097   0.554  0.3284  1.5737 -0.5146
   67MOL   H37545387   7.902   0.329   0.638 -1.2909  0.3578  0.4363
   67MOL   C37645388   8.033   8.289   0.017 -0.1354 -0.4417  0.8558
   67MOL   C37745389   7.975   8.184   0.085  0.0584  0.0410  0.5349
   67MOL   C37845390   8.061   8.079   0.132 -0.3065 -0.0007  0.1914
   67MOL   O37945391   8.020   7.988   0.224  0.3669 -0.7546 -0.7080
   67MOL   C38045392   8.196   8.078   0.100 -0.1121 -1.0428  0.0036
   67MOL   C38145393   8.252   8.178   0.019 -0.8274 -0.6449 -0.1102
   67MOL   C38245394   8.168   8.288   8.293 -0.4291  0.4655 -0.5501
   67MOL   C38345395   8.233   0.090   8.229  0.0207  0.4922 -0.3535
   67MOL   O38445396   0.042   0.087   8.205  0.1596  0.1915 -0.4174
   67MOL   C38545397   8.151   0.210   8.198 -0.5190  0.1306  0.0403
   67MOL   C38645398   8.076   0.201   8.076  0.2594 -0.3714  0.5843
   67MOL   C38745399   8.004   0.316   8.042  0.2113  0.3733  0.2921
   67MOL   C38845400   8.001   0.428   8.127 -0.1981 -0.4683 -0.4439
   67MOL   O38945401   7.930   0.543   8.097  0.1439  0.1461 -0.3710
   67MOL   C39045402   7.796   0.522   8.085  0.1257 -0.6555 -0.1236
   67MOL   C39145403   7.733   0.522   7.958  0.0027 -0.4466  0.4802
   67MOL   C39245404   7.589   0.511   7.950 -0.2704 -0.0045 -0.2540
   67MOL   C39345405   7.510   0.499   8.068  0.0498  0.1528  0.4539
   67MOL   C39445406   7.577   0.503   8.190  0.9358 -0.0003 -0.2695
   67MOL   C39545407   7.716   0.510   8.201 -0.0756 -0.0984 -0.9836
   67MOL   C39645408   8.079   0.432   8.247 -0.2824 -0.1704  0.1032
   67MOL   C39745409   8.148   0.315   8.282 -0.5744  0.2162 -0.0239
   67MOL   H39845410   7.966   0.057   8.305 -0.3596 -0.4232  1.5103
   67MOL   H39945411   7.871   8.182   0.114 -1.0412 -0.4779 -3.1247
   67MOL   H40045412   8.256   7.998   0.142  0.3354 -1.9176 -2.2446
   67MOL   H40145413   0.045   8.175   8.307 -0.9336  3.1841 -1.3864
   67MOL   H40245414   8.087   0.104   8.031 -0.3989 -0.4682  0.6369
   67MOL   H40345415   7.957   0.327   7.945 -1.6670  3.1946  1.4721
   67MOL   H40445416   7.780   0.535   7.861 -0.0226 -0.8245  0.4175
   67MOL   H40545417   7.534   0.527   7.858  0.7375  1.2264 -0.6434
   67MOL   H40645418   7.510   0.492   8.273  1.4914  1.2755  0.3628
   67MOL   H40745419   7.770   0.514   8.295 -0.9379  1.4522 -0.5381
   67MOL   H40845420   8.073   0.521   8.307 -1.4216  0.0659 -0.3555
   67MOL   H40945421   8.186   0.311   0.070 -0.5460 -2.9240 -0.0917
   67MOL   C41045422   7.143   0.674   8.292  0.6425 -0.2068  0.9880
   67MOL   C41145423   7.213   0.577   8.223  0.2593  0.6507  0.0948
   67MOL   C41245424   7.321   0.613   8.138 -0.5113 -0.7494  0.0218
   67MOL   O41345425   7.377   0.516   8.059 -0.2284  0.2017  0.9405
   67MOL   C41445426   7.358   0.747   8.130  0.0698 -0.4436 -0.0230
   67MOL   C41545427   7.278   0.851   8.190 -0.1547  0.5185  0.2567
   67MOL   C41645428   7.176   0.811   8.275  0.4921  1.2128  0.1988
   67MOL   C41745429   7.101   0.919   0.039  0.1146  0.6237  0.4571
   67MOL   O41845430   6.987   0.893   0.086 -0.3283  0.0742 -0.0412
   67MOL   C41945431   7.149   1.058   0.039  0.0828  0.1028  0.3568
   67MOL   C42045432   7.280   1.099   0.073  0.0810 -0.7064  0.2911
   67MOL   C42145433   7.317   1.238   0.055 -0.3557 -0.4409 -0.6858
   67MOL   C42245434   7.218   1.335   0.030 -0.4878  0.4142  0.6590
   67MOL   O42345435   7.248   1.460   0.005 -0.1238 -0.4187  0.1554
   67MOL   C42445436   7.217   1.517   8.195  0.5951  0.2897  0.0106
   67MOL   C42545437   7.283   1.483   8.077  0.2743  0.1825  0.7340
   67MOL   C42645438   7.265   1.551   7.952  0.2467  0.1579  0.0384
   67MOL   C42745439   7.156   1.645   7.946  1.0976 -0.8180  1.3515
   67MOL   C42845440   7.086   1.675   8.064 -0.0124 -0.9010 -0.2832
   67MOL   C42945441   7.120   1.621   8.190 -0.3408  0.1411 -0.1623
   67MOL   C43045442   7.086   1.296   0.016 -1.0298  0.6310 -0.1322
   67MOL   C43145443   7.051   1.160   0.012  0.0164 -0.2693 -0.3807
   67MOL   H43245444   7.055   0.645   0.035  0.0810 -2.1656 -0.8320
   67MOL   H43345445   7.184   0.473   8.230 -0.8334  0.9595  0.3550
   67MOL   H43445446   7.431   0.771   8.053 -0.6447  2.9487  0.2591
   67MOL   H43545447   7.313   0.953   8.178  0.5003  0.2952  0.2573
   67MOL   H43645448   7.347   1.017   0.096  1.1976  0.2786  0.6147
   67MOL   H43745449   7.415   1.279   0.072 -0.2693 -0.4231 -1.2251
   67MOL   H43845450   7.367   1.415   8.087  0.7093  0.9296  2.2899
   67MOL   H43945451   7.317   1.526   7.862 -1.2571 -0.6170 -0.6308
   67MOL   H44045452   6.997   1.735   8.049 -0.6374 -1.3419  1.5641
   67MOL   H44145453   7.069   1.640   8.283  2.0285  1.9832  0.8198
   67MOL   H44245454   7.019   1.379   0.002 -0.0606  1.4108 -0.2365
   67MOL   H44345455   6.949   1.134   8.299  0.2973 -1.7034 -0.1197
   67MOL   C44445456   7.036   1.426   7.580 -0.1154 -0.7524  0.0776
   67MOL   C44545457   7.029   1.500   7.703 -0.1311 -0.2957 -0.3974
   67MOL   C44645458   7.109   1.614   7.721 -0.3717 -0.6227 -0.2096
   67MOL   O44745459   7.103   1.696   7.829  0.7004  0.5451  0.0248
   67MOL   C44845460   7.200   1.649   7.622 -0.0190  0.1235  0.4982
   67MOL   C44945461   7.215   1.572   7.508  0.1728  0.3074 -0.5536
   67MOL   C45045462   7.130   1.462   7.479  0.1310 -0.7120  0.1000
   67MOL   C45145463   7.141   1.394   7.351  0.7080  0.9886  0.2499
   67MOL   O45245464   7.194   1.448   7.259 -0.1366  0.3139  0.2802
   67MOL   C45345465   7.085   1.259   7.334  0.0829 -0.2205  0.0972
   67MOL   C45445466   7.122   1.162   7.428  0.4878  0.0574  0.0087
   67MOL   C45545467   7.086   1.024   7.414  0.4009  0.1287 -0.7526
   67MOL   C45645468   6.994   0.988   7.314  0.4944 -0.8754 -0.1434
   67MOL   O45745469   6.960   0.859   7.287  0.7129 -0.0134  0.0749
   67MOL   C45845470   7.045   0.792   7.197 -0.1025  0.3066  0.3963
   67MOL   C45945471   7.052   0.823   7.060  0.7308  0.2947 -0.3776
   67MOL   C46045472   7.140   0.761   6.971 -0.4933 -0.0342  0.1152
   67MOL   C46145473   7.212   0.650   7.018  0.4190  0.0153  0.0355
   67MOL   C46245474   7.211   0.614   7.154  0.1948 -0.0681 -0.0229
   67MOL   C46345475   7.131   0.692   7.244 -0.5193  0.0253  0.1289
   67MOL   C46445476   6.935   1.089   7.230  0.1971  0.4631 -0.0977
   67MOL   C46545477   6.991   1.219   7.237 -0.3253  0.3810 -0.2243
   67MOL   H46645478   6.966   1.347   7.560  1.2603 -1.4605 -2.0821
   67MOL   H46745479   6.952   1.465   7.770 -0.3144  1.6633  0.4438
   67MOL   H46845480   7.275   1.726   7.636 -0.8724  1.3263 -1.3646
   67MOL   H46945481   7.294   1.594   7.437  1.0045  1.2885  0.6455
   67MOL   H47045482   7.188   1.176   7.512  0.5122  1.0836 -0.1734
   67MOL   H47145483   7.122   0.953   7.487  3.0446  2.9710  0.8209
   67MOL   H47245484   6.993   0.902   7.016  0.4897  0.5227  0.3460
   67MOL   H47345485   7.146   0.781   6.865 -0.0745  0.3567  0.2068
   67MOL   H47445486   7.268   0.526   7.180 -0.4214 -1.0678 -1.9526
   67MOL   H47545487   7.139   0.661   7.347  2.2504 -0.0586 -0.0651
   67MOL   H47645488   6.853   1.076   7.161 -1.1788  1.2635  1.3435
   67MOL   H47745489   6.963   1.297   7.168  0.3840 -0.8921 -1.9949
   67MOL   C47845490   7.442   0.631   6.609 -0.4383  0.6998 -0.0276
   67MOL   C47945491   7.347   0.597   6.705  0.1168 -0.0907  0.5864
   67MOL   C48045492   7.369   0.627   6.840 -0.1489 -0.6102 -0.1516
   67MOL   O48145493   7.282   0.573   6.933  0.1454 -0.6367  0.0282
   67MOL   C48245494   7.465   0.724   6.879 -0.6889  0.3816 -0.6034
   67MOL   C48345495   7.551   0.778   6.777 -0.1089  0.3931 -0.2865
   67MOL   C48445496   7.542   0.731   6.643  0.4566 -0.5044  0.9052
   67MOL   C48545497   7.635   0.781   6.538 -0.4657  0.5895  1.1712
   67MOL   O48645498   7.755   0.784   6.566  0.2879 -0.2329 -0.0074
   67MOL   C48745499   7.574   0.829   6.406 -0.4547  0.3388  0.5509
   67MOL   C48845500   7.437   0.839   6.389 -0.6621  0.4723  0.2647
   67MOL   C48945501   7.387   0.858   6.262 -0.1563  0.6660 -0.3762
   67MOL   C49045502   7.467   0.882   6.148  0.6754 -0.4377 -0.8076
   67MOL   O49145503   7.423   0.879   6.010 -0.2939  0.0906  0.7035
   67MOL   C49245504   7.428   0.992   5.932 -0.3572  0.6778 -0.2300
   67MOL   C49345505   7.400   0.970   5.795 -0.4392  0.5182 -0.5285
   67MOL   C49445506   7.389   1.076   5.704  0.0436 -0.1712 -0.9204
   67MOL   C49545507   7.395   1.211   5.755 -0.5621  0.4656  0.2971
   67MOL   C49645508   7.430   1.230   5.891  0.3639  0.3851  0.0678
   67MOL   C49745509   7.454   1.126   5.980 -0.5724  0.1541  0.2982
   67MOL   C49845510   7.604   0.891   6.174  0.3162 -0.1966 -0.0522
   67MOL   C49945511   7.660   0.865   6.298 -0.4703 -0.2644  0.4675
   67MOL   H50045512   7.433   0.596   6.508  1.5861  1.2042 -0.4131
   67MOL   H50145513   7.261   0.541   6.671 -0.1733  1.0518 -0.6152
   67MOL   H50245514   7.483   0.757   6.980  1.9915 -0.2351 -0.8489
   67MOL   H50345515   7.616   0.863   6.797  0.3317 -0.2146  0.9431
   67MOL   H50445516   7.370   0.832   6.474 -1.4934 -0.4690 -0.4561
   67MOL   H50545517   7.280   0.867   6.248 -0.2744  2.6827  1.5033
   67MOL   H50645518   7.401   0.867   5.760  0.2901 -0.6644  2.8404
   67MOL   H50745519   7.364   1.061   5.600 -1.8177  0.5320 -0.5894
   67MOL   H50845520   7.428   1.331   5.928 -0.2397  0.5648 -0.4495
   67MOL   H50945521   7.473   1.154   6.082  1.2563  1.5919 -0.4056
   67MOL   H51045522   7.673   0.913   6.093  1.3045  0.1072  0.8671
   67MOL   H51145523   7.766   0.877   6.317 -0.2932  1.4841 -1.3584
   67MOL   C51245524   7.017   1.221   5.545  0.2597 -0.0893 -0.2946
   67MOL   C51345525   7.120   1.241   5.642  0.1998  0.3316  1.0107
   67MOL   C51445526   7.245   1.283   5.591 -0.6889 -0.2444  0.1893
   67MOL   O51545527   7.355   1.313   5.671  0.1350  0.0152 -0.0026
   67MOL   C51645528   7.270   1.291   5.451 -0.2430  0.2378 -0.7142
   67MOL   C51745529   7.167   1.263   5.358  0.0268 -0.2706 -0.2340
   67MOL   C51845530   7.034   1.229   5.406  0.0370  0.3765 -0.4355
   67MOL   C51945531   6.922   1.220   5.314  0.9441 -0.3488 -0.5407
   67MOL   O52045532   6.890   1.325   5.255 -0.2713 -0.5309 -0.5390
   67MOL   C52145533   6.847   1.093   5.297  0.8505  0.7976  0.6078
   67MOL   C52245534   6.730   1.097   5.229  0.9813  0.2229  0.3290
   67MOL   C52345535   6.649   0.986   5.222  0.0010 -0.0608 -0.1922
   67MOL   C52445536   6.684   0.872   5.282  0.4424 -0.0457 -1.0547
   67MOL   O52545537   6.598   0.767   5.287 -0.3691  0.3611 -0.2989
   67MOL   C52645538   6.490   0.779   5.369  0.3267 -0.0844 -0.6511
   67MOL   C52745539   6.359   0.751   5.316  0.0067  0.5543  0.0139
   67MOL   C52845540   6.242   0.759   5.399  0.3243  0.5338  0.6700
   67MOL   C52945541   6.258   0.797   5.537  0.3506  0.8448  0.3415
   67MOL   C53045542   6.383   0.839   5.581 -0.2929 -0.3783  0.3142
   67MOL   C53145543   6.501   0.828   5.503  0.0262  0.3179 -0.9774
   67MOL   C53245544   6.806   0.861   5.354  0.6916 -0.6653 -0.3559
   67MOL   C53345545   6.885   0.973   5.364  0.4375  0.2413 -0.1955
   67MOL   H53445546   6.920   1.192   5.584 -0.0959  0.6412 -0.6239
   67MOL   H53545547   7.106   1.227   5.749  1.2955  0.6453  1.2016
   67MOL   H53645548   7.370   1.309   5.414 -0.4132 -0.8274 -1.6800
   67MOL   H53745549   7.181   1.257   5.251 -3.1653 -1.2395 -0.6244
   67MOL   H53845550   6.694   1.192   5.192 -0.1275 -0.6139 -0.8050
   67MOL   H53945551   6.558   0.998   5.165 -0.0757  0.0614 -0.0420
   67MOL   H54045552   6.338   0.717   5.216  1.9017  0.7375 -0.4599
   67MOL   H54145553   6.147   0.723   5.361  1.5349 -2.1303  0.0524
   67MOL   H54245554   6.391   0.871   5.684  1.3814 -0.8317  0.3538
   67MOL   H54345555   6.599   0.853   5.540  0.1775 -2.6214  0.7647
   67MOL   H54445556   6.836   0.773   5.409  0.2831 -0.2859  0.4707
   67MOL   H54545557   6.975   0.973   5.423  0.3176  2.1997  0.0225
   67MOL   C54645558   6.183   0.793   5.986  0.1403 -0.2829 -0.4853
   67MOL   C54745559   6.167   0.842   5.855  0.3548  0.2675 -0.3778
   67MOL   C54845560   6.161   0.745   5.750  0.0647  0.2344 -0.2574
   67MOL   O54945561   6.150   0.796   5.623  0.1613  0.4290  0.5079
   67MOL   C55045562   6.166   0.609   5.767  0.4747 -0.3717 -0.3057
   67MOL   C55145563   6.159   0.563   5.899  0.2429 -0.3439 -0.2610
   67MOL   C55245564   6.180   0.650   6.009  0.3880  0.3228  0.1444
   67MOL   C55345565   6.219   0.593   6.143  0.9302  0.1965  0.5494
   67MOL   O55445566   6.269   0.477   6.152 -0.7650 -0.1525 -0.8861
   67MOL   C55545567   6.210   0.670   6.270  0.4048 -0.2095 -0.7423
   67MOL   C55645568   6.306   0.649   6.367  0.1109 -0.1508 -0.3075
   67MOL   C55745569   6.298   0.729   6.486 -0.6382  0.3601  0.2191
   67MOL   C55845570   6.188   0.815   6.509  0.2352 -0.0568 -0.5468
   67MOL   O55945571   6.169   0.893   6.619  0.3667 -0.0496 -0.3721
   67MOL   C56045572   6.271   0.901   6.708 -0.8803 -0.0773 -0.7005
   67MOL   C56145573   6.258   0.839   6.841 -0.0638 -0.2314  0.6006
   67MOL   C56245574   6.379   0.822   6.920 -0.5155 -0.4521  0.1266
   67MOL   C56345575   6.498   0.899   6.891 -0.3964 -0.1160  0.4589
   67MOL   C56445576   6.504   0.957   6.761 -0.1754  0.4968 -0.1291
   67MOL   C56545577   6.399   0.960   6.672  0.7229  0.7576  1.3755
   67MOL   C56645578   6.100   0.841   6.402  0.3724 -0.7554 -0.8456
   67MOL   C56745579   6.112   0.770   6.282 -0.2473  0.2000  0.0978
   67MOL   H56845580   6.195   0.872   6.058  0.2208 -2.5717  2.1088
   67MOL   H56945581   6.170   0.945   5.823 -1.0640  0.3327 -0.3057
   67MOL   H57045582   6.148   0.541   5.684 -0.1595  0.0778 -0.5329
   67MOL   H57145583   6.159   0.455   5.909  4.1412 -0.6203 -2.3597
   67MOL   H57245584   6.379   0.573   6.344  3.5132  2.7449  0.6370
   67MOL   H57345585   6.380   0.715   6.554  0.4730  1.8356 -0.7740
   67MOL   H57445586   6.167   0.787   6.865 -0.4683  0.3061  0.2727
   67MOL   H57545587   6.376   0.766   7.012  0.8192 -0.3069  0.2637
   67MOL   H57645588   6.602   0.994   6.733  0.8319 -2.0085 -0.0365
   67MOL   H57745589   6.413   1.003   6.573  1.9755  1.8919  2.0336
   67MOL   H57845590   6.017   0.910   6.406  0.3687 -0.7859 -0.4465
   67MOL   H57945591   6.025   0.789   6.221 -2.5565 -2.2003  2.4907
   67MOL   C58045592   6.803   0.584   6.914 -0.5030 -0.6619  0.7558
   67MOL   C58145593   6.745   0.709   6.896 -0.4066  0.1218  0.4816
   67MOL   C58245594   6.669   0.779   6.998 -0.3683  0.4027  0.5121
   67MOL   O58345595   6.617   0.897   6.967  0.0170 -0.1456  0.1678
   67MOL   C58445596   6.651   0.716   7.128  0.0196  0.3400 -0.1189
   67MOL   C58545597   6.701   0.586   7.148 -0.7443 -0.4471 -0.8943
   67MOL   C58645598   6.782   0.532   7.044 -0.2330  0.2844  0.4987
   67MOL   C58745599   6.849   0.401   7.087 -0.1398  0.2117  0.2360
   67MOL   O58845600   6.928   0.394   7.179 -0.1388 -0.1511 -0.3066
   67MOL   C58945601   6.814   0.272   7.024  0.5847 -0.0516  0.3384
   67MOL   C59045602   6.861   0.246   6.894 -0.5019  0.3204  0.4127
   67MOL   C59145603   6.831   0.120   6.835  0.1283  0.2430  0.1193
   67MOL   C59245604   6.754   0.022   6.907 -0.0687 -0.7050 -0.3262
   67MOL   O59345605   6.729   8.208   6.860 -0.9319 -0.3265 -0.1907
   67MOL   C59445606   6.604   8.177   6.820 -0.5859  0.1255 -0.0515
   67MOL   C59545607   6.551   8.215   6.699 -0.0129  0.1800 -0.1582
   67MOL   C59645608   6.421   8.184   6.657 -0.2605  0.2514  0.5469
   67MOL   C59745609   6.337   8.112   6.746 -0.3375  0.0708 -0.0889
   67MOL   C59845610   6.390   8.080   6.875 -0.0824  0.1406 -0.0632
   67MOL   C59945611   6.521   8.107   6.913  0.3384  0.2800  0.2182
   67MOL   C60045612   6.703   0.050   7.036 -0.2039 -0.2130  0.8190
   67MOL   C60145613   6.730   0.177   7.091 -0.3148 -0.7128  0.4887
   67MOL   H60245614   6.864   0.531   6.843 -0.9626  0.5672 -0.5910
   67MOL   H60345615   6.768   0.764   6.806  2.6704 -0.4762  0.8649
   67MOL   H60445616   6.616   0.777   7.210  1.0865  4.3844 -2.5139
   67MOL   H60545617   6.695   0.538   7.244  0.1486 -0.8868 -1.0498
   67MOL   H60645618   6.934   0.309   6.844 -2.1654  0.3513 -2.0473
   67MOL   H60745619   6.875   0.087   6.742  1.6278  0.9057  0.5759
   67MOL   H60845620   6.613   8.256   6.620 -0.8069 -0.4483 -1.1200
   67MOL   H60945621   6.378   8.214   6.563 -1.1620 -0.5236  0.6998
   67MOL   H61045622   6.325   8.029   6.945  0.0061 -0.1927 -0.2239
   67MOL   H61145623   6.559   8.079   7.010 -0.0614  0.4464  0.4257
   67MOL   H61245624   6.641   8.297   7.095 -0.7338  0.2830  0.8188
   67MOL   H61345625   6.675   0.207   7.179 -2.9660  2.1498 -2.0097
   67MOL   C61445626   6.002   0.082   6.668 -0.0639 -0.5509 -0.4056
   67MOL   C61545627   6.087   8.279   6.642 -0.4723  0.1092 -0.2047
   67MOL   C61645628   6.109   8.175   6.737 -0.4661 -0.6250 -0.6821
   67MOL   O61745629   6.207   8.078   6.714 -0.0978 -0.1840  0.6381
   67MOL   C61845630   6.053   8.189   6.861  0.4083  0.3885  0.0950
   67MOL   C61945631   5.961   8.290   6.883 -0.9374 -0.8391  0.2745
   67MOL   C62045632   5.932   0.080   6.789 -0.2718 -0.4452 -0.1728
   67MOL   C62145633   5.832   0.195   6.807  0.6166  0.2069 -0.1564
   67MOL   O62245634   5.759   0.242   6.720  0.2733  0.1097  0.3186
   67MOL   C62345635   5.830   0.267   6.942 -0.8788  0.7423  0.3919
   67MOL   C62445636   5.712   0.319   6.998  0.2608 -0.2776  0.5272
   67MOL   C62545637   5.711   0.379   7.125  0.5293  0.0144  0.5656
   67MOL   C62645638   5.834   0.381   7.200  0.5355  0.6304  0.1782
   67MOL   O62745639   5.826   0.439   7.326 -0.3333 -0.8863  0.1652
   67MOL   C62845640   5.907   0.401   7.429 -0.3109 -0.2169  0.2615
   67MOL   C62945641   5.909   0.270   7.475 -0.4212 -0.5663 -0.0166
   67MOL   C63045642   6.001   0.227   7.571  0.2060 -0.3729  0.2437
   67MOL   C63145643   6.103   0.319   7.623  0.3942  0.2319 -0.1158
   67MOL   C63245644   6.100   0.449   7.572 -0.9649  0.0878  0.0170
   67MOL   C63345645   6.005   0.489   7.478 -0.3995 -0.2555 -0.1799
   67MOL   C63445646   5.949   0.332   7.147 -0.2562 -0.0811  0.3344
   67MOL   C63545647   5.949   0.277   7.014 -0.5041  0.4638 -0.3832
   67MOL   H63645648   5.989   0.149   6.585  0.7113 -1.6314 -1.4046
   67MOL   H63745649   6.134   8.262   6.547  0.1900 -2.8556  0.6130
   67MOL   H63845650   6.070   8.118   6.942  3.2772 -1.7766 -2.2893
   67MOL   H63945651   5.912   8.300   6.979 -0.3946 -0.8561  0.5617
   67MOL   H64045652   5.619   0.313   6.944  0.6138  0.0295 -0.1363
   67MOL   H64145653   5.623   0.418   7.173  1.7493  0.5888  2.3550
   67MOL   H64245654   5.834   0.203   7.437  0.9581 -2.9613  1.3742
   67MOL   H64345655   6.010   0.123   7.600  0.3719 -0.5444 -0.4108
   67MOL   H64445656   6.164   0.531   7.602 -1.8423  0.5715  0.5713
   67MOL   H64545657   5.995   0.589   7.437 -0.8223 -1.0584 -2.0633
   67MOL   H64645658   6.045   0.323   7.196  0.4489  3.0418 -0.3725
   67MOL   H64745659   6.040   0.243   6.968 -1.1147 -2.4166  0.4463
   67MOL   C64845660   6.407   8.279   7.712  0.0861 -0.3708 -0.6917
   67MOL   C64945661   6.356   0.094   7.674  0.8685 -0.5271  0.1640
   67MOL   C65045662   6.239   0.150   7.729  0.1241 -0.2222  0.3316
   67MOL   O65145663   6.210   0.283   7.701 -0.1005 -0.7311  0.1798
   67MOL   C65245664   6.163   0.078   7.815  0.1204 -0.2452  0.4386
   67MOL   C65345665   6.201   8.254   7.837 -0.1345  0.5910 -0.4469
   67MOL   C65445666   6.321   8.204   7.789 -0.3711  0.1409  0.8712
   67MOL   C65545667   6.344   8.056   7.800 -0.7848  0.7782 -0.0391
   67MOL   O65645668   6.252   7.978   7.773 -0.0629 -0.0704 -0.7815
   67MOL   C65745669   6.474   8.009   7.854  0.1154 -0.5081 -0.0946
   67MOL   C65845670   6.565   8.095   7.919 -0.6509 -0.3648 -0.1391
   67MOL   C65945671   6.695   8.047   7.955  0.3034  0.2776 -0.1937
   67MOL   C66045672   6.731   7.917   7.946  0.3248 -0.2977  0.1192
   67MOL   O66145673   6.855   7.879   7.998  0.3570  0.5815 -0.3206
   67MOL   C66245674   6.903   7.754   7.963  0.3590  0.5856  0.1253
   67MOL   C66345675   6.853   7.631   8.010 -0.2907 -0.5848 -0.2480
   67MOL   C66445676   6.911   7.514   7.967  0.2484  0.5156  0.1014
   67MOL   C66545677   7.010   7.516   7.873 -0.3665 -0.3770 -0.2382
   67MOL   C66645678   7.069   7.630   7.826 -0.4243  0.6233  0.4186
   67MOL   C66745679   7.015   7.746   7.874 -0.4037 -0.0672  0.2758
   67MOL   C66845680   6.635   7.826   7.893  0.2553 -0.4835  0.1125
   67MOL   C66945681   6.505   7.869   7.855 -0.0940 -1.0338  0.4707
   67MOL   H67045682   6.494   8.232   7.668  0.7860 -0.4688  0.7742
   67MOL   H67145683   6.412   0.159   7.609 -1.4263  0.1496 -1.1856
   67MOL   H67245684   6.070   0.120   7.850  1.4013  4.0719 -1.0062
   67MOL   H67345685   6.131   8.183   7.877 -0.6343  0.9981 -0.5880
   67MOL   H67445686   6.567   8.203   7.912  0.6380 -0.3740 -0.0010
   67MOL   H67545687   6.772   8.111   7.996  0.5517  0.5926 -1.1398
   67MOL   H67645688   6.774   7.614   8.081 -0.2927  0.6087  0.0407
   67MOL   H67745689   6.857   7.427   8.000 -0.8849  0.6609 -1.3124
   67MOL   H67845690   7.147   7.623   7.753 -1.3283 -0.0172 -0.4977
   67MOL   H67945691   7.046   7.842   7.835 -3.6980  0.3583 -1.4555
   67MOL   H68045692   6.659   7.723   7.868 -1.9348 -1.4464  1.8218
   67MOL   H68145693   6.443   7.793   7.810  0.6707 -0.7881 -1.0421
   67MOL   H68245694   7.034   7.418   7.833 -2.1173 -2.2501  3.0312
   68MOL     C145695   5.622   0.399   5.936 -0.5381  0.5533  0.2541
   68MOL     C245696   5.714   0.496   5.983  0.0588  0.0400  0.0853
   68MOL     C345697   5.704   0.627   5.942 -0.2652  0.0236  0.7141
   68MOL     O445698   5.782   0.725   5.994 -0.0509 -0.3714  0.4356
   68MOL     C545699   5.598   0.659   5.854 -0.3334  0.1498  0.0233
   68MOL     C645700   5.505   0.570   5.811 -0.5360 -0.0872 -0.0870
   68MOL     C745701   5.516   0.437   5.850  0.3157  0.1283 -0.5542
   68MOL     C845702   5.422   0.327   5.819 -0.1180 -0.2286  0.1579
   68MOL     O945703   5.358   0.275   5.906 -0.8999  0.3918 -0.5336
   68MOL    C1045704   5.416   0.286   5.675  0.0332  0.6479  0.6395
   68MOL    C1145705   5.506   0.339   5.576 -0.5020 -0.6883 -0.0395
   68MOL    C1245706   5.511   0.286   5.439  0.1448  0.5284 -0.2035
   68MOL    C1345707   5.419   0.189   5.410 -0.2560 -0.4486 -0.8379
   68MOL    O1445708   5.412   0.145   5.286 -0.3173  0.2097 -0.1984
   68MOL    C1545709   5.504   0.059   5.233 -0.1788 -0.3015 -0.1364
   68MOL    C1645710   5.489   8.237   5.263  0.9675  0.2580  1.1077
   68MOL    C1745711   5.570   8.142   5.195 -0.2156 -0.0548 -0.6502
   68MOL    C1845712   5.678   8.184   5.116 -0.3665 -0.1587  0.5149
   68MOL    C1945713   5.697   0.010   5.093 -1.1014  0.0835 -0.5182
   68MOL    C2045714   5.603   0.105   5.143 -0.1680  0.1191 -0.1491
   68MOL    C2145715   5.324   0.148   5.508  0.0275 -0.0252  0.1288
   68MOL    C2245716   5.321   0.191   5.641 -1.2711  0.0885  0.1429
   68MOL    H2345717   5.627   0.299   5.977  2.5294  1.1857  1.5590
   68MOL    H2445718   5.785   0.468   6.060 -1.2724 -2.6821  0.3812
   68MOL    H2545719   5.585   0.762   5.823 -0.1634  0.1564 -0.0309
   68MOL    H2645720   5.426   0.592   5.741  1.6507  1.4082 -2.1787
   68MOL    H2745721   5.573   0.420   5.600 -1.7319  0.5614 -0.7544
   68MOL    H2845722   5.578   0.329   5.367 -3.0907  2.1362 -2.3839
   68MOL    H2945723   5.409   8.206   5.330 -1.6472  1.0438 -1.5429
   68MOL    H3045724   5.560   8.035   5.208  0.1815  0.1147  1.1499
   68MOL    H3145725   5.782   0.050   5.040  0.2902 -0.2482  1.4155
   68MOL    H3245726   5.615   0.209   5.118  0.3964 -0.0261 -0.4861
   68MOL    H3345727   5.245   0.080   5.478  1.5184 -1.4758 -0.5471
   68MOL    H3445728   5.248   0.153   5.711 -1.8433 -0.3440 -0.6882
   68MOL    H3545729   5.800   0.703   6.083 -0.5817  0.6077  0.7946
   68MOL    C3645730   5.950   8.171   4.749  0.4662 -0.0414 -0.2553
   68MOL    C3745731   5.918   8.150   4.885  0.0328 -0.4736  0.5272
   68MOL    C3845732   5.792   8.097   4.925 -0.5100 -0.6738 -0.0834
   68MOL    O3945733   5.762   8.086   5.058 -0.3621 -0.4807 -0.8048
   68MOL    C4045734   5.698   8.056   4.827 -0.8606 -0.1800 -0.3499
   68MOL    C4145735   5.734   8.074   4.690  0.0730  0.3910  0.4990
   68MOL    C4245736   5.859   8.132   4.648  0.4393  0.3138  0.1200
   68MOL    C4345737   5.885   8.140   4.500 -0.0254  0.0285 -0.2164
   68MOL    O4445738   5.854   8.049   4.424 -0.8570 -0.4173  0.4342
   68MOL    C4545739   5.971   8.250   4.449 -0.4826  0.7853 -0.1827
   68MOL    C4645740   6.085   8.229   4.371  0.0332  0.7214  0.1268
   68MOL    C4745741   6.167   0.024   4.330  0.9958  0.8087  0.3585
   68MOL    C4845742   6.129   0.156   4.361 -0.2027 -0.1776  0.7100
   68MOL    O4945743   6.214   0.258   4.318 -0.4687 -0.7321 -0.1641
   68MOL    C5045744   6.275   0.332   4.413 -0.4875 -0.8720 -0.4227
   68MOL    C5145745   6.211   0.441   4.481  0.3609 -0.1093  1.0380
   68MOL    C5245746   6.279   0.519   4.571 -0.6792  0.0801 -0.2067
   68MOL    C5345747   6.413   0.485   4.603 -0.1939 -0.1969 -0.1239
   68MOL    C5445748   6.484   0.379   4.540 -1.0756  0.6309  0.6149
   68MOL    C5545749   6.414   0.303   4.446  0.8372 -0.0023  0.6684
   68MOL    C5645750   6.016   0.181   4.453 -0.0094 -0.4027 -0.0556
   68MOL    C5745751   5.936   0.070   4.485  0.0679  0.9033  0.5246
   68MOL    H5845752   6.051   8.204   4.730  0.1788  0.3244 -1.1692
   68MOL    H5945753   5.994   8.171   4.958  1.0425 -2.4002  0.0602
   68MOL    H6045754   5.598   8.025   4.851 -0.8323  1.0276  1.4636
   68MOL    H6145755   5.659   8.039   4.621  0.4879 -0.6965  0.5877
   68MOL    H6245756   6.119   8.133   4.335 -0.6140  0.0823  1.1764
   68MOL    H6345757   6.255   0.008   4.269 -0.8092  0.9538 -2.3673
   68MOL    H6445758   6.109   0.472   4.462  0.4915 -0.1376  0.2408
   68MOL    H6545759   6.225   0.600   4.619 -0.6300  0.3353 -0.5844
   68MOL    H6645760   6.586   0.362   4.571 -1.2862 -1.3432  0.3318
   68MOL    H6745761   6.468   0.229   4.388 -1.5232 -2.1872  1.1352
   68MOL    H6845762   5.997   0.283   4.485 -2.5100 -1.2292  1.2276
   68MOL    H6945763   5.858   0.089   4.557  0.1417 -1.6475  1.3105
   68MOL    C7045764   6.756   0.767   4.594 -0.0278  0.8042 -0.0782
   68MOL    C7145765   6.624   0.717   4.609 -0.3921  0.6732  0.0237
   68MOL    C7245766   6.594   0.612   4.697  0.1100  0.1208  0.9431
   68MOL    O7345767   6.470   0.555   4.711  0.0009  1.3379 -0.1918
   68MOL    C7445768   6.694   0.553   4.775  0.2075  0.0652 -0.3763
   68MOL    C7545769   6.831   0.595   4.756 -0.7695 -0.5274  0.0136
   68MOL    C7645770   6.856   0.702   4.666 -0.2932 -0.2181 -0.0614
   68MOL    C7745771   6.999   0.751   4.645 -0.2744  0.3324  0.0521
   68MOL    O7845772   7.061   0.731   4.541 -0.4671  0.1509  0.5301
   68MOL    C7945773   7.060   0.833   4.759  0.0282 -0.3629 -0.3146
   68MOL    C8045774   7.191   0.884   4.758  0.9144 -0.0518 -0.0182
   68MOL    C8145775   7.235   0.962   4.864  0.3944 -0.2856  0.1090
   68MOL    C8245776   7.155   0.986   4.978 -0.8068 -0.1813  0.2305
   68MOL    O8345777   7.203   1.056   5.088 -0.7041 -0.2117 -0.4725
   68MOL    C8445778   7.270   0.982   5.180  0.3933 -0.1422  0.5046
   68MOL    C8545779   7.399   1.019   5.224  0.0232 -0.3593  0.0900
   68MOL    C8645780   7.456   0.952   5.335  0.1838  0.0693 -0.0407
   68MOL    C8745781   7.392   0.850   5.407  0.7783  0.9106  0.6717
   68MOL    C8845782   7.260   0.811   5.362 -1.1645  0.1610  0.4201
   68MOL    C8945783   7.199   0.884   5.257 -0.1419 -0.4312 -0.1403
   68MOL    C9045784   7.022   0.949   4.972 -0.2109  0.1205 -0.0092
   68MOL    C9145785   6.973   0.868   4.862  0.5074  0.5347 -1.1673
   68MOL    H9245786   6.783   0.847   4.526  3.3491 -0.1590  0.0157
   68MOL    H9345787   6.549   0.759   4.544 -1.4485 -0.4899  0.4708
   68MOL    H9445788   6.671   0.473   4.842  0.6864 -0.5972 -0.9935
   68MOL    H9545789   6.904   0.546   4.818 -0.4131 -0.5447 -0.4223
   68MOL    H9645790   7.261   0.848   4.684  0.5153 -0.1288 -0.3561
   68MOL    H9745791   7.337   0.997   4.870  0.1606  0.5731 -0.9434
   68MOL    H9845792   7.462   1.089   5.171 -0.1997 -0.1133  0.1481
   68MOL    H9945793   7.546   0.987   5.383 -1.3229  2.1135  1.3558
   68MOL   H10045794   7.201   0.732   5.406 -1.2056 -0.9894 -1.6278
   68MOL   H10145795   7.102   0.852   5.222 -1.2488  1.7867  0.8002
   68MOL   H10245796   6.950   0.972   5.049  0.0015 -2.4986  1.0164
   68MOL   H10345797   6.867   0.845   4.861  0.7147 -0.5340  0.3865
   68MOL   C10445798   7.394   0.449   5.645  0.3059  0.5907  0.7011
   68MOL   C10545799   7.421   0.587   5.635 -0.3807 -0.0000  0.2194
   68MOL   C10645800   7.439   0.652   5.514  0.1833  0.4642 -0.2940
   68MOL   O10745801   7.440   0.790   5.515 -0.1512 -0.1507 -0.3818
   68MOL   C10845802   7.452   0.572   5.399 -0.4190  0.3003 -0.1829
   68MOL   C10945803   7.436   0.430   5.406  0.2569  0.2646 -0.6351
   68MOL   C11045804   7.403   0.370   5.528  0.0765  0.7912 -0.6231
   68MOL   C11145805   7.372   0.222   5.531 -0.2943  0.3721 -0.4774
   68MOL   O11245806   7.319   0.168   5.625 -0.5359 -0.0952  0.5038
   68MOL   C11345807   7.405   0.134   5.417 -0.0217 -0.2941  0.1377
   68MOL   C11445808   7.531   0.129   5.351 -0.0885  0.1289  0.0018
   68MOL   C11545809   7.559   0.024   5.268 -0.4899 -0.3603  0.6207
   68MOL   C11645810   7.460   8.250   5.228 -0.0807  0.1371 -0.7706
   68MOL   O11745811   7.492   8.144   5.143 -0.2530 -0.0526  0.5013
   68MOL   C11845812   7.520   8.029   5.206  0.6896  0.4453 -0.2380
   68MOL   C11945813   7.439   7.920   5.195  0.1505 -0.0538 -0.0440
   68MOL   C12045814   7.468   7.805   5.261 -0.1025  0.5630 -0.0748
   68MOL   C12145815   7.574   7.796   5.353  0.2221 -0.2329  0.4680
   68MOL   C12245816   7.666   7.904   5.360  0.1435  0.5850 -0.2043
   68MOL   C12345817   7.643   8.017   5.281 -0.0933 -0.8995  0.4149
   68MOL   C12445818   7.330   8.252   5.281 -0.6317 -0.1109 -0.3358
   68MOL   C12545819   7.303   0.038   5.381  0.1545  0.2262  0.6662
   68MOL   H12645820   7.369   0.407   5.741 -0.2446  0.0507  0.3268
   68MOL   H12745821   7.422   0.645   5.726  1.7700 -0.0180  0.2261
   68MOL   H12845822   7.478   0.616   5.304 -0.7777 -0.5152 -0.6657
   68MOL   H12945823   7.446   0.369   5.317  0.0023  0.8793 -1.0925
   68MOL   H13045824   7.608   0.203   5.371  1.2849 -1.4580  0.7118
   68MOL   H13145825   7.655   0.006   5.223 -0.5266 -1.0797  0.8151
   68MOL   H13245826   7.351   7.925   5.131  0.4263 -1.0966 -0.5086
   68MOL   H13345827   7.399   7.724   5.245 -1.2314  1.5926 -0.4694
   68MOL   H13445828   7.745   7.893   5.434 -0.6079 -0.2531  0.4898
   68MOL   H13545829   7.700   8.108   5.279 -2.6340  0.7262  0.1228
   68MOL   H13645830   7.263   8.172   5.252 -0.4688 -0.1407 -0.6227
   68MOL   H13745831   7.203   0.039   5.421 -0.0884 -0.9965  0.1362
   68MOL   C13845832   7.801   7.467   5.196 -0.1698 -0.5406  0.4784
   68MOL   C13945833   7.751   7.575   5.271 -0.1529 -0.9847  0.3314
   68MOL   C14045834   7.632   7.572   5.345  0.0960 -0.0174  0.0399
   68MOL   O14145835   7.596   7.678   5.420 -0.3415 -0.1986  0.0473
   68MOL   C14245836   7.552   7.457   5.332 -0.1267 -0.0736 -0.4630
   68MOL   C14345837   7.593   7.345   5.251  0.3321 -0.8525  0.8355
   68MOL   C14445838   7.723   7.349   5.197 -0.4435  0.1077 -0.3105
   68MOL   C14545839   7.773   7.220   5.133  0.8452  0.4050  0.2650
   68MOL   O14645840   7.691   7.145   5.082  0.0329  0.3552 -0.0558
   68MOL   C14745841   7.920   7.188   5.116  0.4592  0.1215 -0.0515
   68MOL   C14845842   8.015   7.231   5.210  0.4479 -0.0649  0.3587
   68MOL   C14945843   8.156   7.207   5.190 -0.0844 -0.5344 -0.0652
   68MOL   C15045844   8.194   7.130   5.079  0.1551 -0.2325  0.5730
   68MOL   O15145845   0.013   7.116   5.041 -0.3130  0.0381 -0.1040
   68MOL   C15245846   0.099   7.053   5.130 -0.2552  0.2611 -0.4858
   68MOL   C15345847   0.159   7.122   5.246  0.1734 -0.0794 -0.2592
   68MOL   C15445848   0.235   7.046   5.336 -0.5010  0.6960  0.4979
   68MOL   C15545849   0.250   6.905   5.316  0.0363 -0.4734  0.1687
   68MOL   C15645850   0.202   6.847   5.199 -0.9240 -0.0574  0.0190
   68MOL   C15745851   0.128   6.922   5.104 -0.3511  0.2675 -0.5081
   68MOL   C15845852   8.099   7.081   4.984  0.0527 -0.9707 -0.2908
   68MOL   C15945853   7.962   7.109   5.008  0.2369  0.0807  0.8618
   68MOL   H16045854   7.900   7.477   5.154 -0.1645  0.5812  0.7496
   68MOL   H16145855   7.815   7.662   5.273  1.1342 -1.9313  0.8916
   68MOL   H16245856   7.457   7.454   5.384 -0.1775 -0.1134 -0.5567
   68MOL   H16345857   7.525   7.262   5.237  1.0683 -1.1620 -1.0922
   68MOL   H16445858   7.983   7.292   5.294  1.1895  0.2231  0.4290
   68MOL   H16545859   8.232   7.254   5.252 -0.1541 -1.6544  0.8893
   68MOL   H16645860   0.148   7.225   5.276  2.1897  0.1570 -0.2358
   68MOL   H16745861   0.272   7.093   5.426  0.2691  0.1973  0.4454
   68MOL   H16845862   0.230   6.745   5.178  0.4842  0.2633  0.2883
   68MOL   H16945863   0.095   6.886   5.008 -1.3485 -1.7628  0.5496
   68MOL   H17045864   8.136   7.034   4.894 -0.2802 -0.6466 -0.5974
   68MOL   H17145865   7.893   7.064   4.939 -0.3989  1.0596  0.8608
   68MOL   C17245866   0.095   6.678   5.648  0.1016  0.6130  0.2809
   68MOL   C17345867   0.147   6.765   5.553 -0.0864  0.0239  0.1208
   68MOL   C17445868   0.271   6.745   5.498  0.2433 -0.6709  0.2279
   68MOL   O17545869   0.326   6.832   5.405 -0.2285 -0.0339 -0.4868
   68MOL   C17645870   0.345   6.632   5.533  0.4916 -0.9979  0.5940
   68MOL   C17745871   0.285   6.540   5.622 -0.3101  0.4444  0.1899
   68MOL   C17845872   0.160   6.562   5.684 -0.0865 -0.0701  0.3161
   68MOL   C17945873   0.121   6.461   5.791  0.0727 -0.0260  0.1771
   68MOL   O18045874   0.214   6.390   5.840 -0.5624  0.5202  0.6712
   68MOL   C18145875   8.292   6.459   5.838 -0.4026 -0.0586 -0.3282
   68MOL   C18245876   8.268   6.439   5.978  0.2452 -0.0613  0.1780
   68MOL   C18345877   8.135   6.439   6.026  0.9835 -0.0588 -0.2679
   68MOL   C18445878   8.026   6.445   5.933  0.5635 -0.3770 -0.7390
   68MOL   O18545879   7.897   6.410   5.973 -0.1782  0.5838 -0.2067
   68MOL   C18645880   7.846   6.504   6.065 -0.0283  0.9950 -0.0322
   68MOL   C18745881   7.805   6.457   6.193  0.4413 -0.2347  0.5525
   68MOL   C18845882   7.759   6.553   6.284  0.6300 -0.1905  0.5007
   68MOL   C18945883   7.730   6.686   6.242 -0.9744  0.3798 -1.1207
   68MOL   C19045884   7.775   6.733   6.118 -0.8686  0.4687  0.0111
   68MOL   C19145885   7.827   6.639   6.030  0.6228  0.6655  0.4897
   68MOL   C19245886   8.048   6.472   5.797  0.8172  0.2294  0.7123
   68MOL   C19345887   8.180   6.479   5.753  0.7028 -0.3826  0.2236
   68MOL   H19445888   0.000   6.697   5.697  0.2805 -0.4181  1.0551
   68MOL   H19545889   0.091   6.855   5.531  0.5445  0.4229  0.1182
   68MOL   H19645890   0.441   6.613   5.489 -0.5722  0.2042 -2.4258
   68MOL   H19745891   0.338   6.449   5.649 -0.4267 -0.4346 -2.4028
   68MOL   H19845892   0.043   6.420   6.038  0.3874  2.4010  0.8159
   68MOL   H19945893   8.112   6.425   6.130  2.7815  0.5425  0.2283
   68MOL   H20045894   7.811   6.352   6.221 -0.6700 -0.5083 -0.1987
   68MOL   H20145895   7.737   6.523   6.385 -1.8421  0.4853  0.2032
   68MOL   H20245896   7.761   6.838   6.101  2.1884  0.4819 -2.9330
   68MOL   H20345897   7.839   6.671   5.927 -0.6257 -0.8770 -0.1567
   68MOL   H20445898   7.962   6.472   5.731 -0.0070  0.3138  1.7552
   68MOL   H20545899   8.200   6.491   5.648 -0.6744 -0.4422 -0.0503
   68MOL   C20645900   7.351   6.633   6.436  0.5573 -0.1649 -0.8456
   68MOL   C20745901   7.449   6.679   6.346 -0.5814 -0.9596  0.0453
   68MOL   C20845902   7.572   6.743   6.405 -0.9432  0.6836 -0.4457
   68MOL   O20945903   7.681   6.780   6.329 -0.7158 -0.2996  0.2414
   68MOL   C21045904   7.574   6.772   6.542 -0.5360  0.4424 -0.2514
   68MOL   C21145905   7.481   6.709   6.629  0.7049 -0.1096 -0.1410
   68MOL   C21245906   7.364   6.648   6.572 -0.0656 -0.0019  0.2923
   68MOL   C21345907   7.262   6.591   6.665  0.1893  0.0944  0.3316
   68MOL   O21445908   7.226   6.470   6.660  0.4463 -0.2817 -0.3504
   68MOL   C21545909   7.214   6.677   6.767  0.0194  0.1870  0.0683
   68MOL   C21645910   7.194   6.818   6.752  0.1714 -0.4360 -1.0768
   68MOL   C21745911   7.147   6.901   6.852 -0.6626 -0.3803  0.3283
   68MOL   C21845912   7.107   6.844   6.973 -0.7932 -0.0123  0.1338
   68MOL   O21945913   7.065   6.926   7.074  0.0958  0.0805 -0.2748
   68MOL   C22045914   6.954   6.883   7.139  0.2238  0.0961 -0.3693
   68MOL   C22145915   6.963   6.851   7.277 -0.1665 -0.0476 -0.3680
   68MOL   C22245916   6.850   6.823   7.351 -0.5592 -0.1410 -0.1666
   68MOL   C22345917   6.726   6.816   7.293  0.4775  0.1644 -0.8105
   68MOL   C22445918   6.717   6.840   7.150 -0.0535 -0.3779  0.0579
   68MOL   C22545919   6.832   6.879   7.072 -0.2684  0.6325 -0.2016
   68MOL   C22645920   7.118   6.704   6.991 -0.9448 -0.1846  0.0007
   68MOL   C22745921   7.172   6.621   6.888  0.2831  0.2658 -0.4409
   68MOL   H22845922   7.264   6.590   6.389  1.8834 -0.6276 -2.9777
   68MOL   H22945923   7.435   6.670   6.239 -0.1763 -1.1654  0.0062
   68MOL   H23045924   7.656   6.823   6.590 -0.7353  0.0058  0.5729
   68MOL   H23145925   7.491   6.719   6.736 -0.3792 -0.5156 -0.0021
   68MOL   H23245926   7.246   6.870   6.673 -1.8720  2.4319 -0.6321
   68MOL   H23345927   7.145   7.007   6.830 -0.4169 -0.7019 -1.2993
   68MOL   H23445928   7.065   6.853   7.313  0.4008  0.2548 -1.9707
   68MOL   H23545929   6.855   6.788   7.453 -1.3166  3.1459  1.0555
   68MOL   H23645930   6.626   6.827   7.093 -0.1542 -1.3814  0.4364
   68MOL   H23745931   6.833   6.903   6.967  0.9195 -0.8841 -0.5450
   68MOL   H23845932   7.080   6.669   7.086 -1.6927  1.1915  0.2241
   68MOL   H23945933   7.192   6.516   6.906  0.8355  0.2282 -1.2100
   68MOL   C24045934   6.289   6.853   7.209  0.1022 -0.2668  0.7837
   68MOL   C24145935   6.421   6.868   7.257  0.5621 -0.0406 -0.0268
   68MOL   C24245936   6.490   6.760   7.319 -0.1170 -0.2670 -0.0628
   68MOL   O24345937   6.619   6.775   7.367 -0.0213 -0.0275  0.0152
   68MOL   C24445938   6.426   6.638   7.330 -0.5999 -0.5450  0.0260
   68MOL   C24545939   6.293   6.625   7.280  0.1815  1.9693 -0.4788
   68MOL   C24645940   6.219   6.730   7.215  0.7328 -0.3320 -0.6152
   68MOL   C24745941   6.086   6.715   7.156  0.2680  0.1915 -0.7754
   68MOL   O24845942   6.058   6.615   7.090  0.3973  0.6739  0.6839
   68MOL   C24945943   5.986   6.827   7.173  0.2124  0.5318 -0.0232
   68MOL   C25045944   5.991   6.913   7.283 -0.0213  0.1246 -0.0312
   68MOL   C25145945   5.901   7.017   7.304 -0.2408 -0.4251  0.6831
   68MOL   C25245946   5.804   7.045   7.200  0.6439  0.3706  0.5648
   68MOL   O25345947   5.705   7.144   7.211  0.3971 -0.1073  0.4573
   68MOL   C25445948   5.747   7.255   7.155 -0.1553  0.1331  0.8998
   68MOL   C25545949   5.818   7.352   7.232  0.4381  0.4627  0.8045
   68MOL   C25645950   5.848   7.477   7.183 -0.7690 -0.0511 -0.1822
   68MOL   C25745951   5.808   7.512   7.054  0.0928  0.4276  0.1357
   68MOL   C25845952   5.731   7.422   6.977 -0.0752 -0.1464 -0.0962
   68MOL   C25945953   5.703   7.296   7.029  0.0096  0.0511  1.4456
   68MOL   C26045954   5.799   6.962   7.085  0.5620  0.5016  0.6285
   68MOL   C26145955   5.886   6.853   7.079  0.2841  0.0977  0.2860
   68MOL   H26245956   6.244   6.943   7.170 -3.5535 -1.5233  1.8707
   68MOL   H26345957   6.463   6.967   7.248 -0.5398  0.3561 -0.8902
   68MOL   H26445958   6.488   6.555   7.362 -0.3390 -0.9971 -1.5945
   68MOL   H26545959   6.250   6.527   7.294 -0.1137  2.2854  0.8924
   68MOL   H26645960   6.063   6.899   7.362  0.3392 -0.3645 -0.4484
   68MOL   H26745961   5.924   7.094   7.376  1.9373 -0.8319  0.4656
   68MOL   H26845962   5.829   7.330   7.337 -0.4864 -3.2061  0.1790
   68MOL   H26945963   5.885   7.559   7.243  1.9142 -0.6227 -1.0093
   68MOL   H27045964   5.710   7.449   6.874 -2.1007 -0.7990  0.1165
   68MOL   H27145965   5.645   7.233   6.963 -1.8732  0.5625  2.5581
   68MOL   H27245966   5.723   6.967   7.009  1.1821  0.3613 -0.0006
   68MOL   H27345967   5.867   6.786   6.997  0.3635  0.0096  0.3391
   68MOL   C27445968   6.151   7.522   6.809  1.1215  0.7900 -0.4734
   68MOL   C27545969   6.030   7.513   6.881 -0.3340  0.3782 -0.2777
   68MOL   C27645970   5.963   7.629   6.936  0.1348 -0.7505  0.1674
   68MOL   O27745971   5.842   7.629   7.001 -0.1976  0.2129  0.1347
   68MOL   C27845972   6.030   7.755   6.923  0.0599  0.1932 -0.0199
   68MOL   C27945973   6.153   7.761   6.849  0.2068 -0.6164  0.0355
   68MOL   C28045974   6.214   7.648   6.794  0.2751 -0.1162 -0.2698
   68MOL   C28145975   6.351   7.658   6.729 -0.3001 -0.1991 -0.1551
   68MOL   O28245976   6.427   7.754   6.747  0.3029  0.3014 -0.1481
   68MOL   C28345977   6.380   7.547   6.637  0.7185  0.4698  0.1032
   68MOL   C28445978   6.503   7.473   6.661  0.2727  1.0310  0.1703
   68MOL   C28545979   6.516   7.347   6.596  0.6819 -0.4109 -0.3096
   68MOL   C28645980   6.434   7.321   6.487 -0.1510 -0.4620  0.2332
   68MOL   O28745981   6.455   7.207   6.415  0.1737 -0.2936 -0.0535
   68MOL   C28845982   6.554   7.213   6.315 -0.4692  0.8860  0.6226
   68MOL   C28945983   6.568   7.100   6.230  0.6371  0.5854  0.7596
   68MOL   C29045984   6.658   7.103   6.125  0.1562 -0.2409 -0.1142
   68MOL   C29145985   6.740   7.214   6.103 -0.8542 -0.7257 -0.7911
   68MOL   C29245986   6.742   7.321   6.194  0.2124 -0.2198 -0.5227
   68MOL   C29345987   6.651   7.317   6.304  0.1563  0.3565 -0.3857
   68MOL   C29445988   6.326   7.405   6.451  0.1086 -0.4134 -0.1723
   68MOL   C29545989   6.293   7.515   6.527 -0.1503  0.0708 -0.6160
   68MOL   H29645990   6.208   7.438   6.771 -0.2845 -0.6622  0.5649
   68MOL   H29745991   5.991   7.412   6.886 -0.6547  0.4483 -1.2452
   68MOL   H29845992   5.985   7.848   6.957 -0.6000  0.1600 -0.7784
   68MOL   H29945993   6.204   7.853   6.824  2.7111 -2.4854 -1.9977
   68MOL   H30045994   6.563   7.505   6.745 -0.3060  1.4120  0.4426
   68MOL   H30145995   6.591   7.276   6.627  1.9447 -0.5627 -3.4945
   68MOL   H30245996   6.512   7.010   6.246  3.0528 -1.3041 -1.0548
   68MOL   H30345997   6.651   7.016   6.060  0.9717  0.5490 -1.2860
   68MOL   H30445998   6.823   7.391   6.184 -0.2741  0.2672 -1.1199
   68MOL   H30545999   6.657   7.404   6.368  0.4576  1.4824 -1.9038
   68MOL   H30646000   6.267   7.385   6.363  0.1396  1.4803 -0.6513
   68MOL   H30746001   6.206   7.575   6.507 -1.3202 -1.3520  0.0983
   68MOL   C30846002   6.608   7.250   5.694 -0.1897  0.1338  0.0476
   68MOL   C30946003   6.640   7.250   5.831  0.2086 -0.3728 -0.0246
   68MOL   C31046004   6.777   7.226   5.868  0.7051  0.4403  0.3746
   68MOL   O31146005   6.822   7.219   5.998  0.4827  0.5498 -0.1844
   68MOL   C31246006   6.875   7.226   5.767 -0.0884 -0.1748  0.4343
   68MOL   C31346007   6.847   7.235   5.635  0.0993  0.1921  0.6113
   68MOL   C31446008   6.711   7.248   5.595  0.2005  0.0978  1.1748
   68MOL   C31546009   6.667   7.254   5.454  0.8766 -0.4388 -0.4986
   68MOL   O31646010   6.567   7.189   5.415 -0.4811 -0.3691 -0.2314
   68MOL   C31746011   6.738   7.338   5.356  0.3442 -0.0907 -0.0243
   68MOL   C31846012   6.798   7.461   5.397 -0.2396 -0.3676 -0.1572
   68MOL   C31946013   6.874   7.540   5.301 -0.0641 -0.2342 -1.0061
   68MOL   C32046014   6.871   7.498   5.167  0.1953 -0.2012  0.9623
   68MOL   O32146015   6.926   7.567   5.060 -0.2385 -0.5290  0.2395
   68MOL   C32246016   6.941   7.708   5.072  0.4571 -0.0815 -0.3425
   68MOL   C32346017   7.062   7.774   5.049  0.7379 -0.0587 -0.7736
   68MOL   C32446018   7.061   7.915   5.052  0.5014 -0.3020  0.5318
   68MOL   C32546019   6.944   7.992   5.071 -0.0238  0.5884  0.4776
   68MOL   C32646020   6.823   7.924   5.095  0.1953 -0.7328 -0.5149
   68MOL   C32746021   6.827   7.785   5.110 -0.3409  0.0753  0.2660
   68MOL   C32846022   6.797   7.386   5.131 -0.0964  0.4678 -0.2668
   68MOL   C32946023   6.736   7.298   5.220  0.1507 -0.0236  0.1733
   68MOL   H33046024   6.505   7.253   5.662  0.4314  2.0049 -1.9136
   68MOL   H33146025   6.559   7.255   5.902 -0.3237  2.0503 -0.7599
   68MOL   H33246026   6.979   7.215   5.796  0.3623  1.7961 -0.3722
   68MOL   H33346027   6.922   7.228   5.558 -0.4855  0.9277 -0.0399
   68MOL   H33446028   6.789   7.499   5.497 -0.3072  0.8530 -0.6263
   68MOL   H33546029   6.915   7.633   5.337  0.1730  0.3737 -2.8221
   68MOL   H33646030   7.152   7.718   5.029  0.9283 -0.3617  0.8858
   68MOL   H33746031   7.151   7.970   5.029  1.0094 -0.6228  1.7083
   68MOL   H33846032   6.731   7.979   5.108  1.1896  0.6343  0.8849
   68MOL   H33946033   6.736   7.733   5.134  0.2876 -0.1118  2.3297
   68MOL   H34046034   6.788   7.365   5.026  0.7368 -0.4762 -0.1548
   68MOL   H34146035   6.690   7.205   5.189 -1.9918  0.1699  2.6065
   68MOL   C34246036   6.735   0.018   4.879 -0.0519  0.4395 -0.0221
   68MOL   C34346037   6.780   8.253   4.986 -0.0593 -0.1756  0.0444
   68MOL   C34446038   6.905   8.190   4.974  0.8021  0.9873 -0.2316
   68MOL   O34546039   6.950   8.126   5.079  0.1564 -0.1347 -0.3599
   68MOL   C34646040   6.979   8.199   4.851  0.5244 -0.0485 -0.1586
   68MOL   C34746041   6.939   8.269   4.740 -0.3643 -1.5746 -0.1575
   68MOL   C34846042   6.809   0.027   4.754  0.0368 -0.3824 -0.3036
   68MOL   C34946043   6.758   0.109   4.647  0.9133  0.0580 -0.6421
   68MOL   O35046044   6.740   0.231   4.656 -0.5319  0.5103  0.0977
   68MOL   C35146045   6.733   0.037   4.527  0.1894  0.1288  0.4496
   68MOL   C35246046   6.740   0.109   4.408 -0.0773 -0.4570 -0.3123
   68MOL   C35346047   6.729   0.045   4.285  0.2044  0.0147  0.4609
   68MOL   C35446048   6.719   8.218   4.275 -0.5842  0.2494 -0.4122
   68MOL   O35546049   6.711   8.174   4.141 -0.6195 -0.1292 -0.3025
   68MOL   C35646050   6.593   8.108   4.102  0.4028 -0.0492 -0.1298
   68MOL   C35746051   6.617   8.002   4.011 -1.0882  0.1263  0.1075
   68MOL   C35846052   6.508   7.927   3.963  0.1411  1.0427 -0.1220
   68MOL   C35946053   6.379   7.938   4.013 -0.4437 -0.0578  0.0229
   68MOL   C36046054   6.358   8.037   4.116  0.2365  0.3722 -0.1573
   68MOL   C36146055   6.462   8.129   4.152  0.7495  0.4141  0.4915
   68MOL   C36246056   6.703   8.139   4.392 -0.2478  1.0579 -0.0304
   68MOL   C36346057   6.715   8.207   4.516 -0.4492 -0.0538  0.3433
   68MOL   H36446058   6.639   0.068   4.876  0.0668  0.6255 -1.1309
   68MOL   H36546059   6.722   8.245   5.076 -1.2064 -0.3495 -0.6933
   68MOL   H36646060   7.078   8.156   4.841  0.1517 -0.7913 -0.7537
   68MOL   H36746061   7.000   8.282   4.652  1.1376 -1.1933  0.9241
   68MOL   H36846062   6.744   0.217   4.405  0.5190 -0.4544  0.5695
   68MOL   H36946063   6.733   0.102   4.194  1.5362 -1.7663 -0.6174
   68MOL   H37046064   6.710   7.979   3.961 -0.9930  1.2980 -0.2683
   68MOL   H37146065   6.537   7.844   3.900  0.8760  1.6004 -0.5281
   68MOL   H37246066   6.255   8.036   4.150 -0.1763  1.3556 -1.3593
   68MOL   H37346067   6.441   8.207   4.223 -0.7846  0.3080  0.1699
   68MOL   H37446068   6.708   8.031   4.382  1.7949  1.2422 -1.1530
   68MOL   H37546069   6.703   8.149   4.606  1.9994 -1.8152 -0.4171
   68MOL   C37646070   6.346   7.631   3.694 -0.3304 -0.1650  0.1534
   68MOL   C37746071   6.320   7.752   3.758 -0.2039  0.3125  0.1729
   68MOL   C37846072   6.299   7.749   3.895 -0.0578  0.4471 -0.2134
   68MOL   O37946073   6.272   7.866   3.965 -0.1291 -0.6895  0.2725
   68MOL   C38046074   6.279   7.632   3.972 -0.0372 -0.5646 -0.1864
   68MOL   C38146075   6.316   7.513   3.907  0.3136 -0.6219  0.9891
   68MOL   C38246076   6.359   7.512   3.772  0.5604  0.0353  0.6144
   68MOL   C38346077   6.405   7.387   3.700  0.0529 -0.2503 -0.1290
   68MOL   O38446078   6.414   7.375   3.578  0.3043  0.1282  0.1729
   68MOL   C38546079   6.442   7.269   3.774 -0.1489 -0.2332  0.0613
   68MOL   C38646080   6.387   7.141   3.736  0.5288 -0.0789  0.2635
   68MOL   C38746081   6.436   7.023   3.792  0.0280  0.2438  0.9377
   68MOL   C38846082   6.526   7.025   3.901 -0.1278  0.1303 -0.3106
   68MOL   O38946083   6.572   6.909   3.963  0.6026 -0.1634 -0.1055
   68MOL   C39046084   6.676   6.852   3.891  0.3851  0.7004 -0.3958
   68MOL   C39146085   6.811   6.894   3.907  0.0742 -0.7961  0.3615
   68MOL   C39246086   6.914   6.833   3.835 -0.3973 -0.3118  0.2451
   68MOL   C39346087   6.887   6.740   3.738  0.5185  0.6684 -0.4914
   68MOL   C39446088   6.755   6.695   3.725  0.1739  0.2667 -0.0109
   68MOL   C39546089   6.649   6.753   3.802 -0.1337 -0.8188 -0.7522
   68MOL   C39646090   6.568   7.154   3.949 -0.8828 -0.7438  0.3000
   68MOL   C39746091   6.533   7.277   3.882 -0.2342  0.0486 -0.4143
   68MOL   H39846092   6.365   7.630   3.587 -1.1362  1.0502 -0.0161
   68MOL   H39946093   6.315   7.844   3.701  0.4456 -0.1624 -0.6514
   68MOL   H40046094   6.263   7.645   4.078  1.6721  0.6124 -0.0403
   68MOL   H40146095   6.316   7.417   3.958 -0.7297 -1.3144 -0.2771
   68MOL   H40246096   6.323   7.138   3.650 -1.5012  0.7093  1.7053
   68MOL   H40346097   6.408   6.925   3.756 -0.6956 -0.1239  2.4658
   68MOL   H40446098   6.827   6.980   3.971 -0.9242 -2.3288  2.7388
   68MOL   H40546099   7.011   6.880   3.841 -0.2286 -0.7635  1.2254
   68MOL   H40646100   6.733   6.618   3.652  1.4416 -1.4280  1.3547
   68MOL   H40746101   6.545   6.729   3.782 -0.4577 -0.6634  0.7291
   68MOL   H40846102   6.629   7.165   4.037 -1.7088 -2.4207  1.0986
   68MOL   H40946103   6.561   7.376   3.914 -1.1082 -0.2542  1.3796
   68MOL   C41046104   6.888   6.609   3.310 -0.2284 -0.2834 -0.3046
   68MOL   C41146105   6.904   6.608   3.453 -0.2616 -0.1076 -0.0886
   68MOL   C41246106   6.987   6.701   3.520 -0.4484 -0.5029 -0.7452
   68MOL   O41346107   6.996   6.692   3.663  0.2930 -0.5346  0.6585
   68MOL   C41446108   7.067   6.786   3.446 -0.1990 -0.5475 -0.2428
   68MOL   C41546109   7.057   6.782   3.304  0.2149  0.3278  0.4521
   68MOL   C41646110   6.968   6.690   3.238  0.5387 -0.3681 -0.0351
   68MOL   C41746111   6.961   6.675   3.092  0.2387  0.0886  0.3036
   68MOL   O41846112   7.065   6.678   3.032  0.0854 -0.4871 -0.5815
   68MOL   C41946113   6.828   6.682   3.022 -0.4451  0.0691 -0.4656
   68MOL   C42046114   6.707   6.727   3.086  0.2330 -0.0996  0.3048
   68MOL   C42146115   6.584   6.727   3.009  0.3315  0.8744  0.2191
   68MOL   C42246116   6.581   6.688   2.875  0.2625  0.0553 -0.1397
   68MOL   O42346117   6.458   6.687   2.808 -0.4598  0.1207  0.0143
   68MOL   C42446118   6.419   6.806   2.749  0.4252  0.7357 -0.2759
   68MOL   C42546119   6.472   6.832   2.619 -0.1460 -0.1685  0.9438
   68MOL   C42646120   6.436   6.946   2.547  0.4900 -0.0775  0.3217
   68MOL   C42746121   6.356   7.046   2.616 -0.4715  0.1846  0.1525
   68MOL   C42846122   6.299   7.018   2.742  0.0091  0.1568  0.2099
   68MOL   C42946123   6.333   6.899   2.812 -0.2233 -0.6608 -0.2520
   68MOL   C43046124   6.701   6.635   2.813 -0.5348 -0.3857  0.2833
   68MOL   C43146125   6.820   6.634   2.888  0.1862  0.3201  0.2509
   68MOL   H43246126   6.808   6.556   3.261  0.7053 -2.1771  0.1628
   68MOL   H43346127   6.849   6.534   3.509 -0.7888 -0.0802 -0.5655
   68MOL   H43446128   7.136   6.853   3.496 -0.4353 -1.6454  1.5622
   68MOL   H43546129   7.118   6.851   3.248 -1.1257 -0.6479 -2.3216
   68MOL   H43646130   6.704   6.769   3.186  0.8864  3.0765 -0.9707
   68MOL   H43746131   6.485   6.751   3.044  0.1149  1.4644 -0.7623
   68MOL   H43846132   6.525   6.749   2.574  0.0797  0.2928  0.3611
   68MOL   H43946133   6.474   6.961   2.447  1.3365  2.4458  0.9799
   68MOL   H44046134   6.236   7.090   2.792  0.6943 -0.9360  2.7114
   68MOL   H44146135   6.314   6.885   2.917  0.4951 -1.3625 -0.2122
   68MOL   H44246136   6.707   6.594   2.713 -0.2358  1.5317 -0.4926
   68MOL   H44346137   6.912   6.600   2.844  1.3178  3.0055  0.4185
   68MOL   C44446138   6.568   7.423   2.551 -0.5364 -0.2795 -0.1365
   68MOL   C44546139   6.502   7.301   2.512  0.2120 -0.7936  0.2861
   68MOL   C44646140   6.383   7.272   2.577 -0.7270 -0.0476  0.1456
   68MOL   O44746141   6.317   7.159   2.550  0.0610  0.4537  0.0421
   68MOL   C44846142   6.330   7.361   2.673 -1.1413  0.4338  0.3112
   68MOL   C44946143   6.386   7.485   2.700 -0.0001 -0.6444  0.2859
   68MOL   C45046144   6.508   7.520   2.640 -0.7640 -0.0711  0.0300
   68MOL   C45146145   6.572   7.653   2.661  0.0630  0.2617 -0.6886
   68MOL   O45246146   6.559   7.728   2.763 -0.4042  0.4289  0.2990
   68MOL   C45346147   6.644   7.705   2.543 -0.0482 -0.1781  0.6281
   68MOL   C45446148   6.763   7.785   2.558 -0.5459  0.2226  0.3843
   68MOL   C45546149   6.845   7.813   2.440 -0.0909 -0.6468 -0.0714
   68MOL   C45646150   6.786   7.793   2.310  0.5973 -0.4047 -0.3565
   68MOL   O45746151   6.857   7.825   2.195  0.1309  0.2361  0.3809
   68MOL   C45846152   6.808   7.939   2.124 -0.4960  0.5157 -1.0449
   68MOL   C45946153   6.837   8.072   2.155 -0.4044  0.1319  0.3227
   68MOL   C46046154   6.780   8.175   2.080  0.0754 -0.1712  0.0924
   68MOL   C46146155   6.701   8.148   1.966 -0.3925  0.1103 -0.3815
   68MOL   C46246156   6.671   8.017   1.937  0.3905 -0.3356  0.0627
   68MOL   C46346157   6.726   7.913   2.015  0.3351 -0.0037  0.1582
   68MOL   C46446158   6.653   7.744   2.303  0.1065 -0.4175 -0.3822
   68MOL   C46546159   6.585   7.697   2.417 -0.3844  0.7615  0.6229
   68MOL   H46646160   6.664   7.450   2.509 -1.7806 -1.1299 -3.6854
   68MOL   H46746161   6.554   7.228   2.452 -0.8276 -1.2884 -0.0089
   68MOL   H46846162   6.245   7.334   2.733 -0.4619  0.9199  1.5198
   68MOL   H46946163   6.332   7.559   2.758 -0.6664 -0.5332 -0.4722
   68MOL   H47046164   6.796   7.800   2.659 -1.8823  0.2609  0.8318
   68MOL   H47146165   6.941   7.864   2.441  0.1346 -1.0527  1.3335
   68MOL   H47246166   6.910   8.101   2.229 -0.7564 -0.3053  0.8420
   68MOL   H47346167   6.807   8.276   2.107  0.8024 -0.1661 -0.6459
   68MOL   H47446168   6.604   8.003   1.853  0.6754  1.4164 -0.4831
   68MOL   H47546169   6.696   7.810   2.003  0.7727 -0.2081  0.8060
   68MOL   H47646170   6.610   7.735   2.204  0.2989  3.0001 -0.8429
   68MOL   H47746171   6.492   7.641   2.415  0.8381 -1.2728 -1.2036
   68MOL   C47846172   6.371   8.198   1.659  0.0198 -0.4472  1.0267
   68MOL   C47946173   6.439   8.230   1.782 -0.2106  0.9655  1.0771
   68MOL   C48046174   6.579   8.242   1.783 -0.0464 -0.1490  0.2434
   68MOL   O48146175   6.652   8.256   1.899 -0.1462  0.8219  0.5574
   68MOL   C48246176   6.648   8.251   1.660 -0.8016 -0.3158 -0.9300
   68MOL   C48346177   6.588   8.221   1.540 -0.2875 -0.2408  0.2714
   68MOL   C48446178   6.448   8.200   1.535  0.1609  0.5483 -0.1903
   68MOL   C48546179   6.375   8.190   1.406 -0.1134 -0.3097  0.4331
   68MOL   O48646180   6.414   8.247   1.301  0.2971 -0.0257 -0.4433
   68MOL   C48746181   6.259   8.091   1.403 -0.7244  0.1030 -0.1316
   68MOL   C48846182   6.130   8.133   1.364  1.1025 -0.1551  0.2143
   68MOL   C48946183   6.026   8.040   1.361  0.1810  0.7152 -0.3212
   68MOL   C49046184   6.046   7.905   1.395  0.1012  0.0357  0.1051
   68MOL   O49146185   5.939   7.817   1.390  0.0237  0.6114 -0.0024
   68MOL   C49246186   5.894   7.763   1.505  0.1398  0.3895  0.0860
   68MOL   C49346187   5.955   7.655   1.562  0.5460  0.3861  0.4943
   68MOL   C49446188   5.908   7.595   1.678 -0.6514  0.4383 -0.0349
   68MOL   C49546189   5.792   7.636   1.744 -0.4885 -0.2201  0.6956
   68MOL   C49646190   5.726   7.746   1.686  0.3052  0.4150  0.5637
   68MOL   C49746191   5.778   7.805   1.570 -0.0088  0.2948 -0.2230
   68MOL   C49846192   6.180   7.856   1.423 -0.2032 -0.2492  0.2194
   68MOL   C49946193   6.285   7.952   1.433 -0.0879  0.2326 -0.5707
   68MOL   H50046194   6.264   8.187   1.665  0.1500 -0.9257  3.0984
   68MOL   H50146195   6.380   8.211   1.871  0.4297 -3.6083  0.6363
   68MOL   H50246196   6.749   8.287   1.663 -0.6563 -0.5949 -2.1775
   68MOL   H50346197   6.643   8.239   1.449 -0.1880 -0.0629  0.3656
   68MOL   H50446198   6.120   8.238   1.341  1.1726 -0.4463 -1.1855
   68MOL   H50546199   5.924   8.067   1.342 -0.5358 -0.7433  1.2931
   68MOL   H50646200   6.037   7.616   1.505 -0.8662 -1.4644 -0.3302
   68MOL   H50746201   5.959   7.505   1.711 -0.5250  1.0005  1.3125
   68MOL   H50846202   5.642   7.794   1.733  1.3278  0.9569  1.8767
   68MOL   H50946203   5.715   7.882   1.529 -2.7784 -1.6093  0.3293
   68MOL   H51046204   6.194   7.750   1.440  1.3769 -0.1199 -0.1803
   68MOL   H51146205   6.390   7.934   1.453 -0.0317 -0.1966 -1.2689
   68MOL   C51246206   5.481   7.669   2.085 -0.1025 -0.4870 -0.2362
   68MOL   C51346207   5.542   7.584   1.986  0.2444 -0.6025  0.3098
   68MOL   C51446208   5.673   7.617   1.949  0.4578 -0.2992  0.7641
   68MOL   O51546209   5.738   7.561   1.842  0.6677  0.5909  0.1609
   68MOL   C51646210   5.751   7.707   2.026  0.2145 -0.0034  0.4126
   68MOL   C51746211   5.699   7.779   2.135 -0.8781 -0.4286 -0.3342
   68MOL   C51846212   5.563   7.763   2.160 -0.9954  0.2800  0.4955
   68MOL   C51946213   5.497   7.824   2.271  0.4145 -1.1269  0.2267
   68MOL   O52046214   5.420   7.918   2.254 -0.3776  0.0596  0.3263
   68MOL   C52146215   5.511   7.753   2.408 -0.4597 -0.1423  0.1048
   68MOL   C52246216   5.413   7.786   2.501  0.6838 -0.3718 -0.1301
   68MOL   C52346217   5.408   7.726   2.628  0.0956 -0.0586  0.0118
   68MOL   C52446218   5.504   7.621   2.655  0.0357 -0.9378 -0.5136
   68MOL   O52546219   5.495   7.562   2.781 -0.4812 -0.0768 -0.6370
   68MOL   C52646220   5.562   7.607   2.893  0.3643  0.0146 -0.2869
   68MOL   C52746221   5.566   7.526   3.007 -0.7769  1.2604  0.1356
   68MOL   C52846222   5.633   7.568   3.121 -0.4208  0.3294 -0.1357
   68MOL   C52946223   5.707   7.684   3.120  0.1273 -0.0405 -0.0014
   68MOL   C53046224   5.705   7.764   3.006 -0.2269  0.4252  1.2992
   68MOL   C53146225   5.637   7.726   2.890 -0.1292  0.4165 -0.1308
   68MOL   C53246226   5.593   7.578   2.557  0.2890 -0.1620 -0.4534
   68MOL   C53346227   5.598   7.643   2.436  0.5607  0.3809  0.7553
   68MOL   H53446228   5.374   7.675   2.098  0.1246  1.1230  1.0534
   68MOL   H53546229   5.484   7.505   1.942  0.1662 -0.4589  0.1523
   68MOL   H53646230   5.855   7.726   2.002  0.3547 -0.2005  0.8587
   68MOL   H53746231   5.765   7.852   2.177  1.3904 -3.2062  1.1032
   68MOL   H53846232   5.341   7.864   2.478  1.5636  0.7407  0.8335
   68MOL   H53946233   5.336   7.749   2.705  0.3386  0.3759  0.1116
   68MOL   H54046234   5.510   7.434   3.008 -0.5408  1.0996  3.3911
   68MOL   H54146235   5.629   7.509   3.211 -0.2396  0.4465 -0.0495
   68MOL   H54246236   5.779   7.842   2.997 -0.6471  0.8534  1.5262
   68MOL   H54346237   5.659   7.775   2.796 -1.1154  0.2608 -0.4477
   68MOL   H54446238   5.648   7.486   2.571 -0.6126 -0.3608  2.0568
   68MOL   H54546239   5.674   7.611   2.366  1.2544 -2.6639  2.7934
   68MOL   C54646240   5.588   7.743   3.562 -0.2703  0.4209  0.3946
   68MOL   C54746241   5.692   7.717   3.468  0.6487  0.4363  0.5167
   68MOL   C54846242   5.671   7.758   3.332 -0.0182 -0.4132  0.4175
   68MOL   O54946243   5.767   7.722   3.239  0.0631 -0.2182  0.2450
   68MOL   C55046244   5.556   7.839   3.294 -1.0847 -0.3483  0.1306
   68MOL   C55146245   5.465   7.873   3.396  0.3541  0.2810 -0.1653
   68MOL   C55246246   5.484   7.829   3.529 -0.9936  0.4162 -0.1447
   68MOL   C55346247   5.370   7.871   3.622 -0.3125 -0.4663 -0.5430
   68MOL   O55446248   5.263   7.924   3.585 -0.1956  0.4729 -0.1690
   68MOL   C55546249   5.372   7.826   3.767 -0.4861  0.0875  0.2896
   68MOL   C55646250   5.259   7.773   3.834 -0.3310 -0.3681  0.3216
   68MOL   C55746251   5.268   7.733   3.968 -0.0513 -0.5571  0.3666
   68MOL   C55846252   5.393   7.733   4.037  0.0069  0.0917  1.0504
   68MOL   O55946253   5.396   7.686   4.157 -0.7227 -0.2121 -0.0628
   68MOL   C56046254   5.445   7.562   4.184  0.7789 -0.2608  0.0552
   68MOL   C56146255   5.415   7.457   4.096  0.4616  0.2582 -0.2081
   68MOL   C56246256   5.463   7.327   4.120 -0.3477  0.3233  0.5236
   68MOL   C56346257   5.536   7.301   4.229 -0.2759  0.5997  0.0264
   68MOL   C56446258   5.568   7.402   4.318 -0.5271 -0.4735 -0.4866
   68MOL   C56546259   5.523   7.532   4.300 -0.5192  0.3031 -0.7616
   68MOL   C56646260   5.508   7.787   3.971  0.1142 -0.1101 -0.9506
   68MOL   C56746261   5.499   7.842   3.846  0.2367  0.4005  0.5089
   68MOL   H56846262   5.598   7.702   3.661 -2.2550  0.3499  0.5812
   68MOL   H56946263   5.774   7.653   3.497 -1.4450 -2.5074  0.0855
   68MOL   H57046264   5.546   7.886   3.197  0.1429  2.3707  1.2972
   68MOL   H57146265   5.377   7.926   3.361  0.1024 -0.6378 -0.9370
   68MOL   H57246266   5.164   7.752   3.788 -0.2317 -0.0823 -0.0150
   68MOL   H57346267   5.179   7.695   4.016 -1.9761  1.3917 -1.6235
   68MOL   H57446268   5.351   7.465   4.009 -2.0760 -1.8522  1.3698
   68MOL   H57546269   5.425   7.260   4.044  0.5439  0.4302 -0.0316
   68MOL   H57646270   5.616   7.371   4.410  0.7555 -0.2707 -1.0722
   68MOL   H57746271   5.551   7.616   4.361  0.1073  0.0205 -0.6576
   68MOL   H57846272   5.599   7.790   4.029 -1.3510  0.9596  1.3565
   68MOL   H57946273   5.586   7.889   3.802  2.3667 -1.7306  2.2976
   68MOL   C58046274   5.361   6.865   4.244 -0.6058 -0.5040 -0.1991
   68MOL   C58146275   5.459   6.962   4.205 -0.6914  0.5614 -0.1860
   68MOL   C58246276   5.480   7.076   4.281 -0.2262 -0.3717 -0.5009
   68MOL   O58346277   5.577   7.174   4.259  0.2914  0.3862 -0.2649
   68MOL   C58446278   5.396   7.105   4.393 -0.0114  0.1056 -0.7882
   68MOL   C58546279   5.300   7.010   4.429  0.1066 -0.0331  0.2400
   68MOL   C58646280   5.273   6.892   4.353  0.5157 -1.0103 -0.8796
   68MOL   C58746281   5.161   6.801   4.390 -0.2012 -0.3755  0.8242
   68MOL   O58846282   5.175   6.681   4.372 -0.3861 -0.2154 -0.4127
   68MOL   C58946283   5.045   6.869   4.451 -0.3296  1.2716  0.6376
   68MOL   C59046284   5.004   6.836   4.578  0.0060  0.8397 -0.4311
   68MOL   C59146285   4.891   6.897   4.640  0.4889 -1.1291 -0.5511
   68MOL   C59246286   4.816   6.992   4.572 -0.3879  0.4750  0.5078
   68MOL   O59346287   4.696   7.031   4.631  0.0175 -0.5830  0.0947
   68MOL   C59446288   4.580   7.028   4.556 -0.4936 -0.0581  0.1464
   68MOL   C59546289   4.532   6.908   4.507  0.0892 -0.0474 -0.0143
   68MOL   C59646290   4.426   6.903   4.410  1.1476  0.8890  0.4840
   68MOL   C59746291   4.364   7.029   4.387  0.7189 -0.4449  0.4781
   68MOL   C59846292   4.405   7.151   4.442  0.5105  0.4140 -0.3079
   68MOL   C59946293   4.519   7.149   4.525  0.2910 -0.6060  0.0478
   68MOL   C60046294   4.859   7.031   4.438  0.0983  0.3737  0.1828
   68MOL   C60146295   4.975   6.972   4.385 -0.3994  0.0656 -0.0590
   68MOL   H60246296   5.357   6.773   4.189  1.7553  0.7029 -2.5105
   68MOL   H60346297   5.526   6.935   4.124 -0.9816 -3.3806  0.7678
   68MOL   H60446298   5.421   7.187   4.458  2.9472 -2.1001  0.9453
   68MOL   H60546299   5.251   7.025   4.524  0.4273  1.2375  0.2092
   68MOL   H60646300   5.060   6.758   4.628 -0.6666 -0.0375 -1.0477
   68MOL   H60746301   4.854   6.865   4.736 -0.0500 -0.7981 -0.6476
   68MOL   H60846302   4.577   6.815   4.538  1.5935 -0.1682 -2.4050
   68MOL   H60946303   4.395   6.809   4.368  2.0341 -0.0590  1.9449
   68MOL   H61046304   4.354   7.246   4.434 -1.5778 -0.5242  1.3309
   68MOL   H61146305   4.554   7.239   4.574 -0.7467 -0.8958  1.3462
   68MOL   H61246306   4.803   7.100   4.378 -0.2204 -0.2532 -0.2476
   68MOL   H61346307   5.008   6.998   4.285  0.1218 -2.3377 -0.5547
   68MOL   C61446308   3.957   7.115   4.508 -0.2943 -0.1580 -0.1278
   68MOL   C61546309   4.089   7.074   4.475  0.1645 -0.3733  0.5380
   68MOL   C61646310   4.135   7.064   4.343  0.2030  0.7266  0.6332
   68MOL   O61746311   4.260   7.026   4.300  0.1827  0.7339  0.0588
   68MOL   C61846312   4.044   7.092   4.240  0.1261 -0.0151  0.4062
   68MOL   C61946313   3.912   7.135   4.266 -0.2896 -0.0174 -0.9809
   68MOL   C62046314   3.865   7.136   4.402  0.0738  0.3845 -0.6435
   68MOL   C62146315   3.732   7.192   4.438 -0.2779 -0.0914  0.0483
   68MOL   O62246316   3.724   7.252   4.542  0.0021  0.1654 -0.3244
   68MOL   C62346317   3.603   7.174   4.353  0.6891  0.7362 -0.4083
   68MOL   C62446318   3.491   7.253   4.395  0.6070 -0.3299 -0.6561
   68MOL   C62546319   3.370   7.253   4.325 -0.9432 -0.3941 -0.0586
   68MOL   C62646320   3.360   7.186   4.197 -0.0672  0.4714 -0.4137
   68MOL   O62746321   3.243   7.179   4.125  0.1198 -0.2670  0.1401
   68MOL   C62846322   3.175   7.060   4.127  0.0303  0.6824 -0.0691
   68MOL   C62946323   3.194   6.963   4.024  0.1125  0.0688  0.3814
   68MOL   C63046324   3.125   6.843   4.031 -0.0059  0.1045  0.1822
   68MOL   C63146325   3.026   6.823   4.134  0.1653  0.1321  0.4603
   68MOL   C63246326   3.012   6.916   4.232  0.3538 -0.1230 -0.1353
   68MOL   C63346327   3.081   7.036   4.234 -0.5495 -0.2864  0.2282
   68MOL   C63446328   3.465   7.100   4.163 -0.4242 -0.2133  0.1089
   68MOL   C63546329   3.586   7.096   4.238 -0.6410 -1.4642 -0.0952
   68MOL   H63646330   3.937   7.129   4.613  2.9480 -2.3490  0.8652
   68MOL   H63746331   4.152   7.053   4.561  0.1046 -0.6204  0.5240
   68MOL   H63846332   4.082   7.094   4.139 -0.4811  2.7261  0.1988
   68MOL   H63946333   3.846   7.170   4.188  0.8215 -1.6475 -2.6934
   68MOL   H64046334   3.495   7.311   4.485  1.4486 -1.1138 -0.1785
   68MOL   H64146335   3.287   7.300   4.377  0.3987 -1.0007  2.7451
   68MOL   H64246336   3.271   6.976   3.950  0.7308 -0.6316  0.8919
   68MOL   H64346337   3.128   6.774   3.948 -0.9892  0.8669 -0.5034
   68MOL   H64446338   2.946   6.894   4.314  0.1660  0.0725 -0.2348
   68MOL   H64546339   3.071   7.111   4.311 -3.0319  0.2880 -0.5913
   68MOL   H64646340   3.465   7.048   4.068 -0.7940  0.0780 -0.0497
   68MOL   H64746341   3.666   7.030   4.206  0.3443  0.6220 -2.0505
   68MOL   C64846342   2.612   6.620   4.236 -0.2423 -0.4453 -0.2233
   68MOL   C64946343   2.757   6.622   4.230 -0.1323 -0.2788 -0.5248
   68MOL   C65046344   2.822   6.715   4.153 -0.4371 -0.3516  0.3904
   68MOL   O65146345   2.960   6.710   4.146 -0.0355  0.6418 -0.0244
   68MOL   C65246346   2.748   6.815   4.076 -0.0756 -1.1063  0.3693
   68MOL   C65346347   2.613   6.813   4.086  0.4219  0.0465 -0.4609
   68MOL   C65446348   2.538   6.717   4.167 -0.1142 -0.0658  0.5188
   68MOL   C65546349   2.392   6.716   4.178 -0.2046 -0.2898  0.4515
   68MOL   O65646350   2.328   6.610   4.199 -1.0692 -0.0973  0.3917
   68MOL   C65746351   2.318   6.843   4.165 -0.5562  0.3644 -0.0144
   68MOL   C65846352   2.191   6.838   4.105 -1.0113  0.6066  0.9232
   68MOL   C65946353   2.124   6.954   4.080  0.1242  0.1766 -0.4033
   68MOL   C66046354   2.184   7.080   4.108  0.1126 -0.1765  0.3129
   68MOL   O66146355   2.122   7.201   4.080 -0.5154 -0.3503  0.0826
   68MOL   C66246356   1.988   7.214   4.072  0.5192 -0.5748  0.0537
   68MOL   C66346357   1.897   7.165   4.168 -0.6595  0.0308  0.5489
   68MOL   C66446358   1.764   7.190   4.148  0.9228  0.1661  0.0617
   68MOL   C66546359   1.718   7.245   4.027  0.3822  0.3254  0.2185
   68MOL   C66646360   1.811   7.290   3.930 -0.0059  0.2622  0.1578
   68MOL   C66746361   1.950   7.273   3.948 -0.1773 -0.6739  0.6405
   68MOL   C66846362   2.306   7.086   4.177 -0.3921  0.0880  0.0001
   68MOL   C66946363   2.376   6.966   4.208 -0.0024  0.1323  1.1000
   68MOL   H67046364   2.563   6.550   4.302 -1.1109  0.3573 -0.0098
   68MOL   H67146365   2.814   6.551   4.289 -1.3007 -0.8503 -0.0760
   68MOL   H67246366   2.803   6.876   4.006 -1.1068 -0.4592  0.1107
   68MOL   H67346367   2.558   6.889   4.032  1.5248 -0.4232 -2.2658
   68MOL   H67446368   2.151   6.744   4.068  1.2445  0.5153 -1.4010
   68MOL   H67546369   2.031   6.956   4.026  0.3679 -0.3391 -0.8511
   68MOL   H67646370   1.937   7.110   4.252 -1.3127 -0.0136  0.8302
   68MOL   H67746371   1.692   7.166   4.225 -0.6385  3.1712 -0.3823
   68MOL   H67846372   1.768   7.327   3.838  0.7114 -1.3921 -0.8618
   68MOL   H67946373   2.025   7.307   3.878  0.1161 -1.1223  0.7331
   68MOL   H68046374   2.350   7.180   4.209  3.1925 -1.5120 -0.0395
   68MOL   H68146375   2.472   6.962   4.257  0.7577  3.5892  0.0018
   68MOL   H68246376   1.612   7.263   4.018  0.1536 -0.7572  0.7036
   69MOL     C146377   2.504   6.875   5.751  0.7365 -0.5444  0.7632
   69MOL     C246378   2.515   7.011   5.793 -0.0145 -0.4387  0.3068
   69MOL     C346379   2.626   7.093   5.765 -0.1732  0.3248  0.9880
   69MOL     O446380   2.628   7.224   5.803  0.0097  0.1759  0.2201
   69MOL     C546381   2.730   7.028   5.694  0.3386  0.3034  0.0201
   69MOL     C646382   2.726   6.892   5.662 -0.3827  0.2932  0.3976
   69MOL     C746383   2.610   6.815   5.680 -0.1024 -0.3473 -0.3560
   69MOL     C846384   2.612   6.677   5.635  0.3520 -0.4102  1.1013
   69MOL     O946385   2.711   6.604   5.615 -0.0197  0.7861  0.6309
   69MOL    C1046386   2.473   6.619   5.607 -0.3317  0.4269 -0.0057
   69MOL    C1146387   2.431   6.498   5.668 -0.2681  0.5703  0.1329
   69MOL    C1246388   2.306   6.437   5.640 -0.2606  0.2139  1.1520
   69MOL    C1346389   2.214   6.509   5.564 -0.9985  0.0986  0.3663
   69MOL    O1446390   2.091   6.456   5.548 -0.3000  0.0829  0.4394
   69MOL    C1546391   2.055   6.444   5.418  0.2897  0.3435 -0.3544
   69MOL    C1646392   1.933   6.503   5.378  0.6717  0.4954  0.4053
   69MOL    C1746393   1.884   6.499   5.248 -0.1176 -0.2943 -0.1505
   69MOL    C1846394   1.954   6.424   5.152  0.4089 -0.6534 -0.4510
   69MOL    C1946395   2.071   6.360   5.192 -0.1525  0.1691  0.3899
   69MOL    C2046396   2.127   6.368   5.319 -0.7273  0.5350 -0.5819
   69MOL    C2146397   2.252   6.635   5.509  0.5855  0.0530  0.5478
   69MOL    C2246398   2.384   6.683   5.527 -0.1080 -0.1918 -0.9608
   69MOL    H2346399   2.411   6.822   5.770 -0.8625  1.3340 -1.4920
   69MOL    H2446400   2.434   7.054   5.851 -1.3571  1.6629 -2.9975
   69MOL    H2546401   2.823   7.073   5.660 -0.5358  1.7478 -0.4985
   69MOL    H2646402   2.810   6.847   5.612 -0.0036  0.5867  0.7649
   69MOL    H2746403   2.494   6.441   5.735  1.0362 -1.3868 -2.6393
   69MOL    H2846404   2.271   6.343   5.679  1.1511 -0.3460  1.0927
   69MOL    H2946405   1.873   6.560   5.447 -3.2971  0.1140 -2.5736
   69MOL    H3046406   1.791   6.551   5.228 -1.0113 -1.2640  1.3441
   69MOL    H3146407   2.121   6.302   5.116 -1.5111 -1.2457  0.5509
   69MOL    H3246408   2.223   6.325   5.347 -1.2585  0.7558  1.7250
   69MOL    H3346409   2.180   6.678   5.441  1.0379  0.1580  0.1351
   69MOL    H3446410   2.418   6.773   5.478 -1.3751 -0.4987 -2.4383
   69MOL    H3546411   2.711   7.270   5.796  0.0725 -0.0148 -0.3459
   69MOL    C3646412   1.706   6.674   4.870 -0.8470 -0.0123  0.5143
   69MOL    C3746413   1.738   6.560   4.948  0.3354  0.7912 -0.3535
   69MOL    C3846414   1.871   6.520   4.963  0.9423  0.1156 -0.3170
   69MOL    O3946415   1.902   6.409   5.031  0.8950  0.7931 -0.9058
   69MOL    C4046416   1.976   6.606   4.915 -0.2571  0.3463 -0.4055
   69MOL    C4146417   1.943   6.723   4.838 -0.2243 -0.0785  0.1852
   69MOL    C4246418   1.808   6.757   4.810 -0.2059 -0.1457 -0.3589
   69MOL    C4346419   1.760   6.870   4.729 -0.1722 -0.1774 -0.1938
   69MOL    O4446420   1.661   6.864   4.657 -0.3544  0.2938  0.6172
   69MOL    C4546421   1.850   6.988   4.712 -0.6988 -0.9366  0.5931
   69MOL    C4646422   1.876   7.044   4.585 -0.2594 -0.6947 -0.5344
   69MOL    C4746423   1.951   7.161   4.569 -0.3489 -0.1851  0.3549
   69MOL    C4846424   2.017   7.217   4.678 -0.0944  0.5735  0.7295
   69MOL    O4946425   2.110   7.312   4.670  0.4297 -0.5186  0.0367
   69MOL    C5046426   2.108   7.403   4.569 -0.5994  0.0141  0.1478
   69MOL    C5146427   2.189   7.390   4.451 -0.8150 -0.5249  0.1762
   69MOL    C5246428   2.188   7.480   4.349 -0.0009 -0.6551 -0.9228
   69MOL    C5346429   2.124   7.607   4.371 -0.8101 -0.6385  0.9850
   69MOL    C5446430   2.053   7.632   4.491  0.3487  0.3888  0.5811
   69MOL    C5546431   2.038   7.526   4.582  0.1352 -0.6240  0.3179
   69MOL    C5646432   1.996   7.153   4.804  0.0372  0.1532 -0.6416
   69MOL    C5746433   1.918   7.042   4.821  0.4652  0.2665  0.7035
   69MOL    H5846434   1.600   6.687   4.852 -0.3644  1.9694 -0.9561
   69MOL    H5946435   1.657   6.508   4.995  0.7334  2.0146  1.7311
   69MOL    H6046436   2.081   6.584   4.932 -0.4377 -0.7300 -0.6632
   69MOL    H6146437   2.021   6.784   4.797  0.2681  0.1170  1.3994
   69MOL    H6246438   1.819   7.001   4.503 -1.4436  0.4286 -0.3236
   69MOL    H6346439   1.955   7.199   4.469  1.4050 -1.8732 -0.2605
   69MOL    H6446440   2.250   7.301   4.440  0.2707  0.3795 -1.2962
   69MOL    H6546441   2.255   7.473   4.264  1.4415 -1.6256  0.2569
   69MOL    H6646442   2.011   7.730   4.510  0.0642  0.9325 -2.6171
   69MOL    H6746443   1.981   7.541   4.673 -0.5334 -0.3757 -0.1407
   69MOL    H6846444   2.058   7.187   4.886  0.1205 -0.9401 -0.2466
   69MOL    H6946445   1.906   7.000   4.920  0.8257 -0.5866  0.3867
   69MOL    C7046446   1.994   7.772   3.953  0.0560 -0.0578  0.1831
   69MOL    C7146447   2.076   7.781   4.064 -0.7087  0.2218  0.1861
   69MOL    C7246448   2.049   7.693   4.173 -0.4368  0.0824 -0.3626
   69MOL    O7346449   2.136   7.704   4.277  0.1717  0.4330 -0.3972
   69MOL    C7446450   1.940   7.598   4.154 -0.7742  0.2471 -0.0968
   69MOL    C7546451   1.855   7.604   4.044  0.5168 -0.1929 -0.2793
   69MOL    C7646452   1.890   7.680   3.933  0.4614  0.2090 -0.3653
   69MOL    C7746453   1.799   7.690   3.817 -0.1098 -0.1250  0.4342
   69MOL    O7846454   1.682   7.709   3.828  0.2881  0.0658  0.1075
   69MOL    C7946455   1.861   7.689   3.681 -0.3434 -0.3203  0.5545
   69MOL    C8046456   1.963   7.595   3.649 -0.6342  0.0534 -0.2633
   69MOL    C8146457   2.033   7.610   3.526  0.1699 -0.1050  0.3996
   69MOL    C8246458   1.999   7.715   3.431 -0.0550  0.0173 -0.2954
   69MOL    O8346459   2.072   7.741   3.320 -0.0354 -0.5094  0.1680
   69MOL    C8446460   2.205   7.711   3.318  0.7596  0.2761 -0.2801
   69MOL    C8546461   2.299   7.813   3.343  0.5363  0.5123  0.0345
   69MOL    C8646462   2.434   7.774   3.354  0.1248  0.2155  0.5064
   69MOL    C8746463   2.469   7.636   3.333 -0.9481 -0.3820 -0.2623
   69MOL    C8846464   2.379   7.538   3.287  0.4499 -0.1175 -0.2837
   69MOL    C8946465   2.241   7.576   3.288 -0.3736  0.0506  0.2811
   69MOL    C9046466   1.889   7.796   3.466  0.4888 -0.3354  0.8188
   69MOL    C9146467   1.824   7.786   3.592 -0.2692 -0.3926 -0.7670
   69MOL    H9246468   2.024   7.842   3.876 -1.1880  1.1333  0.7626
   69MOL    H9346469   2.154   7.856   4.068  0.0342 -0.4291 -1.6774
   69MOL    H9446470   1.915   7.516   4.221 -0.1961 -1.2127 -1.6352
   69MOL    H9546471   1.764   7.547   4.037 -0.1667  0.5264  2.0259
   69MOL    H9646472   1.991   7.530   3.730 -1.9583 -1.0672 -0.6856
   69MOL    H9746473   2.106   7.533   3.507 -1.1681 -1.5356  0.9285
   69MOL    H9846474   2.285   7.919   3.355  0.5872  0.2792  2.3708
   69MOL    H9946475   2.499   7.853   3.388 -0.1724  1.0339 -0.8026
   69MOL   H10046476   2.404   7.434   3.274 -1.9325 -0.9201  1.1549
   69MOL   H10146477   2.163   7.507   3.261  1.4854 -1.2660 -1.9009
   69MOL   H10246478   1.879   7.882   3.401  0.8427 -1.6725 -1.0416
   69MOL   H10346479   1.755   7.866   3.613 -0.2545 -0.0965 -1.7994
   69MOL   C10446480   2.860   7.836   3.328  0.1178  0.6475 -0.4464
   69MOL   C10546481   2.764   7.740   3.298  0.7928  0.3229 -0.4678
   69MOL   C10646482   2.690   7.680   3.403 -0.0165  0.2110  0.5503
   69MOL   O10746483   2.596   7.592   3.368 -0.2639  0.4283  0.4930
   69MOL   C10846484   2.729   7.703   3.534 -0.5857 -1.1433 -0.3082
   69MOL   C10946485   2.838   7.794   3.569  0.3551  0.4215  0.2965
   69MOL   C11046486   2.905   7.861   3.464  0.2855 -0.3827  0.1147
   69MOL   C11146487   3.020   7.953   3.492  0.2201  0.1323 -0.3457
   69MOL   O11246488   3.069   7.970   3.605  0.7536  0.1307  0.6601
   69MOL   C11346489   3.090   8.024   3.380 -0.3504 -0.3076  0.5019
   69MOL   C11446490   3.233   8.000   3.370 -0.1869  0.3945  0.1497
   69MOL   C11546491   3.305   8.063   3.259  0.0293  0.1170 -0.5402
   69MOL   C11646492   3.229   8.149   3.171 -0.0430  0.6122 -1.0291
   69MOL   O11746493   3.294   8.222   3.074  0.1600  0.3954 -0.4624
   69MOL   C11846494   3.377   0.015   3.112  0.0723  0.5024 -0.4511
   69MOL   C11946495   3.327   0.128   3.183 -1.4430 -0.4840  0.1913
   69MOL   C12046496   3.405   0.242   3.198 -0.3952 -0.0940  0.0004
   69MOL   C12146497   3.540   0.241   3.155  0.6484  0.1590  0.3783
   69MOL   C12246498   3.587   0.125   3.091 -0.1896 -0.6959 -0.2915
   69MOL   C12346499   3.506   0.004   3.071 -0.4910 -0.1945 -0.2622
   69MOL   C12446500   3.095   8.171   3.189  0.2304  0.1245 -0.3266
   69MOL   C12546501   3.023   8.109   3.296  0.1905 -0.0171 -0.1356
   69MOL   H12646502   2.910   7.893   3.251  1.0359  0.3503 -0.0879
   69MOL   H12746503   2.745   7.709   3.196  1.2879 -1.7649  0.0381
   69MOL   H12846504   2.672   7.663   3.617  0.1098 -0.6099  0.4409
   69MOL   H12946505   2.862   7.821   3.671  1.8371 -0.8640  0.3059
   69MOL   H13046506   3.284   7.940   3.444  0.9523  2.7674  1.3034
   69MOL   H13146507   3.411   8.047   3.245  0.0251 -0.3290 -0.0847
   69MOL   H13246508   3.223   0.139   3.213 -0.9313 -0.5743  2.0236
   69MOL   H13346509   3.365   0.329   3.247 -0.0461 -0.4517  0.9379
   69MOL   H13446510   3.688   0.126   3.053  0.1179 -0.0541  0.5241
   69MOL   H13546511   3.541   8.229   3.019  2.9839  0.6209  0.5831
   69MOL   H13646512   3.032   8.228   3.121  0.8635 -0.7020 -1.6282
   69MOL   H13746513   2.917   8.129   3.310  0.3262  2.9574 -2.8414
   69MOL   C13846514   3.892   0.320   3.415 -0.1349 -0.1644  0.0583
   69MOL   C13946515   3.811   0.294   3.300 -0.4802  0.1111 -0.3999
   69MOL   C14046516   3.692   0.367   3.282 -0.3368 -0.5867 -0.8881
   69MOL   O14146517   3.619   0.354   3.169 -0.4606 -0.3612 -0.5455
   69MOL   C14246518   3.658   0.461   3.386  0.2350  0.2402  0.3560
   69MOL   C14346519   3.732   0.484   3.500  0.2582  0.4260  0.6076
   69MOL   C14446520   3.848   0.408   3.516  0.2534  0.7434 -0.1113
   69MOL   C14546521   3.927   0.425   3.643 -0.7172  0.3907 -0.3576
   69MOL   O14646522   3.916   0.352   3.743  0.5301  0.0277  0.1638
   69MOL   C14746523   4.023   0.537   3.645 -0.5649  0.3647 -0.4800
   69MOL   C14846524   4.092   0.558   3.760 -0.2720  0.2366  0.3137
   69MOL   C14946525   4.179   0.666   3.772 -0.8540 -0.3129 -0.7592
   69MOL   C15046526   4.206   0.751   3.666  0.2849 -0.5832 -0.8080
   69MOL   O15146527   4.295   0.855   3.676  0.1585 -0.2112  0.0891
   69MOL   C15246528   4.254   0.977   3.643 -0.7900 -0.1566  0.1892
   69MOL   C15346529   4.314   1.047   3.542  0.2956  0.4544 -0.0730
   69MOL   C15446530   4.268   1.171   3.496  0.6372 -0.0417 -0.7780
   69MOL   C15546531   4.159   1.226   3.561 -0.2200  0.1744 -1.3992
   69MOL   C15646532   4.087   1.157   3.657 -0.3655  0.7789 -0.5573
   69MOL   C15746533   4.141   1.033   3.702  0.2817 -0.7480  0.7255
   69MOL   C15846534   4.134   0.726   3.540 -0.0585  0.2089  0.2826
   69MOL   C15946535   4.051   0.618   3.533 -0.4583  0.4146  1.0288
   69MOL   H16046536   3.982   0.262   3.425 -0.1732 -0.3880 -0.8288
   69MOL   H16146537   3.858   0.243   3.218  0.7430  0.8827 -0.2031
   69MOL   H16246538   3.570   0.522   3.372 -0.3363 -0.5328  0.5459
   69MOL   H16346539   3.708   0.557   3.577  3.9901 -0.0834  2.3732
   69MOL   H16446540   4.073   0.504   3.851 -2.5937 -0.1209 -0.3289
   69MOL   H16546541   4.226   0.687   3.866  0.5492 -0.1541 -1.4773
   69MOL   H16646542   4.398   1.008   3.486  0.0280  0.8021 -0.7171
   69MOL   H16746543   4.313   1.233   3.419  1.8624  1.0497  0.7951
   69MOL   H16846544   3.996   1.203   3.694  0.0893  1.5647 -0.4112
   69MOL   H16946545   4.087   0.992   3.786  0.3542  0.9607  1.6169
   69MOL   H17046546   4.161   0.792   3.459  1.3991  0.0326  0.6089
   69MOL   H17146547   4.002   0.606   3.438  2.4141 -1.3109 -0.3245
   69MOL   C17246548   3.819   1.341   3.309  0.2520  0.8353  0.5845
   69MOL   C17346549   3.952   1.316   3.363 -0.8166 -0.5826  0.1416
   69MOL   C17446550   3.991   1.372   3.488  0.2696 -0.0450  0.0999
   69MOL   O17546551   4.120   1.351   3.530  0.1658 -0.3708  0.0958
   69MOL   C17646552   3.896   1.442   3.563 -0.2346  0.3302 -0.5138
   69MOL   C17746553   3.763   1.448   3.520  0.4327 -0.0019  0.7258
   69MOL   C17846554   3.728   1.401   3.389  0.1998 -0.3692 -0.2572
   69MOL   C17946555   3.588   1.426   3.349  0.1594 -0.1159  0.3065
   69MOL   O18046556   3.571   1.515   3.265  0.2926 -0.1709  0.0371
   69MOL   C18146557   3.471   1.354   3.413  0.7937 -0.0464  0.8758
   69MOL   C18246558   3.341   1.375   3.360  0.2373  0.9492 -0.3364
   69MOL   C18346559   3.232   1.314   3.421  0.2183 -0.4202 -0.2202
   69MOL   C18446560   3.252   1.224   3.532 -0.0762  0.4777 -0.0953
   69MOL   O18546561   3.136   1.173   3.590  0.1161  0.0325 -1.0325
   69MOL   C18646562   3.132   1.037   3.625  0.6206  0.6110 -0.2244
   69MOL   C18746563   3.108   0.944   3.525 -0.1813 -0.0571 -0.4221
   69MOL   C18846564   3.106   0.810   3.554 -0.6306  0.4264 -0.2258
   69MOL   C18946565   3.131   0.761   3.687  0.5795 -0.6348 -0.2096
   69MOL   C19046566   3.158   0.851   3.791 -0.5358 -0.3970 -0.0104
   69MOL   C19146567   3.154   0.987   3.757  0.8121 -0.5225  0.2371
   69MOL   C19246568   3.383   1.198   3.583  0.0952 -0.6062 -0.2060
   69MOL   C19346569   3.492   1.268   3.525 -0.8264  0.3725  0.5792
   69MOL   H19446570   3.789   1.317   3.208 -0.5928  1.8184  0.5985
   69MOL   H19546571   4.025   1.273   3.297 -0.4089  0.1238  0.1274
   69MOL   H19646572   3.923   1.483   3.659 -0.2316  1.9988 -1.2131
   69MOL   H19746573   3.692   1.497   3.584 -0.7369  0.0372 -0.5882
   69MOL   H19846574   3.327   1.457   3.290  0.2340  1.4201  0.2116
   69MOL   H19946575   3.129   1.335   3.396 -0.3324 -1.5929  0.9542
   69MOL   H20046576   3.095   0.985   3.426  0.0178  0.4852 -0.2239
   69MOL   H20146577   3.075   0.747   3.472 -2.2738  0.7314  0.1266
   69MOL   H20246578   3.177   0.809   3.888 -1.8652 -0.7077  0.1327
   69MOL   H20346579   3.169   1.063   3.832 -2.2081  1.4413 -1.0453
   69MOL   H20446580   3.399   1.146   3.676  0.0450 -0.1872  0.0401
   69MOL   H20546581   3.589   1.257   3.572  0.1845 -0.5735 -1.6593
   69MOL   C20646582   3.460   0.519   3.819 -0.8239 -0.9803  0.0721
   69MOL   C20746583   3.359   0.581   3.743  0.5149  1.2007 -0.1617
   69MOL   C20846584   3.225   0.566   3.779 -0.3898 -0.1943  0.4629
   69MOL   O20946585   3.123   0.626   3.711 -0.7413 -0.1749 -0.4082
   69MOL   C21046586   3.195   0.484   3.890 -0.4379 -0.3592 -0.8038
   69MOL   C21146587   3.298   0.421   3.965  0.0806  0.1946 -0.4423
   69MOL   C21246588   3.432   0.444   3.931  0.7079  0.5182 -0.3320
   69MOL   C21346589   3.547   0.379   4.000 -0.0154  0.3583  0.1981
   69MOL   O21446590   3.663   0.394   3.958 -0.2987  0.1262  0.1973
   69MOL   C21546591   3.509   0.295   4.118 -0.1425  0.8900  0.2278
   69MOL   C21646592   3.557   0.315   4.247 -0.1233 -0.1534 -0.3565
   69MOL   C21746593   3.517   0.231   4.352 -0.1983 -0.1683  0.0475
   69MOL   C21846594   3.432   0.121   4.330 -0.4135 -0.0913 -0.7813
   69MOL   O21946595   3.390   0.053   4.445 -0.4087 -0.7593 -0.5450
   69MOL   C22046596   3.316   8.250   4.445 -0.1515 -0.5404  0.0719
   69MOL   C22146597   3.195   8.250   4.510 -0.6426  0.3030  0.4097
   69MOL   C22246598   3.114   8.136   4.517  0.9987 -1.1726  1.0689
   69MOL   C22346599   3.167   8.014   4.467 -0.4797  0.4050  0.3870
   69MOL   C22446600   3.293   8.014   4.399 -0.0834  0.2784 -0.3963
   69MOL   C22546601   3.364   8.132   4.383  0.9155  0.7989  0.4460
   69MOL   C22646602   3.396   0.088   4.199  0.6842  0.3187  0.4316
   69MOL   C22746603   3.436   0.178   4.091  0.3937  0.5345  0.9168
   69MOL   H22846604   3.563   0.536   3.791 -1.1605  0.3307 -0.4426
   69MOL   H22946605   3.387   0.641   3.658  1.3223  0.9259 -0.0871
   69MOL   H23046606   3.091   0.470   3.913 -0.4082 -1.9547 -1.5112
   69MOL   H23146607   3.283   0.359   4.052  1.2776 -0.4958 -0.7156
   69MOL   H23246608   3.630   0.393   4.260 -1.7467  1.4849 -0.7870
   69MOL   H23346609   3.550   0.249   4.454 -0.7895 -0.3189  0.2635
   69MOL   H23446610   3.158   0.032   4.547  0.8264  1.5392 -1.2261
   69MOL   H23546611   3.018   8.138   4.568  0.4612 -1.6396  0.0846
   69MOL   H23646612   3.334   7.922   4.360  0.0025 -0.0751  0.5155
   69MOL   H23746613   3.455   8.145   4.327  1.1395  0.6262  0.7687
   69MOL   H23846614   3.329   0.004   4.185  0.5072  0.4078  0.7544
   69MOL   H23946615   3.425   0.156   3.986  0.6961 -0.5969  1.1185
   69MOL   C24046616   3.182   7.573   4.640 -0.0660 -0.1767  0.2660
   69MOL   C24146617   3.159   7.676   4.542 -0.4676 -0.0489  0.4255
   69MOL   C24246618   3.121   7.808   4.569  0.8402 -0.4018  0.4644
   69MOL   O24346619   3.098   7.897   4.475  0.1505  0.2951  0.0015
   69MOL   C24446620   3.111   7.838   4.709 -0.7773 -0.1011  0.4007
   69MOL   C24546621   3.138   7.742   4.808  0.3728  0.2486  0.0402
   69MOL   C24646622   3.162   7.606   4.775 -0.1258 -0.2560  0.2316
   69MOL   C24746623   3.183   7.512   4.888 -0.0785  0.1219  0.7244
   69MOL   O24846624   3.161   7.554   5.005 -0.6404 -0.3621  0.4028
   69MOL   C24946625   3.238   7.379   4.864  0.0406  0.3719  0.1245
   69MOL   C25046626   3.377   7.358   4.877  0.0634 -0.2862  0.4767
   69MOL   C25146627   3.430   7.235   4.838 -0.9835 -0.2714 -0.2876
   69MOL   C25246628   3.347   7.123   4.812 -0.4598  0.0868  0.2372
   69MOL   O25346629   3.394   7.002   4.787 -0.6305 -0.2086  0.0830
   69MOL   C25446630   3.401   6.910   4.893 -0.7287 -0.0789 -0.0936
   69MOL   C25546631   3.390   6.769   4.872  0.3039  0.0089  0.6016
   69MOL   C25646632   3.397   6.664   4.967  0.8056  0.7592  0.2292
   69MOL   C25746633   3.423   6.707   5.102  0.2183  0.1081  0.1840
   69MOL   C25846634   3.438   6.848   5.126 -0.2713 -0.7876 -0.1998
   69MOL   C25946635   3.419   6.952   5.028  0.2096  0.7598 -0.2540
   69MOL   C26046636   3.208   7.144   4.805  0.4539 -0.2590  0.8076
   69MOL   C26146637   3.157   7.271   4.822 -0.0113  0.0533 -0.7576
   69MOL   H26246638   3.190   7.470   4.609  1.2119  0.0478 -0.1931
   69MOL   H26346639   3.155   7.628   4.445  1.1871  0.2921  0.1762
   69MOL   H26446640   3.069   7.936   4.730 -0.3216 -0.2770  2.2269
   69MOL   H26546641   3.125   7.766   4.912 -1.9883  0.6581 -0.3339
   69MOL   H26646642   3.440   7.443   4.898 -3.3901  2.0134  2.0604
   69MOL   H26746643   3.536   7.218   4.822 -0.3074  2.0833  1.5035
   69MOL   H26846644   3.389   6.737   4.769 -0.1483  1.2048  0.2360
   69MOL   H26946645   3.401   6.561   4.934  0.7896  0.1342  2.1345
   69MOL   H27046646   3.451   6.878   5.229 -0.0158  2.1262 -1.0543
   69MOL   H27146647   3.423   7.057   5.053  0.9351  0.3653  1.3478
   69MOL   H27246648   3.137   7.062   4.801 -0.7572  0.7972 -0.3165
   69MOL   H27346649   3.051   7.287   4.814 -0.0001  0.1397 -0.7397
   69MOL   C27446650   3.550   6.620   5.556  0.5437  0.8626  0.4018
   69MOL   C27546651   3.466   6.600   5.445 -0.5912 -0.5103  0.6930
   69MOL   C27646652   3.514   6.638   5.318 -0.2893  0.3322 -0.3660
   69MOL   O27746653   3.436   6.613   5.203  0.5143  0.0419  0.5914
   69MOL   C27846654   3.642   6.696   5.300  0.7355 -0.1247 -0.4848
   69MOL   C27946655   3.717   6.724   5.413 -0.0696  0.6927 -0.2626
   69MOL   C28046656   3.676   6.683   5.541  0.1394 -0.0478  0.2701
   69MOL   C28146657   3.770   6.685   5.660 -0.4863  0.1109 -0.0036
   69MOL   O28246658   3.729   6.696   5.775 -0.5908  0.0729 -0.1535
   69MOL   C28346659   3.911   6.669   5.628  0.2346 -0.0712 -0.3464
   69MOL   C28446660   3.958   6.566   5.539  0.4448 -0.2922 -0.4019
   69MOL   C28546661   4.092   6.570   5.499  0.1593 -0.2087 -0.1028
   69MOL   C28646662   4.179   6.672   5.532  0.2507 -0.6901  0.4226
   69MOL   O28746663   4.302   6.678   5.478  0.8405 -0.9321  0.1583
   69MOL   C28846664   4.304   6.735   5.351  0.5321  0.0158  0.6087
   69MOL   C28946665   4.283   6.870   5.328  0.8214  0.0231  0.1530
   69MOL   C29046666   4.293   6.928   5.200 -0.1202  0.1353  0.0314
   69MOL   C29146667   4.327   6.851   5.086 -0.0406 -0.0206  0.2406
   69MOL   C29246668   4.358   6.714   5.112  0.5222  0.2130  0.1834
   69MOL   C29346669   4.348   6.652   5.239  0.4014 -0.1334  0.3673
   69MOL   C29446670   4.138   6.772   5.625  0.1382  0.1033 -0.3253
   69MOL   C29546671   4.007   6.760   5.676 -0.4700  0.1463 -0.0994
   69MOL   H29646672   3.513   6.581   5.650  0.7437 -1.2657 -0.3724
   69MOL   H29746673   3.372   6.548   5.457 -0.0892 -1.8357 -0.8458
   69MOL   H29846674   3.669   6.713   5.197 -1.5784 -0.1961 -1.1126
   69MOL   H29946675   3.815   6.769   5.403 -0.3700  1.4129 -0.0416
   69MOL   H30046676   3.884   6.494   5.508 -1.4470  1.6509 -0.5027
   69MOL   H30146677   4.130   6.498   5.428  0.5543 -0.1455  0.0400
   69MOL   H30246678   4.262   6.931   5.415  2.6981 -0.4132  0.9188
   69MOL   H30346679   4.260   7.029   5.182 -3.0946 -0.9905 -1.2511
   69MOL   H30446680   4.394   6.656   5.029 -0.5221 -2.3669  1.5004
   69MOL   H30546681   4.376   6.550   5.261 -0.0159  0.2800  2.9884
   69MOL   H30646682   4.204   6.846   5.667  1.2054 -1.9145  1.6551
   69MOL   H30746683   3.977   6.843   5.739 -2.4603 -0.0740 -0.7331
   69MOL   C30846684   4.285   6.741   4.640  0.1634  0.8101  0.2441
   69MOL   C30946685   4.350   6.787   4.751 -0.0767  0.1834 -0.8914
   69MOL   C31046686   4.284   6.859   4.852  0.4587  0.1388  0.4035
   69MOL   O31146687   4.344   6.909   4.965  0.3903 -0.3803  0.3696
   69MOL   C31246688   4.151   6.897   4.829 -0.2748  0.5508 -0.3796
   69MOL   C31346689   4.086   6.849   4.716  0.3882 -0.2916 -0.4908
   69MOL   C31446690   4.152   6.764   4.621  0.2453 -0.4622 -0.3944
   69MOL   C31546691   4.084   6.726   4.493  0.0534  1.0505 -0.5938
   69MOL   O31646692   4.146   6.723   4.388 -0.0300 -0.2476  0.0183
   69MOL   C31746693   3.939   6.691   4.495  0.2213 -0.7201  0.6859
   69MOL   C31846694   3.880   6.625   4.603  0.6560  0.1267  0.3586
   69MOL   C31946695   3.747   6.579   4.595 -0.0371 -0.4003  0.2176
   69MOL   C32046696   3.680   6.594   4.475 -0.0055  0.0810 -0.6197
   69MOL   O32146697   3.558   6.537   4.459  0.3236  0.2389  0.1524
   69MOL   C32246698   3.438   6.598   4.488  0.3793  1.1647  0.0331
   69MOL   C32346699   3.330   6.510   4.514  0.2150 -0.4706 -0.4564
   69MOL   C32446700   3.198   6.558   4.534 -0.5171  0.4309 -0.3096
   69MOL   C32546701   3.174   6.696   4.539 -0.1696  0.7250 -0.5494
   69MOL   C32646702   3.279   6.787   4.524  0.4108 -0.8366  0.3596
   69MOL   C32746703   3.414   6.738   4.503  0.4647 -0.0292  0.0517
   69MOL   C32846704   3.740   6.651   4.368 -0.1042  0.1156 -0.0904
   69MOL   C32946705   3.865   6.706   4.378 -0.0237 -0.0944 -0.6405
   69MOL   H33046706   4.342   6.671   4.581 -2.0148 -2.3262  1.7287
   69MOL   H33146707   4.456   6.766   4.762 -0.3703 -1.1429 -0.5193
   69MOL   H33246708   4.109   6.976   4.890  0.0100  1.8092 -1.7480
   69MOL   H33346709   3.984   6.881   4.708  0.9824  1.9622  0.5665
   69MOL   H33446710   3.940   6.590   4.685 -0.9777 -1.4645  0.9166
   69MOL   H33546711   3.702   6.537   4.683 -1.5913  0.0604 -0.3420
   69MOL   H33646712   3.343   6.405   4.494 -2.7510 -0.7515 -1.2972
   69MOL   H33746713   3.118   6.485   4.533  0.2545 -0.4479  0.4185
   69MOL   H33846714   3.257   6.893   4.520  1.3901 -0.7087 -2.9104
   69MOL   H33946715   3.496   6.805   4.481 -1.2695  2.5988  1.4324
   69MOL   H34046716   3.680   6.659   4.279  0.3320 -1.4043 -0.5248
   69MOL   H34146717   3.899   6.763   4.293 -0.3363  1.2576  0.1426
   69MOL   C34246718   2.904   6.958   4.813  0.4178 -0.2607 -0.4197
   69MOL   C34346719   2.934   6.899   4.687 -0.3711  0.0178  0.8198
   69MOL   C34446720   3.008   6.775   4.674 -0.3510  0.7335 -0.3978
   69MOL   O34546721   3.050   6.741   4.551 -0.5095  0.1163 -0.3013
   69MOL   C34646722   3.043   6.707   4.793  0.6775  0.3913  0.6283
   69MOL   C34746723   2.984   6.750   4.914 -0.3991 -0.9837  0.1059
   69MOL   C34846724   2.924   6.878   4.928  0.8423  0.3385 -0.5621
   69MOL   C34946725   2.860   6.921   5.058 -0.0217  0.6452 -0.0544
   69MOL   O35046726   2.745   6.895   5.080 -0.1307  0.3828  0.4669
   69MOL   C35146727   2.947   7.007   5.146 -0.0699 -0.0585  0.2773
   69MOL   C35246728   2.893   7.070   5.264  0.0421  0.1984  0.4578
   69MOL   C35346729   2.968   7.156   5.341 -0.1000  0.2884 -0.8872
   69MOL   C35446730   3.105   7.179   5.303 -0.3803 -0.1853  0.0277
   69MOL   O35546731   3.185   7.257   5.379 -0.5342  0.7228  0.1313
   69MOL   C35646732   3.161   7.391   5.380  0.2539  0.2034  0.6355
   69MOL   C35746733   3.232   7.468   5.469  0.6458  0.2010 -0.1547
   69MOL   C35846734   3.212   7.607   5.477  0.8884  0.2328 -0.6738
   69MOL   C35946735   3.122   7.669   5.389  0.2111 -0.1818 -0.1303
   69MOL   C36046736   3.058   7.595   5.288  0.0212 -0.7182  0.5962
   69MOL   C36146737   3.073   7.457   5.290 -0.2210 -0.4958  0.2863
   69MOL   C36246738   3.167   7.111   5.193  0.1010  0.6475 -0.3411
   69MOL   C36346739   3.086   7.028   5.118  0.3400  0.1674 -0.5295
   69MOL   H36446740   2.852   7.052   4.821  2.1293  0.9019 -2.3309
   69MOL   H36546741   2.904   6.956   4.601 -0.4060  1.3271  1.6764
   69MOL   H36646742   3.106   6.619   4.800 -0.8058 -0.8064 -0.6345
   69MOL   H36746743   2.996   6.681   4.996  1.7991 -0.6525  0.0733
   69MOL   H36846744   2.788   7.060   5.286 -0.3451 -0.2246 -1.4259
   69MOL   H36946745   2.935   7.214   5.426 -0.9016 -1.5073  0.0467
   69MOL   H37046746   3.302   7.416   5.533  0.2887  1.8614  1.6209
   69MOL   H37146747   3.275   7.660   5.546  0.6093 -0.8676  0.4499
   69MOL   H37246748   2.985   7.639   5.222  2.0188 -0.2569 -1.3320
   69MOL   H37346749   3.022   7.398   5.215 -1.2172  1.5664 -0.6765
   69MOL   H37446750   3.269   7.135   5.166 -0.4754 -0.1646 -3.4096
   69MOL   H37546751   3.125   6.972   5.034  2.5187 -0.1364  0.6571
   69MOL   C37646752   3.114   8.115   5.193  0.1789 -0.3823  0.0281
   69MOL   C37746753   3.086   8.017   5.293  0.9010  0.7324  0.1098
   69MOL   C37846754   3.130   7.888   5.281  0.2312 -0.0339 -0.0808
   69MOL   O37946755   3.115   7.804   5.390 -0.4865  0.3932  0.0227
   69MOL   C38046756   3.218   7.859   5.174  0.6099  0.1313  0.0407
   69MOL   C38146757   3.248   7.952   5.075 -0.2894  0.3501  0.1296
   69MOL   C38246758   3.197   8.084   5.083 -0.4386 -0.0132 -0.2595
   69MOL   C38346759   3.227   8.177   4.970  0.0273 -0.1334  0.7261
   69MOL   O38446760   3.141   8.254   4.929  0.4129  0.1516  0.5340
   69MOL   C38546761   3.364   8.185   4.918 -0.8609 -0.0611 -0.7932
   69MOL   C38646762   3.470   8.202   5.014  0.6184  0.3754 -0.1187
   69MOL   C38746763   3.605   8.210   4.965  0.4352  0.8086 -0.4607
   69MOL   C38846764   3.638   8.208   4.827  0.2676 -0.2825  0.2285
   69MOL   O38946765   3.767   8.230   4.792 -0.7475  0.3047  0.1512
   69MOL   C39046766   3.803   8.293   4.676 -0.6458 -0.0890  0.2164
   69MOL   C39146767   3.793   0.128   4.673 -0.1137  0.3209  0.1546
   69MOL   C39246768   3.816   0.201   4.557  0.0436 -0.1775 -1.3250
   69MOL   C39346769   3.869   0.136   4.442 -0.5665 -0.5764 -0.2001
   69MOL   C39446770   3.874   8.302   4.442 -0.3243 -0.6758 -0.9177
   69MOL   C39546771   3.836   8.225   4.556 -0.3039  0.9994  0.6321
   69MOL   C39646772   3.534   8.182   4.735 -0.3890  0.0811 -0.3578
   69MOL   C39746773   3.400   8.174   4.780 -0.8437  0.4211  0.5581
   69MOL   H39846774   3.074   8.215   5.205  0.7289  0.0266 -1.4022
   69MOL   H39946775   3.034   8.032   5.386 -2.0939 -1.0113 -1.1848
   69MOL   H40046776   3.266   7.763   5.165 -0.9811 -0.5272 -1.5909
   69MOL   H40146777   3.304   7.920   4.988 -0.6209  1.6335 -0.5559
   69MOL   H40246778   3.446   8.214   5.118  2.4716  0.5376  0.3154
   69MOL   H40346779   3.683   8.227   5.038  1.5242 -0.1465 -1.3872
   69MOL   H40446780   3.754   0.177   4.760 -0.6194  2.2305 -1.1047
   69MOL   H40546781   3.808   0.309   4.558  0.2302 -0.1648  0.1314
   69MOL   H40646782   3.904   8.260   4.348 -0.8747 -1.4887 -0.7375
   69MOL   H40746783   3.830   8.118   4.563  2.8839  0.8097  1.3366
   69MOL   H40846784   3.555   8.178   4.629  2.3742  1.1929  0.1224
   69MOL   H40946785   3.325   8.160   4.704 -0.8802 -0.9415  0.8307
   69MOL   C41046786   4.268   0.303   4.420  0.7024 -0.4202 -0.2389
   69MOL   C41146787   4.129   0.311   4.421  0.0954 -0.4393  0.8444
   69MOL   C41246788   4.054   0.218   4.339 -0.1988 -0.8939  0.8442
   69MOL   O41346789   3.919   0.216   4.337  0.6926 -1.1311  0.2377
   69MOL   C41446790   4.118   0.121   4.261 -0.4548 -0.6512  0.2200
   69MOL   C41546791   4.257   0.124   4.245 -0.7907  0.0898 -0.5739
   69MOL   C41646792   4.329   0.220   4.322 -0.3183 -0.7168  0.3412
   69MOL   C41746793   4.475   0.227   4.306  0.1463 -0.4101  0.9756
   69MOL   O41846794   4.523   0.237   4.195 -0.2081  0.3553  0.5060
   69MOL   C41946795   4.562   0.204   4.418  0.2865  0.1806 -0.1160
   69MOL   C42046796   4.675   0.280   4.443 -0.3457  0.2686 -0.3073
   69MOL   C42146797   4.751   0.257   4.555 -0.7428 -0.8123  0.1977
   69MOL   C42246798   4.712   0.156   4.652  0.7323 -0.0460  0.3666
   69MOL   O42346799   4.794   0.135   4.758  0.4138  0.2551  0.2453
   69MOL   C42446800   4.755   0.187   4.877  0.0568 -0.1316 -0.0270
   69MOL   C42546801   4.683   0.104   4.965 -0.1119  0.0691  0.3766
   69MOL   C42646802   4.636   0.155   5.090  0.5168 -1.0242 -0.6358
   69MOL   C42746803   4.648   0.293   5.115 -0.0623  0.0479  0.2153
   69MOL   C42846804   4.718   0.376   5.024 -0.1044 -0.4142 -1.0332
   69MOL   C42946805   4.778   0.322   4.907  0.6455  0.1365 -0.5329
   69MOL   C43046806   4.594   0.086   4.626 -0.5696 -0.5334  0.3762
   69MOL   C43146807   4.523   0.108   4.507 -0.2229 -0.7027 -0.5728
   69MOL   H43246808   4.327   0.370   4.481  2.3490  1.5369 -3.8566
   69MOL   H43346809   4.085   0.379   4.492 -2.1306 -2.2595  1.2575
   69MOL   H43446810   4.052   0.065   4.197 -1.4685  1.8933 -1.0409
   69MOL   H43546811   4.311   0.057   4.180 -1.5705 -0.8970 -0.2096
   69MOL   H43646812   4.705   0.361   4.379  2.2014  0.6685  1.3125
   69MOL   H43746813   4.842   0.314   4.562  0.5837 -2.6109 -1.6596
   69MOL   H43846814   4.670   8.310   4.951  0.0930 -0.1829  2.0035
   69MOL   H43946815   4.574   0.097   5.156  3.0718  2.1765  5.0019
   69MOL   H44046816   4.730   0.477   5.060  0.8789 -1.4754  1.8565
   69MOL   H44146817   4.830   0.388   4.839 -0.4101 -0.3237 -1.8018
   69MOL   H44246818   4.564   0.010   4.697 -3.0667  0.9759  0.9966
   69MOL   H44346819   4.438   0.043   4.489 -1.2750  0.2696  0.7911
   69MOL   C44446820   4.287   0.350   5.398 -0.2528 -0.2728  0.3808
   69MOL   C44546821   4.423   0.317   5.378  0.9025 -0.6303 -0.3195
   69MOL   C44646822   4.483   0.375   5.264  0.7588 -0.0418 -0.6122
   69MOL   O44746823   4.617   0.340   5.237 -0.0221  0.0053 -0.0066
   69MOL   C44846824   4.414   0.471   5.179  0.0034  0.2753  0.3825
   69MOL   C44946825   4.273   0.491   5.195  0.1651 -1.0645 -0.4039
   69MOL   C45046826   4.215   0.436   5.314 -0.2193  0.2815  0.6031
   69MOL   C45146827   4.070   0.471   5.348 -0.2637  0.5434  0.1631
   69MOL   O45246828   3.995   0.510   5.264  0.1685  0.1487 -0.0941
   69MOL   C45346829   4.034   0.464   5.491 -0.7668 -0.1651  0.6093
   69MOL   C45446830   4.110   0.545   5.586  0.0453  0.5792 -0.4049
   69MOL   C45546831   4.067   0.550   5.718  0.0844  0.4129  0.0207
   69MOL   C45646832   3.946   0.495   5.755  0.2342 -0.2200 -0.7111
   69MOL   O45746833   3.907   0.512   5.891 -0.0578 -0.3851  0.2695
   69MOL   C45846834   3.778   0.483   5.936 -0.3052  0.6255  0.8798
   69MOL   C45946835   3.662   0.532   5.875  0.1909 -0.1712 -0.4033
   69MOL   C46046836   3.531   0.509   5.932 -0.1574  0.8611 -0.3801
   69MOL   C46146837   3.524   0.428   6.047  0.1261  0.2654 -0.3798
   69MOL   C46246838   3.644   0.384   6.112  0.1753 -0.5251  0.0054
   69MOL   C46346839   3.768   0.400   6.049  0.0250  0.4983  0.4955
   69MOL   C46446840   3.866   0.425   5.662  0.1858 -0.2029  0.2414
   69MOL   C46546841   3.913   0.402   5.528 -0.0165 -0.1899 -0.4087
   69MOL   H46646842   4.235   0.296   5.476 -0.2488  0.6142  1.0019
   69MOL   H46746843   4.484   0.258   5.445  1.7975  1.2000  0.5241
   69MOL   H46846844   4.460   0.527   5.099  2.3511 -1.0183  0.7920
   69MOL   H46946845   4.223   0.563   5.132  0.1949 -0.0490  0.7080
   69MOL   H47046846   4.205   0.593   5.565  1.3006 -1.7267 -0.1701
   69MOL   H47146847   4.118   0.604   5.796 -0.9351  0.7537  0.4574
   69MOL   H47246848   3.660   0.602   5.793 -0.0900 -0.0412 -0.2872
   69MOL   H47346849   3.445   0.557   5.887 -0.3369 -0.2593 -1.2639
   69MOL   H47446850   3.643   0.331   6.205  1.3120  3.4363  2.3979
   69MOL   H47546851   3.860   0.353   6.080 -0.0891  0.0805  0.2120
   69MOL   H47646852   3.773   0.379   5.693  0.2327 -1.1335 -0.9765
   69MOL   H47746853   3.859   0.339   5.459 -0.2032 -0.3927 -0.0802
   69MOL   C47846854   3.075   0.302   6.013  0.0223 -0.6698 -0.5057
   69MOL   C47946855   3.183   0.391   6.048  0.5976 -0.1696  0.3549
   69MOL   C48046856   3.309   0.330   6.077 -0.8643 -0.7767  0.0718
   69MOL   O48146857   3.410   0.410   6.110 -0.4999 -0.8039 -0.1876
   69MOL   C48246858   3.324   0.194   6.062 -0.1266  0.7799  0.2777
   69MOL   C48346859   3.218   0.117   6.020  0.2915 -0.3824 -0.2383
   69MOL   C48446860   3.089   0.167   5.986  0.0855 -0.1303 -0.2238
   69MOL   C48546861   2.982   0.078   5.947  0.2472 -1.1419  0.6007
   69MOL   O48646862   2.859   0.104   5.958 -0.6175 -0.3563  0.4382
   69MOL   C48746863   3.020   8.259   5.881  0.5565 -0.0811  0.0911
   69MOL   C48846864   2.961   8.142   5.933  0.4511  0.0475 -0.0911
   69MOL   C48946865   2.999   8.012   5.887 -0.5991  0.3932  0.7271
   69MOL   C49046866   3.081   7.997   5.772  0.6641 -0.5082  0.0823
   69MOL   O49146867   3.095   7.870   5.721 -0.2162  0.2468  0.1183
   69MOL   C49246868   3.203   7.798   5.757 -1.3033  0.0429 -0.4117
   69MOL   C49346869   3.336   7.840   5.730  0.1055  0.1860 -0.5608
   69MOL   C49446870   3.447   7.758   5.782  0.7407  0.1317 -0.1631
   69MOL   C49546871   3.417   7.634   5.851 -0.2337 -0.3393 -0.3625
   69MOL   C49646872   3.282   7.593   5.875 -0.1261 -0.9226 -1.2752
   69MOL   C49746873   3.178   7.680   5.831  0.2259  0.1350  0.2466
   69MOL   C49846874   3.134   8.115   5.713  0.0949 -1.0079  0.0148
   69MOL   C49946875   3.113   8.244   5.771  0.4219 -0.0846  0.4197
   69MOL   H50046876   2.978   0.343   5.986  1.1980  1.0694 -2.1660
   69MOL   H50146877   3.171   0.497   6.064 -0.3834 -0.4325  1.3917
   69MOL   H50246878   3.418   0.146   6.086 -0.5974  0.4717  1.5217
   69MOL   H50346879   3.229   0.010   6.013  1.4040 -0.2886  0.0562
   69MOL   H50446880   2.889   8.154   6.013  0.1228  3.0414 -0.7883
   69MOL   H50546881   2.964   7.920   5.933  1.7245 -0.0764  1.6661
   69MOL   H50646882   3.358   7.925   5.666  0.9166  0.6799  0.3506
   69MOL   H50746883   3.550   7.787   5.773  0.9271 -0.6620 -0.6288
   69MOL   H50846884   3.251   7.501   5.923 -0.8378  0.7597  1.6475
   69MOL   H50946885   3.077   7.644   5.842  0.1459 -0.0645 -1.1211
   69MOL   H51046886   3.182   8.115   5.617 -0.2498  0.2523 -0.1617
   69MOL   H51146887   3.166   0.016   5.731  1.5156  0.2213  2.4891
   69MOL   C51246888   3.478   7.185   5.915  0.0513  0.0961  0.9901
   69MOL   C51346889   3.474   7.319   5.952  0.7005 -0.0952  0.5255
   69MOL   C51446890   3.515   7.417   5.859  0.1147 -0.7881  0.1836
   69MOL   O51546891   3.520   7.553   5.898  0.5951  0.7570  0.2386
   69MOL   C51646892   3.560   7.383   5.734  0.2559  0.5122  0.0276
   69MOL   C51746893   3.569   7.248   5.696  0.0205  0.3407  0.3686
   69MOL   C51846894   3.534   7.149   5.787 -0.1558 -0.9772 -0.0287
   69MOL   C51946895   3.534   7.006   5.735  0.3777  0.3791 -0.0232
   69MOL   O52046896   3.561   6.982   5.616 -0.3603 -0.0699 -0.7601
   69MOL   C52146897   3.500   6.894   5.829 -0.3718  0.0802  0.0303
   69MOL   C52246898   3.560   6.896   5.955  0.1034 -0.0628 -0.2403
   69MOL   C52346899   3.537   6.790   6.041  0.2882  0.2363 -0.4179
   69MOL   C52446900   3.439   6.697   6.017 -0.1008 -0.2892 -0.4975
   69MOL   O52546901   3.410   6.597   6.107  0.2205  0.3089 -0.2785
   69MOL   C52646902   3.485   6.475   6.101 -0.8224 -0.6509 -0.1244
   69MOL   C52746903   3.541   6.425   5.983 -0.0806  0.3355  0.2579
   69MOL   C52846904   3.610   6.296   5.974 -0.2813  0.4697  0.2355
   69MOL   C52946905   3.599   6.209   6.084 -0.4257 -0.7638 -0.2040
   69MOL   C53046906   3.525   6.250   6.197 -0.7365 -0.6324  1.1659
   69MOL   C53146907   3.472   6.377   6.206 -0.5410  0.2500 -0.3325
   69MOL   C53246908   3.368   6.705   5.893 -0.9567  0.6291 -0.5858
   69MOL   C53346909   3.413   6.795   5.797  0.3034 -0.3158  0.1000
   69MOL   H53446910   3.425   7.114   5.976  0.4807 -0.8356  0.2922
   69MOL   H53546911   3.440   7.356   6.047  0.6822  0.5624  0.2676
   69MOL   H53646912   3.600   7.460   5.668 -1.3710  0.9936 -0.4057
   69MOL   H53746913   3.597   7.223   5.595 -0.0947 -1.5259  0.7688
   69MOL   H53846914   3.633   6.969   5.988 -0.4032 -0.6415  2.3429
   69MOL   H53946915   3.577   6.782   6.141  0.7976  0.9025 -0.5669
   69MOL   H54046916   3.551   6.496   5.902  2.6025 -0.6930 -0.3755
   69MOL   H54146917   3.662   6.267   5.883 -1.5142  1.9734 -0.9653
   69MOL   H54246918   3.498   6.177   6.273 -2.1040 -0.5309  0.7868
   69MOL   H54346919   3.431   6.414   6.299 -3.1445  1.8782 -2.0750
   69MOL   H54446920   3.303   6.623   5.866 -2.3397  2.1885 -2.0863
   69MOL   H54546921   3.372   6.785   5.697  1.4594  1.2773 -0.5437
   69MOL   C54646922   3.509   5.784   6.187  0.5498  0.1977  0.2570
   69MOL   C54746923   3.537   5.897   6.116 -0.0513 -0.0641  0.3387
   69MOL   C54846924   3.643   5.981   6.154 -0.3744  0.2089  0.4872
   69MOL   O54946925   3.667   6.091   6.074 -0.4464  0.4073 -0.4762
   69MOL   C55046926   3.718   5.952   6.265 -0.2597  0.7396  0.0550
   69MOL   C55146927   3.706   5.825   6.324  0.4816 -0.5029 -0.0935
   69MOL   C55246928   3.596   5.744   6.286  0.1547 -0.4920  0.0524
   69MOL   C55346929   3.575   5.620   6.376  0.3029 -0.4607  0.5120
   69MOL   O55446930   3.665   5.550   6.429 -0.3047  0.2906  0.3892
   69MOL   C55546931   3.431   5.580   6.406 -0.0708 -0.3710 -0.5292
   69MOL   C55646932   3.342   5.690   6.422 -0.5829 -0.6008 -0.5272
   69MOL   C55746933   3.206   5.662   6.443  0.4990 -0.1438  0.2004
   69MOL   C55846934   3.163   5.527   6.437  1.0336 -1.5818  0.1158
   69MOL   O55946935   3.028   5.504   6.453 -0.4374 -0.2740 -0.4833
   69MOL   C56046936   2.983   5.456   6.574  0.1067  0.7124 -0.0533
   69MOL   C56146937   2.845   5.409   6.574 -0.5856 -0.4042 -0.2465
   69MOL   C56246938   2.792   5.351   6.697 -0.2652 -0.1583  0.4818
   69MOL   C56346939   2.873   5.349   6.813  0.1962 -0.2345  0.7296
   69MOL   C56446940   3.003   5.406   6.809 -0.0031 -0.0060  0.2277
   69MOL   C56546941   3.059   5.453   6.690 -0.1281  0.1588  0.2099
   69MOL   C56646942   3.256   5.423   6.414  0.4254  0.1839  0.2726
   69MOL   C56746943   3.391   5.447   6.421 -0.1921  0.1677 -0.4300
   69MOL   H56846944   3.422   5.730   6.153 -0.5567  1.2387  1.4017
   69MOL   H56946945   3.473   5.922   6.032 -0.2459 -0.4331  0.3740
   69MOL   H57046946   3.795   6.021   6.298  0.5520  0.2343 -0.7640
   69MOL   H57146947   3.778   5.800   6.401  0.1541  0.2669  0.4731
   69MOL   H57246948   3.391   5.786   6.427 -0.7998 -0.5359  0.3292
   69MOL   H57346949   3.133   5.742   6.446  0.5192 -0.1067 -0.3907
   69MOL   H57446950   2.786   5.417   6.484  0.6435  0.9748 -0.9511
   69MOL   H57546951   2.690   5.316   6.700 -1.2982  2.8129  1.0863
   69MOL   H57646952   3.049   5.411   6.907 -0.2771 -0.4121  0.3770
   69MOL   H57746953   3.162   5.485   6.696  1.1922 -3.2357 -2.8349
   69MOL   H57846954   3.228   5.318   6.420 -1.2606  0.6858  1.7624
   69MOL   H57946955   3.455   5.361   6.411 -1.5726 -0.8463 -0.5817
   69MOL   C58046956   2.498   5.428   7.042 -0.0596  0.4153  0.1484
   69MOL   C58146957   2.594   5.343   6.985  0.7939 -0.8791 -0.0882
   69MOL   C58246958   2.729   5.386   6.989  0.0207  0.0454 -0.8071
   69MOL   O58346959   2.823   5.299   6.932  0.4179  0.2225  0.1680
   69MOL   C58446960   2.770   5.516   7.029 -0.2938 -0.4623 -0.0731
   69MOL   C58546961   2.675   5.603   7.081 -0.2460 -0.6533  0.7427
   69MOL   C58646962   2.541   5.559   7.088  0.0332  0.5838 -0.8752
   69MOL   C58746963   2.441   5.651   7.133 -0.4865 -0.3163 -0.5391
   69MOL   O58846964   2.402   5.736   7.052  0.1722 -0.1460 -0.4979
   69MOL   C58946965   2.372   5.633   7.262  0.1595  0.5470 -1.0652
   69MOL   C59046966   2.265   5.719   7.295  0.4593 -0.0216 -0.6285
   69MOL   C59146967   2.189   5.713   7.418 -0.3468 -0.0022  0.4705
   69MOL   C59246968   2.241   5.627   7.516 -0.4257 -0.5860  0.8969
   69MOL   O59346969   2.179   5.623   7.641  0.5737  0.1822 -0.2800
   69MOL   C59446970   2.045   5.598   7.646  0.5003 -0.1012 -0.4884
   69MOL   C59546971   1.993   5.483   7.584 -0.0897  0.2574 -0.3096
   69MOL   C59646972   1.856   5.457   7.577 -1.0049 -0.8029 -0.5363
   69MOL   C59746973   1.762   5.554   7.633 -0.5035 -0.6193 -0.0084
   69MOL   C59846974   1.809   5.668   7.690  0.1226  0.6545 -0.1448
   69MOL   C59946975   1.953   5.682   7.706 -0.9693 -0.5678  0.2768
   69MOL   C60046976   2.346   5.540   7.489 -0.2117 -1.2529  0.6353
   69MOL   C60146977   2.407   5.538   7.358  0.8352 -0.0266  0.1231
   69MOL   H60246978   2.395   5.398   7.041  0.4567 -1.3824 -1.0763
   69MOL   H60346979   2.569   5.248   6.940 -1.3253 -1.7893  2.8491
   69MOL   H60446980   2.873   5.540   7.008 -0.4048  1.2229  1.0967
   69MOL   H60546981   2.693   5.705   7.111 -0.8067 -0.2133 -0.3673
   69MOL   H60646982   2.234   5.788   7.218 -2.3373  0.3743  0.7699
   69MOL   H60746983   2.105   5.777   7.439 -1.3839 -1.0430 -0.4732
   69MOL   H60846984   2.068   5.430   7.529  0.2802 -0.2399  0.6608
   69MOL   H60946985   1.839   5.366   7.521 -0.5210 -0.7606 -0.7545
   69MOL   H61046986   1.739   5.742   7.726 -2.3292 -2.4768  1.7351
   69MOL   H61146987   1.987   5.773   7.754  1.7364 -1.8594  0.8897
   69MOL   H61246988   2.394   5.488   7.570  3.4095 -1.0832 -1.2730
   69MOL   H61346989   2.489   5.468   7.349  1.3885  0.1038  3.3006
   69MOL   C61446990   1.397   5.797   7.506 -0.2185  0.1244 -0.3739
   69MOL   C61546991   1.472   5.707   7.582  0.2607  0.2517 -0.4027
   69MOL   C61646992   1.560   5.611   7.531  0.1942  0.7035 -0.0815
   69MOL   O61746993   1.626   5.534   7.619  0.1437  0.1182 -0.4721
   69MOL   C61846994   1.569   5.594   7.395  0.0579 -0.1586  0.0627
   69MOL   C61946995   1.490   5.683   7.310 -0.3526 -0.4055  0.6748
   69MOL   C62046996   1.402   5.781   7.365 -0.0533 -0.4384  0.0823
   69MOL   C62146997   1.312   5.868   7.287 -0.4384  0.4975 -0.2846
   69MOL   O62246998   1.287   5.983   7.329 -0.5608  0.3043  0.6900
   69MOL   C62346999   1.259   5.809   7.163  0.3014  0.1485  0.4673
   69MOL   C62447000   1.228   5.673   7.152 -0.2870  0.0843  0.3773
   69MOL   C62547001   1.175   5.631   7.031  0.2483  0.1745  0.2112
   69MOL   C62647002   1.157   5.724   6.928  0.2011  0.6697 -0.0518
   69MOL   O62747003   1.109   5.676   6.807 -0.1146  0.0437  0.1208
   69MOL   C62847004   0.981   5.702   6.762  0.0919 -0.1918  0.5970
   69MOL   C62947005   0.872   5.670   6.850  1.1474 -0.5558  0.4140
   69MOL   C63047006   0.737   5.696   6.811 -0.4306  0.4499 -0.6179
   69MOL   C63147007   0.711   5.739   6.684  0.6326 -0.1897 -0.5491
   69MOL   C63247008   0.816   5.766   6.594  0.5569  0.6146 -0.1952
   69MOL   C63347009   0.948   5.745   6.634  0.1194  0.0359  0.6110
   69MOL   C63447010   1.192   5.860   6.939 -0.0283 -0.1549  0.1121
   69MOL   C63547011   1.243   5.904   7.061  0.1226  0.2560 -0.7273
   69MOL   H63647012   1.325   5.856   7.559  2.2116  1.8232  1.1026
   69MOL   H63747013   1.468   5.717   7.690 -1.6237 -3.1074 -0.0693
   69MOL   H63847014   1.634   5.522   7.346  0.5026  0.3204 -0.0629
   69MOL   H63947015   1.498   5.666   7.204 -1.7307 -1.8337  0.7764
   69MOL   H64047016   1.246   5.605   7.234 -1.3577  0.5424  1.0040
   69MOL   H64147017   1.159   5.527   7.008 -2.8742  0.3464  1.3284
   69MOL   H64247018   0.889   5.641   6.953  1.0511 -1.5134  0.1582
   69MOL   H64347019   0.661   5.681   6.886 -0.4822 -1.3769 -1.0141
   69MOL   H64447020   0.802   5.809   6.495 -1.5962 -0.0156 -0.2020
   69MOL   H64547021   1.029   5.767   6.566 -0.8971 -0.9348 -0.9652
   69MOL   H64647022   1.179   5.931   6.859 -2.3364  1.7903  2.1370
   69MOL   H64747023   1.272   6.007   7.074  0.3923  0.2006 -0.8833
   69MOL   C64847024   0.462   5.806   6.304 -0.7465 -0.0948  0.7060
   69MOL   C64947025   0.510   5.830   6.434  0.0062 -0.7422 -0.3963
   69MOL   C65047026   0.536   5.725   6.522  0.8077 -0.4091  0.6471
   69MOL   O65147027   0.578   5.754   6.647 -0.5073 -0.3020 -0.1716
   69MOL   C65247028   0.499   5.593   6.485 -0.3042  0.2040  0.4254
   69MOL   C65347029   0.453   5.565   6.358 -0.4095 -0.3603 -0.4014
   69MOL   C65447030   0.432   5.671   6.267 -0.2462  0.0349 -0.1295
   69MOL   C65547031   0.397   5.648   6.126  0.2045  0.4404 -0.2055
   69MOL   O65647032   0.465   5.565   6.065  0.2781  1.1228  0.2331
   69MOL   C65747033   0.271   5.706   6.070 -0.8010 -0.2308 -0.5205
   69MOL   C65847034   0.170   5.762   6.153 -0.0757 -0.1607 -0.2856
   69MOL   C65947035   0.057   5.815   6.097 -0.2219  0.0861 -0.6024
   69MOL   C66047036   0.037   5.819   5.958  0.2932 -0.0780 -0.0694
   69MOL   O66147037   8.234   5.885   5.916 -0.6854  0.0155  0.0762
   69MOL   C66247038   8.245   5.969   5.805  0.6725 -0.2238  0.3003
   69MOL   C66347039   8.139   5.978   5.713 -0.0925  0.4113 -0.1934
   69MOL   C66447040   8.150   6.057   5.596 -0.0356  0.6609  0.0419
   69MOL   C66547041   8.270   6.126   5.571  0.7289  0.2660  0.1058
   69MOL   C66647042   0.066   6.121   5.652  0.1674  0.1226  0.1344
   69MOL   C66747043   0.051   6.047   5.777  0.0101 -0.1381  0.3028
   69MOL   C66847044   0.137   5.769   5.877  0.1139 -0.2480  0.3927
   69MOL   C66947045   0.249   5.708   5.932 -0.4838 -0.1710  0.2342
   69MOL   H67047046   0.444   5.886   6.234  2.8180 -1.3806 -1.8504
   69MOL   H67147047   0.533   5.932   6.458 -0.3249 -0.7744  0.0638
   69MOL   H67247048   0.514   5.515   6.558 -0.5586 -0.7296 -0.5127
   69MOL   H67347049   0.437   5.464   6.324 -2.8914 -0.4939  0.9889
   69MOL   H67447050   0.187   5.767   6.260 -0.6640 -0.7480 -0.1605
   69MOL   H67547051   8.289   5.852   6.158  1.5249  0.9870  1.2143
   69MOL   H67647052   8.052   5.916   5.729  0.3578  0.0144  0.8118
   69MOL   H67747053   8.073   6.054   5.520  1.2838 -0.8775 -1.2787
   69MOL   H67847054   0.152   6.182   5.628 -0.4500  1.3049  0.9218
   69MOL   H67947055   0.132   6.055   5.848  1.2079  0.2391 -1.0759
   69MOL   H68047056   0.128   5.789   5.771 -0.2189  2.1841  0.8619
   69MOL   H68147057   0.327   5.672   5.867 -0.2835  1.9633 -0.7424
   69MOL   H68247058   8.271   6.187   5.482 -0.5930  0.9625  0.5523
   70MOL     C147059   4.887   3.996   2.973  0.4526  0.2438  0.1480
   70MOL     C247060   4.788   4.007   2.877 -0.3815  0.4328 -0.1518
   70MOL     C347061   4.800   3.937   2.757  1.0615 -0.4837 -0.6879
   70MOL     O447062   4.695   3.948   2.667 -0.1398  0.4920  0.6596
   70MOL     C547063   4.912   3.866   2.727 -0.2162  0.1821  0.2192
   70MOL     C647064   5.016   3.858   2.824 -0.0153  0.2716 -0.3885
   70MOL     C747065   5.003   3.920   2.953  0.2781 -0.4664  0.4498
   70MOL     C847066   5.112   3.906   3.052 -0.4664  0.9857  0.2068
   70MOL     O947067   5.154   4.007   3.113  0.2191  0.0527 -0.4339
   70MOL    C1047068   5.179   3.775   3.062 -0.1767  0.7303  0.1667
   70MOL    C1147069   5.102   3.661   3.051  0.2057 -0.6711 -0.0727
   70MOL    C1247070   5.153   3.538   3.094 -0.6540 -0.1514  0.6558
   70MOL    C1347071   5.288   3.521   3.126  0.0376 -0.0888 -0.6671
   70MOL    O1447072   5.331   3.392   3.148  0.5674 -0.4875 -0.1447
   70MOL    C1547073   5.292   3.322   3.255  0.7327  0.5725 -0.1413
   70MOL    C1647074   5.258   3.386   3.378  0.1528  0.3132 -0.0803
   70MOL    C1747075   5.217   3.309   3.485 -0.1155  0.4406 -0.4035
   70MOL    C1847076   5.208   3.173   3.476  0.1200 -0.1974  0.5492
   70MOL    C1947077   5.243   3.108   3.358  0.1023 -0.1610  0.1975
   70MOL    C2047078   5.279   3.186   3.242  0.0254 -0.5464  0.4038
   70MOL    C2147079   5.377   3.634   3.119  0.6481 -0.1922  0.1067
   70MOL    C2247080   5.316   3.758   3.101 -0.0318  0.3270  0.6105
   70MOL    H2347081   4.873   4.062   3.058  2.2442 -0.5200  1.0615
   70MOL    H2447082   4.703   4.067   2.906 -1.1339 -1.0064  0.7023
   70MOL    H2547083   4.924   3.817   2.632 -0.4730  1.4356 -0.4658
   70MOL    H2647084   5.103   3.801   2.793 -0.7916 -0.6284 -0.9776
   70MOL    H2747085   4.998   3.657   3.022 -0.4188 -2.7074  2.2845
   70MOL    H2847086   5.097   3.446   3.085 -2.0920  0.6000  1.7103
   70MOL    H2947087   5.268   3.493   3.389 -0.5569  0.5139 -1.2968
   70MOL    H3047088   5.199   3.358   3.580 -0.2838  0.6342 -0.5336
   70MOL    H3147089   5.228   3.002   3.349  1.0978 -0.1558 -1.7544
   70MOL    H3247090   5.296   3.142   3.145 -2.0001  0.9500 -0.6727
   70MOL    H3347091   5.483   3.619   3.135  0.6062 -0.4505  0.1418
   70MOL    H3447092   5.380   3.843   3.116  0.8054  0.1625 -1.8727
   70MOL    H3547093   4.632   4.005   2.707  0.8745  0.6494  2.0664
   70MOL    C3647094   4.873   2.899   3.642 -0.5410 -0.2620 -0.0396
   70MOL    C3747095   5.009   2.933   3.608  0.6730 -0.0940 -0.4088
   70MOL    C3847096   5.055   3.067   3.617 -0.0582 -0.3735 -0.0385
   70MOL    O3947097   5.188   3.089   3.588 -0.3522 -0.1333  0.2174
   70MOL    C4047098   4.962   3.171   3.636  0.1546  0.1348  0.2213
   70MOL    C4147099   4.827   3.141   3.663  0.3834  0.0786  0.0515
   70MOL    C4247100   4.783   3.001   3.664  0.0595 -1.1736  0.4545
   70MOL    C4347101   4.642   2.967   3.706 -0.0935 -0.3814 -0.5793
   70MOL    O4447102   4.608   2.857   3.739 -0.1499  0.2076  0.5292
   70MOL    C4547103   4.535   3.069   3.697 -0.3614 -0.5341 -0.4315
   70MOL    C4647104   4.467   3.119   3.809  0.8414 -0.1153  0.0032
   70MOL    C4747105   4.368   3.217   3.790  0.1020 -1.0468  0.7663
   70MOL    C4847106   4.337   3.263   3.660 -0.6274  0.9768 -0.5682
   70MOL    O4947107   4.248   3.366   3.640  0.3803  0.3181  0.3248
   70MOL    C5047108   4.285   3.494   3.680  0.3519 -0.1019 -0.0818
   70MOL    C5147109   4.390   3.563   3.616  0.8797 -0.1792 -0.0490
   70MOL    C5247110   4.429   3.692   3.664  0.0715 -0.4919 -0.0894
   70MOL    C5347111   4.354   3.758   3.765  0.3724 -0.1414  0.5824
   70MOL    C5447112   4.240   3.689   3.821 -0.3276 -0.0804  0.0585
   70MOL    C5547113   4.210   3.559   3.777 -0.2168 -0.0090  0.6708
   70MOL    C5647114   4.403   3.204   3.549  0.4919  0.5473  0.0925
   70MOL    C5747115   4.507   3.107   3.566  0.8313 -0.2227 -0.0336
   70MOL    H5847116   4.842   2.796   3.634 -0.0685 -0.3587 -0.7008
   70MOL    H5947117   5.084   2.862   3.578  0.3983 -1.1156  1.2550
   70MOL    H6047118   4.985   3.277   3.625  0.6170 -0.0211 -0.3519
   70MOL    H6147119   4.755   3.221   3.663  0.8796  0.5383 -1.3029
   70MOL    H6247120   4.490   3.091   3.911 -0.0356  0.7584  0.4541
   70MOL    H6347121   4.325   3.263   3.878  1.8576 -1.7542  2.0209
   70MOL    H6447122   4.454   3.514   3.544 -0.2966 -2.3293  0.3205
   70MOL    H6547123   4.516   3.748   3.634 -0.7894  1.9566  1.8173
   70MOL    H6647124   4.193   3.724   3.912 -1.0261 -0.7927 -0.0173
   70MOL    H6747125   4.127   3.515   3.831 -2.2752  2.7748 -0.1435
   70MOL    H6847126   4.377   3.239   3.450 -1.1105 -0.5124  0.1293
   70MOL    H6947127   4.562   3.069   3.482 -1.6611 -1.8155 -0.9952
   70MOL    C7047128   4.095   4.093   3.828  0.4262  0.0111 -0.1541
   70MOL    C7147129   4.202   4.017   3.771 -0.0529 -0.0422  0.2224
   70MOL    C7247130   4.292   3.960   3.860  0.6953  0.0244  1.3838
   70MOL    O7347131   4.394   3.880   3.809  0.4124 -0.3618 -0.7311
   70MOL    C7447132   4.292   3.989   3.995  0.6509  0.3820  0.3175
   70MOL    C7547133   4.201   4.085   4.046 -0.1359  0.1559  0.0430
   70MOL    C7647134   4.096   4.136   3.965  0.5394 -0.0564  0.1225
   70MOL    C7747135   4.009   4.240   4.013  0.8192 -0.5508  0.3610
   70MOL    O7847136   3.887   4.214   4.031  0.0239  0.5686  0.1023
   70MOL    C7947137   4.063   4.374   4.031 -0.1530  0.3247 -0.3837
   70MOL    C8047138   4.197   4.407   3.999  0.1729  0.4990 -0.3995
   70MOL    C8147139   4.243   4.541   4.020  0.3720  0.0756 -0.7599
   70MOL    C8247140   4.161   4.641   4.074  0.4271  0.4058 -0.4611
   70MOL    O8347141   4.206   4.763   4.104 -0.1698  0.5408 -0.6079
   70MOL    C8447142   4.214   4.854   4.003 -0.2574 -0.3962  0.2752
   70MOL    C8547143   4.127   4.854   3.886 -0.2263  0.2747  0.7013
   70MOL    C8647144   4.124   4.956   3.789  0.1911  0.2848 -0.3483
   70MOL    C8747145   4.220   5.057   3.801 -0.2263  0.5944  0.1928
   70MOL    C8847146   4.308   5.064   3.907 -0.2316  0.0499 -0.5941
   70MOL    C8947147   4.302   4.963   4.013  0.3566 -0.4448  0.0311
   70MOL    C9047148   4.036   4.598   4.119  0.3848  0.1064  0.1510
   70MOL    C9147149   3.985   4.471   4.095  0.1141 -0.0821  0.8946
   70MOL    H9247150   4.038   4.138   3.748  0.9102  3.6034  1.4630
   70MOL    H9347151   4.226   4.006   3.667  4.6763 -0.7595  1.2680
   70MOL    H9447152   4.369   3.949   4.059  1.0315  2.1993  1.0237
   70MOL    H9547153   4.213   4.118   4.148 -1.9723 -2.4175  1.1129
   70MOL    H9647154   4.240   4.336   3.930 -3.2658 -3.2759  1.1399
   70MOL    H9747155   4.341   4.563   3.981  0.2568  0.1335 -1.0180
   70MOL    H9847156   4.064   4.766   3.880 -0.0209  0.1746 -0.1205
   70MOL    H9947157   4.058   4.952   3.703 -0.3612  1.7835 -0.0038
   70MOL   H10047158   4.376   5.147   3.918  0.2152 -0.6261  2.0105
   70MOL   H10147159   4.370   4.961   4.096  2.1631 -0.0949 -1.3996
   70MOL   H10247160   3.976   4.676   4.163 -1.4661 -0.8017 -0.6965
   70MOL   H10347161   3.889   4.448   4.137  0.7798 -0.9843  1.9749
   70MOL   C10447162   4.007   5.173   3.421  0.3636 -0.0026 -0.1204
   70MOL   C10547163   4.116   5.137   3.503  0.3096  1.0912  0.3151
   70MOL   C10647164   4.128   5.186   3.627  0.0968  0.5620  0.3431
   70MOL   O10747165   4.237   5.155   3.706 -0.2421  0.7512 -0.2380
   70MOL   C10847166   4.032   5.277   3.680 -0.3502  0.1253 -0.3572
   70MOL   C10947167   3.929   5.320   3.597  0.1808  0.1905 -0.7992
   70MOL   C11047168   3.919   5.275   3.463 -1.0695  0.0267 -0.7572
   70MOL   C11147169   3.826   5.342   3.363 -0.4370  0.4896  0.0244
   70MOL   O11247170   3.776   5.449   3.397  0.3713 -0.2999  0.0010
   70MOL   C11347171   3.818   5.280   3.224 -0.1711  0.0666 -0.1961
   70MOL   C11447172   3.830   5.373   3.123  0.0418 -0.0457 -0.2756
   70MOL   C11547173   3.831   5.326   2.986 -0.1881  0.0000  0.2290
   70MOL   C11647174   3.808   5.187   2.961  0.1607  0.0496 -0.0739
   70MOL   O11747175   3.824   5.134   2.834 -0.1720  0.4586  0.4997
   70MOL   C11847176   3.753   5.195   2.733 -0.0993 -0.3037 -0.3576
   70MOL   C11947177   3.826   5.279   2.645 -0.4558 -0.7414  0.4627
   70MOL   C12047178   3.751   5.364   2.563  0.1717 -0.2292 -0.6223
   70MOL   C12147179   3.607   5.355   2.562 -0.4066 -0.5405 -0.0970
   70MOL   C12247180   3.544   5.267   2.650 -0.5173 -0.2499  0.1387
   70MOL   C12347181   3.616   5.188   2.740 -0.3363 -0.0506  0.0854
   70MOL   C12447182   3.790   5.097   3.068  0.6480  0.2835  0.2196
   70MOL   C12547183   3.797   5.145   3.198 -0.2068 -0.2316 -0.0227
   70MOL   H12647184   4.002   5.133   3.320 -1.0755 -1.5870  0.5648
   70MOL   H12747185   4.196   5.079   3.459 -0.4842  1.6280 -1.9359
   70MOL   H12847186   4.037   5.316   3.781  1.6141 -1.2015  0.0793
   70MOL   H12947187   3.869   5.406   3.626 -0.0750 -0.0236 -0.6865
   70MOL   H13047188   3.852   5.476   3.148  1.4745 -0.6172  0.9053
   70MOL   H13147189   3.852   5.390   2.901  1.3488  0.0967  0.6612
   70MOL   H13247190   3.933   5.285   2.643 -0.4069 -0.5241  2.6724
   70MOL   H13347191   3.794   5.447   2.508  2.5169 -0.8818  0.1592
   70MOL   H13447192   3.436   5.260   2.643 -0.4601 -0.1461 -0.8146
   70MOL   H13547193   3.573   5.116   2.807  0.2465 -0.4593  0.0267
   70MOL   H13647194   3.767   4.993   3.051  2.5194  0.0890 -1.2718
   70MOL   H13747195   3.781   5.084   3.286  2.2595 -0.7102  0.1333
   70MOL   C13847196   3.569   5.353   2.104 -0.6710  0.2780 -0.1776
   70MOL   C13947197   3.582   5.421   2.228 -0.1137 -0.7646  0.5179
   70MOL   C14047198   3.516   5.373   2.340  0.4229  0.6559 -1.0446
   70MOL   O14147199   3.541   5.432   2.466  0.0442  0.4765  0.5172
   70MOL   C14247200   3.422   5.266   2.328  0.3871  0.3588  0.2555
   70MOL   C14347201   3.404   5.205   2.204  0.5117  0.2856  0.6930
   70MOL   C14447202   3.486   5.230   2.096 -0.2411  0.0673  0.0782
   70MOL   C14547203   3.481   5.151   1.966 -0.2060  0.2989  0.1604
   70MOL   O14647204   3.376   5.104   1.923  0.1294 -0.3043  0.4071
   70MOL   C14747205   3.611   5.132   1.894 -0.5026  1.6310  0.4047
   70MOL   C14847206   3.725   5.123   1.972 -0.0463  0.6197 -0.1595
   70MOL   C14947207   3.849   5.099   1.916  0.2861  0.1432  0.2436
   70MOL   C15047208   3.862   5.082   1.775 -0.0963 -0.1631  0.7560
   70MOL   O15147209   3.982   5.048   1.715  0.6575 -0.2014  0.1758
   70MOL   C15247210   4.030   4.921   1.738  0.8828  0.2184 -0.7379
   70MOL   C15347211   3.953   4.808   1.778 -0.4471  0.3960 -0.4855
   70MOL   C15447212   4.017   4.687   1.810 -0.6580 -0.3579  0.3615
   70MOL   C15547213   4.160   4.681   1.817  0.5878 -0.2207  1.2384
   70MOL   C15647214   4.243   4.790   1.782 -0.1300 -1.2901  0.3380
   70MOL   C15747215   4.174   4.910   1.737 -0.8866  0.5059 -0.0754
   70MOL   C15847216   3.745   5.095   1.697  0.3709 -0.4935  0.4352
   70MOL   C15947217   3.620   5.118   1.756  0.3387  0.4640  0.2933
   70MOL   H16047218   3.641   5.386   2.030  1.3499  1.7845  2.3615
   70MOL   H16147219   3.651   5.503   2.242 -2.1746  0.9941  0.7440
   70MOL   H16247220   3.364   5.232   2.413 -0.1828  2.0925  0.5907
   70MOL   H16347221   3.348   5.114   2.210  2.2175 -0.8028  0.5290
   70MOL   H16447222   3.714   5.119   2.080 -0.8926  1.4741 -0.2059
   70MOL   H16547223   3.941   5.079   1.970  0.2429 -0.5958  0.0445
   70MOL   H16647224   3.845   4.808   1.779 -0.5131 -1.8927 -2.8041
   70MOL   H16747225   3.960   4.596   1.823  0.2037 -0.8505  0.6768
   70MOL   H16847226   4.351   4.780   1.774 -0.1923 -1.1780 -0.7824
   70MOL   H16947227   4.243   4.992   1.719  2.1368 -2.2345 -1.6150
   70MOL   H17047228   3.758   5.076   1.591  3.4939  2.3171  0.2368
   70MOL   H17147229   3.527   5.129   1.701  0.5609  0.4050 -0.1000
   70MOL   C17247230   4.539   4.434   1.744  0.4082  0.0739  0.4614
   70MOL   C17347231   4.403   4.473   1.743  0.1754  0.0416  0.1617
   70MOL   C17447232   4.350   4.544   1.852  0.7376 -0.0056 -0.3269
   70MOL   O17547233   4.212   4.562   1.862 -0.2298  0.0803  0.2077
   70MOL   C17647234   4.437   4.566   1.966 -0.4763  0.0235 -0.1569
   70MOL   C17747235   4.570   4.529   1.960  0.3282  0.2949 -0.1584
   70MOL   C17847236   4.625   4.462   1.852  0.1872  0.2376 -0.5419
   70MOL   C17947237   4.767   4.407   1.856 -0.4289 -0.4932  0.0714
   70MOL   O18047238   4.834   4.409   1.757 -0.0373  0.4045  0.0095
   70MOL   C18147239   4.822   4.371   1.990 -0.0427 -0.1604  0.0854
   70MOL   C18247240   4.961   4.395   2.008 -0.0679 -0.6179 -0.9089
   70MOL   C18347241   5.008   4.373   2.138  0.0480  0.2861  0.6630
   70MOL   C18447242   4.928   4.321   2.241 -0.0573  0.2882  0.2903
   70MOL   O18547243   4.981   4.304   2.368 -0.0436 -0.4372  0.4491
   70MOL   C18647244   4.950   4.395   2.469  0.4847  1.0601  0.1525
   70MOL   C18747245   4.835   4.373   2.546 -0.1336 -0.1228  0.3701
   70MOL   C18847246   4.778   4.476   2.620 -0.0127  0.0227 -1.0967
   70MOL   C18947247   4.847   4.599   2.642  0.1707 -0.2421 -0.0250
   70MOL   C19047248   4.967   4.616   2.571  0.4199 -0.8065 -0.3972
   70MOL   C19147249   5.019   4.515   2.485  0.1625 -1.3591  0.0669
   70MOL   C19247250   4.795   4.297   2.216 -0.1987  0.0734 -0.5579
   70MOL   C19347251   4.745   4.319   2.094  0.5276 -0.2220 -0.0867
   70MOL   H19447252   4.582   4.385   1.657 -0.3074  1.1183 -0.4955
   70MOL   H19547253   4.342   4.455   1.655  2.4341  2.7213 -2.0581
   70MOL   H19647254   4.398   4.622   2.050 -0.7660 -1.5865  0.8005
   70MOL   H19747255   4.617   4.552   2.055 -1.9685  1.2851  0.7553
   70MOL   H19847256   5.025   4.425   1.927  1.0299 -0.9505 -0.1743
   70MOL   H19947257   5.114   4.382   2.159  0.1029  1.5583 -0.0644
   70MOL   H20047258   4.776   4.283   2.539  0.2478 -0.3183 -0.3987
   70MOL   H20147259   4.686   4.450   2.670 -0.7594  0.8243 -2.0360
   70MOL   H20247260   5.016   4.712   2.581  1.3894 -1.3419  0.0219
   70MOL   H20347261   5.095   4.541   2.413 -0.8430 -1.3122 -0.9921
   70MOL   H20447262   4.728   4.267   2.296 -0.1558 -0.8003 -0.8409
   70MOL   H20547263   4.640   4.301   2.076 -0.0720  1.7060  1.3266
   70MOL   C20647264   5.069   4.866   2.927  0.2973 -0.5340  0.0046
   70MOL   C20747265   4.989   4.825   2.819 -0.4347  0.3168  0.1219
   70MOL   C20847266   4.883   4.734   2.834  0.1689  0.6751 -0.1968
   70MOL   O20947267   4.796   4.690   2.731 -0.0438 -0.1616 -0.3323
   70MOL   C21047268   4.855   4.690   2.964  0.4557  0.4173 -0.8556
   70MOL   C21147269   4.935   4.722   3.073 -0.5245  0.7443  0.2057
   70MOL   C21247270   5.051   4.798   3.052  0.2374 -0.1388  0.1623
   70MOL   C21347271   5.134   4.814   3.173 -0.2400  0.4056  0.2494
   70MOL   O21447272   5.074   4.809   3.288  0.2126 -0.4951  0.1988
   70MOL   C21547273   5.283   4.803   3.170 -0.2608 -0.5305 -0.4391
   70MOL   C21647274   5.348   4.755   3.057  0.3270 -0.5842 -0.3473
   70MOL   C21747275   5.488   4.745   3.053  0.2146 -0.5079  0.6041
   70MOL   C21847276   5.566   4.811   3.152 -0.1581  0.2479  0.0351
   70MOL   O21947277   5.702   4.836   3.132 -0.3955 -0.0615 -0.0294
   70MOL   C22047278   5.765   4.779   3.030 -0.0546  0.3377 -0.0739
   70MOL   C22147279   5.784   4.837   2.907 -0.4670  0.1927  0.2034
   70MOL   C22247280   5.875   4.783   2.817 -0.1830  0.4057 -0.1390
   70MOL   C22347281   5.939   4.657   2.847 -0.4317  0.4402  0.0479
   70MOL   C22447282   5.906   4.591   2.972 -0.4237  0.6259  0.2324
   70MOL   C22547283   5.817   4.650   3.055 -0.0542  0.4217 -0.3470
   70MOL   C22647284   5.500   4.859   3.267  0.2540  0.4462 -0.7942
   70MOL   C22747285   5.360   4.843   3.285  0.5757 -0.9287  0.8508
   70MOL   H22847286   5.154   4.934   2.926  2.3576 -3.0310 -0.8067
   70MOL   H22947287   4.997   4.878   2.726 -1.0951  1.9833  1.0059
   70MOL   H23047288   4.766   4.631   2.979  2.3968 -2.4042 -0.0282
   70MOL   H23147289   4.901   4.680   3.166 -0.0706 -3.0992 -1.2660
   70MOL   H23247290   5.299   4.726   2.965  2.2013 -0.8806 -1.2878
   70MOL   H23347291   5.540   4.718   2.962 -1.1082  0.2808 -0.4070
   70MOL   H23447292   5.743   4.936   2.892  2.9020  1.5256 -0.6376
   70MOL   H23547293   5.897   4.844   2.731 -0.0675  0.9152  0.2557
   70MOL   H23647294   5.961   4.501   2.995  0.1190  1.1045  0.8152
   70MOL   H23747295   5.794   4.606   3.151  0.7540 -1.4839 -1.0144
   70MOL   H23847296   5.562   4.887   3.350  0.9922 -1.4424 -0.6775
   70MOL   H23947297   5.326   4.888   3.377 -0.7181  4.4577 -2.0724
   70MOL   C24047298   5.895   4.475   2.454  0.2829  0.0364  0.0820
   70MOL   C24147299   5.920   4.493   2.594  0.1918 -0.4478 -0.0156
   70MOL   C24247300   6.004   4.595   2.631 -0.8991 -0.3715 -0.0001
   70MOL   O24347301   6.032   4.602   2.768 -0.0585 -0.5750 -0.1996
   70MOL   C24447302   6.065   4.673   2.533 -0.4588  0.4378 -0.4254
   70MOL   C24547303   6.045   4.647   2.394  0.2507  0.1348  0.2837
   70MOL   C24647304   5.954   4.550   2.349  0.9439  0.6508  0.3893
   70MOL   C24747305   5.930   4.527   2.204  1.0418 -0.2677  0.7815
   70MOL   O24847306   6.024   4.541   2.133  0.0125  0.1234  0.0742
   70MOL   C24947307   5.791   4.486   2.160  0.0790  0.4930 -0.2079
   70MOL   C25047308   5.781   4.388   2.058  0.5068 -0.5267  1.1889
   70MOL   C25147309   5.655   4.355   2.016  0.2473 -0.2697  1.0946
   70MOL   C25247310   5.540   4.406   2.082  0.5412  0.0421 -0.0013
   70MOL   O25347311   5.415   4.372   2.054 -0.8177  0.1175 -0.3154
   70MOL   C25447312   5.373   4.251   2.109  0.8794 -0.1204  0.4624
   70MOL   C25547313   5.409   4.194   2.236 -0.1870  0.2210  0.2720
   70MOL   C25647314   5.356   4.070   2.279  0.3244 -0.5204 -0.4681
   70MOL   C25747315   5.255   4.008   2.199 -0.2627  0.4303  0.4876
   70MOL   C25847316   5.223   4.061   2.073  0.5353 -0.6608  0.6673
   70MOL   C25947317   5.270   4.190   2.032 -0.3952 -0.4332  0.2806
   70MOL   C26047318   5.555   4.495   2.189  0.1370  0.1116 -0.1178
   70MOL   C26147319   5.678   4.543   2.219  0.0731  0.1058 -0.0869
   70MOL   H26247320   5.832   4.399   2.410 -0.6038  0.7391  0.1038
   70MOL   H26347321   5.868   4.430   2.664 -0.1355  2.5900  2.5689
   70MOL   H26447322   6.141   4.744   2.561  1.0935 -1.1009 -0.6709
   70MOL   H26547323   6.083   4.712   2.316 -2.1051  0.9029 -0.2683
   70MOL   H26647324   5.869   4.342   2.017  0.7801  0.0715  1.0954
   70MOL   H26747325   5.659   4.296   1.925 -0.1126  0.5723  0.5252
   70MOL   H26847326   5.486   4.234   2.300  0.0728  0.3649 -0.1291
   70MOL   H26947327   5.384   4.030   2.375  0.7016  0.4385 -0.1633
   70MOL   H27047328   5.169   4.016   1.992  1.0761 -1.0225  0.5064
   70MOL   H27147329   5.240   4.226   1.935  2.7943 -2.1576 -1.4648
   70MOL   H27247330   5.470   4.541   2.238 -1.8923 -3.2528 -0.3336
   70MOL   H27347331   5.700   4.625   2.286 -0.3456  0.6493 -0.6189
   70MOL   C27447332   4.884   3.998   2.398  0.8340 -0.5130  0.1652
   70MOL   C27547333   5.025   3.986   2.376 -0.0744 -0.0478  0.3107
   70MOL   C27647334   5.063   3.910   2.266 -0.4291  0.7866 -0.2603
   70MOL   O27747335   5.192   3.895   2.225  0.2216  0.1476  0.1057
   70MOL   C27847336   4.971   3.819   2.197 -0.1152 -0.5583 -0.0321
   70MOL   C27947337   4.838   3.825   2.225 -0.5562 -0.3196  0.2238
   70MOL   C28047338   4.793   3.916   2.325  0.3533  0.5376 -0.3686
   70MOL   C28147339   4.646   3.930   2.360 -0.3199 -0.0734 -0.5406
   70MOL   O28247340   4.592   4.038   2.377  0.1393 -0.5036 -0.7237
   70MOL   C28347341   4.567   3.807   2.373 -0.0230 -0.2834  0.4456
   70MOL   C28447342   4.626   3.684   2.422  0.6967 -0.0997  0.0889
   70MOL   C28547343   4.530   3.586   2.464 -0.4956 -0.4802 -0.4144
   70MOL   C28647344   4.401   3.586   2.418  0.4465  0.0154  0.1937
   70MOL   O28747345   4.321   3.483   2.446  0.1175  0.3280  0.4120
   70MOL   C28847346   4.256   3.417   2.345  0.7740 -0.7749 -0.0104
   70MOL   C28947347   4.308   3.397   2.211 -0.5838  0.2272 -1.2151
   70MOL   C29047348   4.231   3.329   2.121  0.3806  0.0635  1.0816
   70MOL   C29147349   4.098   3.281   2.157  0.0464  0.5041  0.3465
   70MOL   C29247350   4.042   3.300   2.285 -0.0711 -1.1193 -0.6496
   70MOL   C29347351   4.126   3.370   2.375 -0.2583  0.9427  0.2756
   70MOL   C29447352   4.349   3.701   2.355 -0.7038 -0.1993  0.3841
   70MOL   C29547353   4.428   3.816   2.339 -0.0971 -0.8194 -0.0887
   70MOL   H29647354   4.856   4.070   2.473  2.9405 -0.9495  1.4242
   70MOL   H29747355   5.101   4.038   2.432  1.7487 -0.6857 -1.5284
   70MOL   H29847356   5.021   3.750   2.130  0.8365 -0.3820  0.4783
   70MOL   H29947357   4.767   3.756   2.180 -2.0813  0.3513  1.5322
   70MOL   H30047358   4.731   3.668   2.443  0.3133 -2.9366  0.1743
   70MOL   H30147359   4.569   3.490   2.497  1.7456 -0.6578 -3.3013
   70MOL   H30247360   4.404   3.438   2.184  1.0730 -1.4126  1.8358
   70MOL   H30347361   4.263   3.300   2.022 -1.3655  3.6204 -0.5886
   70MOL   H30447362   3.951   3.255   2.319  0.1264 -0.0554  1.3579
   70MOL   H30547363   4.087   3.390   2.474  0.5307  2.6274  0.2707
   70MOL   H30647364   4.247   3.718   2.323 -0.9003  1.8771  2.0393
   70MOL   H30747365   4.396   3.901   2.280  1.0014 -0.8507 -0.7340
   70MOL   C30847366   4.200   3.002   1.814  0.5920  0.2163 -0.4083
   70MOL   C30947367   4.154   3.116   1.887 -0.1967  0.9716  0.2418
   70MOL   C31047368   4.079   3.093   2.004  0.1704 -0.1629 -0.0178
   70MOL   O31147369   4.021   3.196   2.078 -0.0205  0.1514  0.3578
   70MOL   C31247370   4.048   2.965   2.051  0.3599 -0.1525  0.3265
   70MOL   C31347371   4.090   2.853   1.973  0.3352 -0.4360 -0.3498
   70MOL   C31447372   4.171   2.868   1.855 -0.0564 -0.4154  0.6152
   70MOL   C31547373   4.214   2.746   1.768 -0.1398  0.9857 -0.1229
   70MOL   O31647374   4.136   2.697   1.683  0.1387 -0.8223  0.1560
   70MOL   C31747375   4.360   2.711   1.770 -0.6790 -0.3922  0.4266
   70MOL   C31847376   4.433   2.711   1.648  0.9473 -0.2476  0.0192
   70MOL   C31947377   4.569   2.672   1.653 -0.2948  0.3105  0.0019
   70MOL   C32047378   4.621   2.632   1.778 -0.6012 -0.2700  0.1374
   70MOL   O32147379   4.743   2.576   1.789 -0.5241  0.1479  0.2471
   70MOL   C32247380   4.853   2.652   1.805 -0.8778 -0.2065 -0.2886
   70MOL   C32347381   4.970   2.575   1.778  0.7236 -0.0900  1.1441
   70MOL   C32447382   5.094   2.631   1.802  0.3047  0.5714  0.2158
   70MOL   C32547383   5.103   2.763   1.854  0.5355 -1.0872  0.1407
   70MOL   C32647384   4.992   2.837   1.884 -0.1208  0.3353  0.5724
   70MOL   C32747385   4.863   2.785   1.855 -0.4713  0.1353 -0.2687
   70MOL   C32847386   4.548   2.625   1.901 -0.2996 -0.5149 -0.4355
   70MOL   C32947387   4.420   2.674   1.894  0.6008 -0.5379 -0.1634
   70MOL   H33047388   4.258   3.013   1.723  1.3763  0.2291  0.0904
   70MOL   H33147389   4.165   3.213   1.841  0.7199 -0.7263 -3.2945
   70MOL   H33247390   4.003   2.945   2.147 -0.6826 -1.1362 -0.3592
   70MOL   H33347391   4.073   2.752   2.007 -1.9452 -0.2740 -0.9343
   70MOL   H33447392   4.386   2.747   1.558 -1.2916 -0.4544  1.0798
   70MOL   H33547393   4.634   2.673   1.566  0.0261 -0.1834  0.2288
   70MOL   H33647394   4.980   2.475   1.738 -0.4212  1.1821 -2.5044
   70MOL   H33747395   5.180   2.572   1.775 -0.0486 -0.1842  0.7125
   70MOL   H33847396   5.000   2.926   1.945 -1.6526  0.1117  1.1271
   70MOL   H33947397   4.771   2.835   1.884 -0.2834  0.1866  0.2500
   70MOL   H34047398   4.582   2.593   1.998  0.9903 -1.6438 -1.2476
   70MOL   H34147399   4.361   2.676   1.985  0.5014 -3.4055 -0.0981
   70MOL   C34247400   5.514   2.629   2.034 -0.4145 -0.5342  0.7602
   70MOL   C34347401   5.430   2.688   1.932 -0.2537 -0.5647 -0.0636
   70MOL   C34447402   5.316   2.765   1.963  0.7095  0.1194  0.5659
   70MOL   O34547403   5.230   2.813   1.868 -0.6397  0.3888 -0.6310
   70MOL   C34647404   5.286   2.794   2.096 -0.2886  0.1755 -0.2113
   70MOL   C34747405   5.370   2.742   2.198  0.4566  0.3538  0.4746
   70MOL   C34847406   5.482   2.660   2.168 -0.0372 -0.5313 -0.1351
   70MOL   C34947407   5.552   2.603   2.285 -0.1248 -0.7550 -0.5133
   70MOL   O35047408   5.519   2.620   2.398 -0.3628 -0.0547  0.8485
   70MOL   C35147409   5.662   2.504   2.262  0.1260 -0.5388 -0.6816
   70MOL   C35247410   5.634   2.369   2.220 -0.2958 -0.6013 -0.2471
   70MOL   C35347411   5.738   2.284   2.185 -0.0163 -0.2824  0.3916
   70MOL   C35447412   5.872   2.319   2.211 -0.4967 -0.0246 -0.1679
   70MOL   O35547413   5.961   2.219   2.188  0.1431  0.4969 -0.2503
   70MOL   C35647414   6.028   2.180   2.301 -0.5479  0.4436  0.0596
   70MOL   C35747415   5.952   2.143   2.415  0.0733  1.1076  0.4690
   70MOL   C35847416   6.027   2.123   2.534 -0.4788 -0.6837  0.0497
   70MOL   C35947417   6.166   2.150   2.547  0.3831  0.3944  0.1750
   70MOL   C36047418   6.232   2.193   2.426  0.4029  0.2438  0.0647
   70MOL   C36147419   6.161   2.210   2.310  0.4469 -0.5709  0.1516
   70MOL   C36247420   5.904   2.451   2.251 -0.0229  0.2093  0.5342
   70MOL   C36347421   5.798   2.539   2.266 -0.3840  0.2332 -0.7480
   70MOL   H36447422   5.583   2.549   2.011 -2.6484 -2.7819  1.5592
   70MOL   H36547423   5.441   2.679   1.825 -0.1934 -1.0642 -0.0175
   70MOL   H36647424   5.198   2.847   2.131  1.4572  2.3110  1.1173
   70MOL   H36747425   5.340   2.749   2.302 -0.7252 -0.7883  0.2253
   70MOL   H36847426   5.530   2.345   2.201 -0.6174 -1.9571  3.0012
   70MOL   H36947427   5.715   2.191   2.136 -0.9663 -0.2897  0.8472
   70MOL   H37047428   5.844   2.146   2.409 -0.2327 -4.2223  0.7051
   70MOL   H37147429   5.973   2.087   2.620  0.3035  0.7622  1.1585
   70MOL   H37247430   6.339   2.206   2.431  0.4781 -0.5748  0.7760
   70MOL   H37347431   6.205   2.252   2.220 -3.7872  0.3981 -1.5846
   70MOL   H37447432   6.007   2.480   2.269  0.4836  0.0075 -1.8767
   70MOL   H37547433   5.812   2.641   2.298  1.6107 -0.4070  0.5097
   70MOL   C37647434   6.072   2.298   2.944  0.2478 -0.4592 -0.7065
   70MOL   C37747435   6.141   2.277   2.825 -0.2824 -0.1751  0.1551
   70MOL   C37847436   6.170   2.151   2.776 -0.1638  0.0991 -0.2694
   70MOL   O37947437   6.236   2.131   2.663  0.2615  0.1353 -0.0970
   70MOL   C38047438   6.135   2.041   2.856 -0.0619 -0.3718  0.5997
   70MOL   C38147439   6.060   2.054   2.976 -0.1851 -0.8863 -0.4254
   70MOL   C38247440   6.030   2.186   3.019 -0.1855 -0.0262  0.4458
   70MOL   C38347441   5.957   2.209   3.146  0.5894  0.1170 -0.2633
   70MOL   O38447442   6.006   2.190   3.253 -0.0160  0.5270 -0.2298
   70MOL   C38547443   5.814   2.258   3.139  0.0769 -0.3812  0.8573
   70MOL   C38647444   5.739   2.275   3.258 -0.2208  0.6080  0.7721
   70MOL   C38747445   5.604   2.317   3.258 -0.0219 -0.0307  0.6136
   70MOL   C38847446   5.531   2.340   3.140 -0.2043  0.2237 -0.8283
   70MOL   O38947447   5.404   2.388   3.133 -0.6726 -0.1780 -0.0177
   70MOL   C39047448   5.382   2.488   3.223  0.3109 -0.1774 -0.1994
   70MOL   C39147449   5.275   2.480   3.321 -0.6261 -0.5075 -0.2708
   70MOL   C39247450   5.268   2.577   3.421  0.7059  0.2408  0.1112
   70MOL   C39347451   5.350   2.693   3.427 -0.1413 -0.5026 -0.6139
   70MOL   C39447452   5.445   2.710   3.324  0.4384  0.3339 -0.1586
   70MOL   C39547453   5.457   2.612   3.221 -0.4648  0.9107 -0.3464
   70MOL   C39647454   5.608   2.329   3.020 -0.1062  0.9404 -0.3337
   70MOL   C39747455   5.742   2.284   3.018 -0.5931  1.0564 -0.1692
   70MOL   H39847456   6.052   2.400   2.973  1.4211  0.1086 -1.8597
   70MOL   H39947457   6.174   2.357   2.760  1.9405 -0.9710  0.2866
   70MOL   H40047458   6.166   1.939   2.833  2.5010  0.5837 -0.3779
   70MOL   H40147459   6.020   1.968   3.027  2.8237 -2.1500 -0.0739
   70MOL   H40247460   5.787   2.256   3.353 -1.4551  1.8432  1.6682
   70MOL   H40347461   5.555   2.330   3.354 -1.0534 -0.8042  0.2064
   70MOL   H40447462   5.198   2.404   3.329 -0.2227 -1.0423 -1.4584
   70MOL   H40547463   5.204   2.552   3.505  1.7619 -0.4670  0.7128
   70MOL   H40647464   5.513   2.793   3.319 -0.8824  1.3318 -2.5991
   70MOL   H40747465   5.539   2.621   3.151 -0.0674 -0.6256 -0.0872
   70MOL   H40847466   5.561   2.344   2.924  1.0668  0.7430 -0.9442
   70MOL   H40947467   5.788   2.245   2.929  0.9720  1.0514  0.6217
   70MOL   C41047468   5.627   2.720   3.757 -0.2866 -0.6024 -0.0009
   70MOL   C41147469   5.526   2.701   3.659 -0.3696 -0.0760  0.5125
   70MOL   C41247470   5.453   2.806   3.612  0.1157  0.3483 -0.3712
   70MOL   O41347471   5.345   2.793   3.530  0.5517  0.0549  0.4963
   70MOL   C41447472   5.481   2.937   3.662  0.4625  0.0975  0.0774
   70MOL   C41547473   5.587   2.960   3.748 -0.2680  0.3231  0.5513
   70MOL   C41647474   5.660   2.848   3.796 -0.6048 -0.0512  0.4323
   70MOL   C41747475   5.772   2.854   3.884  0.3663 -0.4911  0.4288
   70MOL   O41847476   5.875   2.796   3.859  0.9766 -0.4704  0.0903
   70MOL   C41947477   5.762   2.927   4.006 -0.4971  0.0510  0.5878
   70MOL   C42047478   5.822   3.051   4.019  0.3452  0.1098  0.6040
   70MOL   C42147479   5.843   3.113   4.145 -0.8408  0.5364 -0.0566
   70MOL   C42247480   5.795   3.047   4.260  0.4597  0.2660  0.7443
   70MOL   O42347481   5.814   3.102   4.380  0.9374  0.3210 -0.0762
   70MOL   C42447482   5.766   3.227   4.404 -0.8798  0.8781 -0.8270
   70MOL   C42547483   5.839   3.320   4.481 -0.4286 -0.8280 -0.2248
   70MOL   C42647484   5.790   3.449   4.506 -0.3542  0.0710 -0.1033
   70MOL   C42747485   5.660   3.486   4.470  0.0115 -0.0681 -1.1386
   70MOL   C42847486   5.588   3.394   4.392 -0.4389  0.7537 -0.3084
   70MOL   C42947487   5.637   3.265   4.359 -0.3282 -0.0652 -0.5863
   70MOL   C43047488   5.720   2.926   4.246 -0.1668 -0.1054  0.6845
   70MOL   C43147489   5.704   2.864   4.114  0.2837 -0.1826  0.4068
   70MOL   H43247490   5.668   2.630   3.802  0.0373 -0.3511  0.2104
   70MOL   H43347491   5.506   2.601   3.624 -0.4334 -0.1726  0.8254
   70MOL   H43447492   5.424   3.022   3.627  0.2928  0.3918  1.0500
   70MOL   H43547493   5.605   3.064   3.768 -1.9804  0.8190 -0.4289
   70MOL   H43647494   5.866   3.093   3.930 -0.2410  0.1408  0.3234
   70MOL   H43747495   5.896   3.207   4.149  0.1406  0.0777 -1.6145
   70MOL   H43847496   5.944   3.301   4.502 -0.0621  1.3402 -0.0537
   70MOL   H43947497   5.841   3.515   4.575 -1.6760  0.5804  0.3998
   70MOL   H44047498   5.490   3.430   4.364 -0.9785  0.8997  1.7042
   70MOL   H44147499   5.584   3.207   4.284  0.8662 -1.3974 -0.4155
   70MOL   H44247500   5.664   2.877   4.324  0.3100  0.5733  1.4568
   70MOL   H44347501   5.653   2.771   4.098 -0.8875  0.0665  2.5224
   70MOL   C44447502   5.795   3.867   4.303  0.0074 -0.5307 -0.3468
   70MOL   C44547503   5.747   3.741   4.341 -0.4362 -0.3414  0.5326
   70MOL   C44647504   5.670   3.730   4.458 -0.0236  0.4392  0.0938
   70MOL   O44747505   5.611   3.610   4.503 -0.2310 -0.6026 -0.0737
   70MOL   C44847506   5.653   3.847   4.537 -0.1758 -0.0603 -0.4123
   70MOL   C44947507   5.711   3.970   4.505 -0.4936  0.6443  0.2499
   70MOL   C45047508   5.777   3.986   4.383 -0.1388  0.2420  0.2952
   70MOL   C45147509   5.823   4.115   4.331 -0.9782  0.5845 -0.4886
   70MOL   O45247510   5.892   4.190   4.394 -0.0335  0.2081 -0.1502
   70MOL   C45347511   5.793   4.146   4.196 -0.9172 -0.3367  0.4322
   70MOL   C45447512   5.903   4.176   4.112 -0.4252  0.4049 -0.1311
   70MOL   C45547513   5.878   4.197   3.976  0.4774  0.4474  0.4841
   70MOL   C45647514   5.749   4.187   3.929 -0.4632  0.3452 -0.6972
   70MOL   O45747515   5.721   4.220   3.798 -0.5069  0.6126 -0.1241
   70MOL   C45847516   5.787   4.154   3.698 -0.0404 -0.3353  0.3238
   70MOL   C45947517   5.849   4.242   3.603 -0.2082 -0.3238  0.5274
   70MOL   C46047518   5.925   4.187   3.500  0.5429 -0.1477 -0.1440
   70MOL   C46147519   5.951   4.045   3.500 -0.5078 -0.5069  0.5673
   70MOL   C46247520   5.892   3.962   3.589  0.9501  0.2186 -0.3435
   70MOL   C46347521   5.805   4.018   3.685  0.2798  0.1285 -0.5501
   70MOL   C46447522   5.647   4.142   4.009  1.2611  0.5774  0.3009
   70MOL   C46547523   5.664   4.128   4.148 -0.3236 -0.2248 -0.2145
   70MOL   H46647524   5.849   3.876   4.210 -1.6276  1.3312 -1.1635
   70MOL   H46747525   5.766   3.647   4.291  0.5555 -0.4076  1.0332
   70MOL   H46847526   5.610   3.834   4.635  0.7045  2.9529  0.4198
   70MOL   H46947527   5.697   4.059   4.565  1.5997  2.0929 -1.3588
   70MOL   H47047528   6.005   4.175   4.148 -0.4046 -2.8187 -0.0729
   70MOL   H47147529   5.959   4.231   3.914  0.1807 -0.0744 -0.1824
   70MOL   H47247530   5.838   4.349   3.612  1.4754 -0.1725  1.1566
   70MOL   H47347531   5.956   4.257   3.424  0.1870 -0.7829 -0.8908
   70MOL   H47447532   5.902   3.854   3.580  0.3364  0.3488 -3.2016
   70MOL   H47547533   5.760   3.947   3.753 -2.6744  1.2257 -1.2722
   70MOL   H47647534   5.542   4.139   3.980  1.8643 -1.3324 -1.8287
   70MOL   H47747535   5.586   4.107   4.220 -0.7585  1.0809 -0.2952
   70MOL   C47847536   6.170   4.206   3.136  0.5220 -0.4036 -0.5047
   70MOL   C47947537   6.080   4.119   3.199 -0.3832  0.0993  0.6387
   70MOL   C48047538   6.110   4.063   3.328 -0.0637  0.2654 -0.3350
   70MOL   O48147539   6.022   3.988   3.398 -0.0812 -0.2395 -0.2298
   70MOL   C48247540   6.236   4.088   3.388 -0.3004  0.3945 -0.0358
   70MOL   C48347541   6.325   4.176   3.322  0.0560 -0.0939 -0.1271
   70MOL   C48447542   6.294   4.233   3.197 -0.4370 -0.0132  0.2669
   70MOL   C48547543   6.388   4.318   3.125 -0.0294 -0.7942  0.1243
   70MOL   O48647544   6.344   4.406   3.046 -0.0084 -0.1472 -0.2271
   70MOL   C48747545   6.535   4.295   3.140  0.2716 -0.0607 -0.6229
   70MOL   C48847546   6.623   4.401   3.121  0.2303 -0.0415 -0.8370
   70MOL   C48947547   6.763   4.385   3.138  0.2519  0.6494  0.0298
   70MOL   C49047548   6.813   4.253   3.166 -0.1123  0.3278  0.3850
   70MOL   O49147549   6.951   4.238   3.185 -0.6243  0.2553 -0.3677
   70MOL   C49247550   7.040   4.329   3.133 -0.4825 -0.7821 -0.2823
   70MOL   C49347551   7.128   4.398   3.225  0.3367 -0.4266 -0.1493
   70MOL   C49447552   7.224   4.498   3.184 -0.2810 -0.1070 -0.0275
   70MOL   C49547553   7.232   4.518   3.043 -0.4766  0.8311 -0.0178
   70MOL   C49647554   7.151   4.445   2.957  0.3603  1.1732 -0.1502
   70MOL   C49747555   7.055   4.359   3.001  0.6379  0.3359 -0.0123
   70MOL   C49847556   6.721   4.144   3.184 -0.0796  0.0517 -0.5836
   70MOL   C49947557   6.586   4.165   3.164 -0.0067  0.4255  0.1240
   70MOL   H50047558   6.141   4.262   3.048  0.7760  0.6741  0.0903
   70MOL   H50147559   5.984   4.092   3.157 -0.5319 -1.6492  2.0550
   70MOL   H50247560   6.261   4.037   3.480  0.2752 -0.1821 -0.5128
   70MOL   H50347561   6.421   4.200   3.365  0.0695  0.2530 -0.3539
   70MOL   H50447562   6.582   4.501   3.112 -0.6463 -0.2515  0.6025
   70MOL   H50547563   6.829   4.468   3.117  0.0773  0.8400  0.2331
   70MOL   H50647564   7.110   4.382   3.330  0.8768  2.2226  0.3815
   70MOL   H50747565   7.280   4.550   3.261  0.2230 -4.0925  2.4570
   70MOL   H50847566   7.155   4.453   2.849 -0.6249 -1.0054 -0.3780
   70MOL   H50947567   6.995   4.304   2.930 -1.1544  1.5122  0.5645
   70MOL   H51047568   6.758   4.044   3.200 -0.2649 -0.1001 -1.1259
   70MOL   H51147569   6.514   4.085   3.174 -0.4236  0.9263  1.2224
   70MOL   C51247570   7.695   4.487   3.020 -0.3732 -0.8304 -0.3035
   70MOL   C51347571   7.565   4.523   3.060  0.6420  0.0832 -0.1338
   70MOL   C51447572   7.455   4.529   2.970 -0.0133  0.2651  0.2068
   70MOL   O51547573   7.329   4.596   2.995  0.4221 -0.3002 -0.0723
   70MOL   C51647574   7.484   4.486   2.837 -0.2872  0.1856 -0.1461
   70MOL   C51747575   7.611   4.439   2.797 -0.0371 -0.3529  0.1141
   70MOL   C51847576   7.724   4.442   2.886 -0.4054  0.0228  0.1723
   70MOL   C51947577   7.856   4.404   2.837  0.0981 -0.4464  0.3945
   70MOL   O52047578   7.877   4.350   2.730  0.1008  0.7297 -0.4719
   70MOL   C52147579   7.970   4.428   2.929 -0.1477 -0.2083  0.4675
   70MOL   C52247580   8.055   4.539   2.903  0.0703  0.3281  0.2170
   70MOL   C52347581   8.174   4.564   2.982  0.8047  0.2072 -0.4924
   70MOL   C52447582   8.196   4.468   3.084  0.0799 -0.1795 -0.4483
   70MOL   O52547583   8.302   4.479   3.162  0.0843 -0.1715 -0.0467
   70MOL   C52647584   0.088   4.382   3.136  0.1100 -0.3919 -0.0541
   70MOL   C52747585   0.166   4.400   3.021 -0.2789  0.0885  0.4445
   70MOL   C52847586   0.251   4.297   2.981 -0.3872 -0.6361  0.5791
   70MOL   C52947587   0.277   4.186   3.063 -0.1548  0.3791 -0.2736
   70MOL   C53047588   0.203   4.167   3.185 -0.2704  0.0901 -0.4104
   70MOL   C53147589   0.107   4.266   3.218 -0.0481 -0.1259 -0.1453
   70MOL   C53247590   8.113   4.357   3.104  0.0723 -0.0869 -0.1081
   70MOL   C53347591   7.994   4.342   3.034  0.1423 -0.2573 -0.2527
   70MOL   H53447592   7.775   4.500   3.091 -0.4500 -2.2856  0.0704
   70MOL   H53547593   7.558   4.589   3.145 -2.2003  0.9801 -1.0113
   70MOL   H53647594   7.410   4.500   2.760 -1.6260 -0.0034  1.0766
   70MOL   H53747595   7.631   4.401   2.698  1.5153  0.6396  0.0245
   70MOL   H53847596   8.032   4.611   2.826 -0.4265  0.5716  0.5920
   70MOL   H53947597   8.216   4.662   2.965 -1.2540  1.2195 -0.0174
   70MOL   H54047598   0.143   4.479   2.950 -0.5683 -0.5892 -0.2289
   70MOL   H54147599   0.286   4.291   2.879 -2.6951 -1.7751 -0.1561
   70MOL   H54247600   0.208   4.078   3.246 -0.1210  1.8034  2.1740
   70MOL   H54347601   0.049   4.254   3.309 -0.7079 -1.0901 -0.6749
   70MOL   H54447602   8.137   4.288   3.183  0.4492  1.4435  1.1574
   70MOL   H54547603   7.938   4.250   3.046 -2.0179  1.1687  1.0776
   70MOL   C54647604   0.360   3.923   2.687 -0.7268 -0.1592 -0.3386
   70MOL   C54747605   0.401   3.987   2.803  0.2628  0.2009 -0.3179
   70MOL   C54847606   0.308   4.008   2.909 -0.0308 -0.3862 -0.9376
   70MOL   O54947607   0.358   4.083   3.019 -0.0841 -0.2395  0.3107
   70MOL   C55047608   0.181   3.953   2.906  0.1413  0.5267  1.0188
   70MOL   C55147609   0.140   3.908   2.781  0.0588  0.2170  0.9910
   70MOL   C55247610   0.223   3.888   2.671 -0.1365 -0.0530  0.7297
   70MOL   C55347611   0.183   3.836   2.539  0.9883 -0.1936 -0.3686
   70MOL   O55447612   0.262   3.804   2.451  0.3952  0.0948 -0.1793
   70MOL   C55547613   0.044   3.837   2.513  0.8982  0.3749  0.2652
   70MOL   C55647614   8.293   3.711   2.521 -0.3569 -0.4837 -0.4718
   70MOL   C55747615   8.159   3.699   2.480  0.6610 -0.3132 -0.2557
   70MOL   C55847616   8.080   3.808   2.429 -0.3983 -0.6932  0.1954
   70MOL   O55947617   7.954   3.781   2.389 -0.4640  0.0411 -0.7025
   70MOL   C56047618   7.856   3.826   2.470 -0.3696 -0.7077  0.3006
   70MOL   C56147619   7.810   3.740   2.573 -0.2625  0.4519 -0.5124
   70MOL   C56247620   7.710   3.785   2.658 -0.0447  0.1614 -0.9079
   70MOL   C56347621   7.645   3.910   2.639 -0.1160 -0.1883  0.0272
   70MOL   C56447622   7.679   3.990   2.524 -0.0755  0.2457 -0.0719
   70MOL   C56547623   7.792   3.949   2.443 -0.2706  0.3203  0.1100
   70MOL   C56647624   8.150   3.928   2.400  0.4514  0.2062 -0.5704
   70MOL   C56747625   8.289   3.944   2.443 -0.0592  0.6288  0.5520
   70MOL   H56847626   0.429   3.910   2.605 -0.4332 -3.0933  0.3241
   70MOL   H56947627   0.495   4.040   2.804  0.1289  0.4377  1.1156
   70MOL   H57047628   0.117   3.966   2.992  0.0101 -2.4399  1.4011
   70MOL   H57147629   0.036   3.879   2.777 -0.2299  1.4479 -2.6560
   70MOL   H57247630   0.024   3.625   2.571 -0.4837 -0.3686 -0.1607
   70MOL   H57347631   8.111   3.602   2.479 -0.5636  0.2698  1.2441
   70MOL   H57447632   7.850   3.640   2.579  1.4671  1.1515 -0.1363
   70MOL   H57547633   7.682   3.732   2.747 -0.0978  0.8792 -0.4969
   70MOL   H57647634   7.621   4.080   2.515 -0.8695 -0.0381  1.8492
   70MOL   H57747635   7.822   4.012   2.361  1.2154 -1.8946 -1.1069
   70MOL   H57847636   8.103   4.001   2.336  0.9680  0.0403 -1.1468
   70MOL   H57947637   0.032   4.032   2.416  1.7361 -0.3207  1.0839
   70MOL   C58047638   7.276   4.191   2.710 -0.0329 -0.5346  0.2284
   70MOL   C58147639   7.398   4.134   2.742 -0.2270 -0.4625  0.2283
   70MOL   C58247640   7.437   4.006   2.696 -0.5794 -0.0916  0.3378
   70MOL   O58347641   7.558   3.958   2.734  0.1180 -0.3521 -0.4291
   70MOL   C58447642   7.344   3.934   2.617  0.4393  0.4498 -0.6099
   70MOL   C58547643   7.219   3.984   2.592 -0.0125  0.0831  0.3178
   70MOL   C58647644   7.180   4.119   2.636  0.4448  0.5103  0.2847
   70MOL   C58747645   7.049   4.183   2.598  0.5060  0.5878  0.6652
   70MOL   O58847646   6.954   4.106   2.570  0.1104 -0.0689  0.4760
   70MOL   C58947647   7.027   4.323   2.616 -0.7757  0.4749  0.0597
   70MOL   C59047648   7.109   4.425   2.557 -0.6828  0.2040 -0.1439
   70MOL   C59147649   7.081   4.562   2.578  0.7528  0.1736 -0.2036
   70MOL   C59247650   6.975   4.601   2.660  0.1220 -0.1904  0.5855
   70MOL   O59347651   6.960   4.732   2.680  0.0847 -0.2989 -0.3638
   70MOL   C59447652   7.009   4.790   2.794  0.3459 -0.1314  0.7808
   70MOL   C59547653   6.936   4.791   2.916 -0.1011 -0.1085  0.3958
   70MOL   C59647654   6.986   4.857   3.033 -0.7952 -0.2461  0.3607
   70MOL   C59747655   7.106   4.931   3.023 -0.4690  0.0167  0.5817
   70MOL   C59847656   7.183   4.913   2.907  0.1239 -0.2180 -0.4033
   70MOL   C59947657   7.137   4.845   2.795  0.2564  0.6704  0.4994
   70MOL   C60047658   6.899   4.506   2.732  0.5599  0.4621  0.2935
   70MOL   C60147659   6.923   4.368   2.699  0.0665  0.1875  0.6436
   70MOL   H60247660   7.248   4.288   2.746  0.5670  0.5103 -1.9969
   70MOL   H60347661   7.475   4.185   2.797  0.1001  0.4719 -1.0768
   70MOL   H60447662   7.371   3.837   2.578  0.2092  0.6142 -1.1674
   70MOL   H60547663   7.147   3.927   2.535 -0.8803 -0.6389  2.1071
   70MOL   H60647664   7.192   4.401   2.493 -2.2461 -1.4890 -1.5797
   70MOL   H60747665   7.144   4.634   2.528  0.8121 -1.2763 -2.3294
   70MOL   H60847666   6.837   4.748   2.910  0.6421 -1.7979 -0.1624
   70MOL   H60947667   6.937   4.858   3.129  0.3990 -0.2368  0.9792
   70MOL   H61047668   7.287   4.943   2.904 -0.3872  1.5876 -1.1712
   70MOL   H61147669   7.193   4.826   2.704  0.8671  1.9772  0.5917
   70MOL   H61247670   6.814   4.540   2.790  0.7938  0.7968  0.4375
   70MOL   H61347671   6.872   4.292   2.756 -0.0137 -0.1171  0.1700
   70MOL   C61447672   7.035   5.223   3.411  0.5017  0.3947  0.0604
   70MOL   C61547673   7.107   5.129   3.335  0.1003  0.1985  0.2939
   70MOL   C61647674   7.081   5.097   3.196  0.0693 -0.0353 -0.2714
   70MOL   O61747675   7.155   5.009   3.130 -0.9188 -0.4134  0.7721
   70MOL   C61847676   6.964   5.158   3.142 -0.7058 -1.1738 -0.1226
   70MOL   C61947677   6.893   5.257   3.218 -0.5222 -0.3094 -0.5465
   70MOL   C62047678   6.930   5.287   3.353 -0.1721 -0.5291  0.1201
   70MOL   C62147679   6.837   5.370   3.433 -0.4549  0.0472 -1.4242
   70MOL   O62247680   6.715   5.359   3.432 -0.4152 -0.5743 -0.4071
   70MOL   C62347681   6.895   5.461   3.530  0.4709 -0.5731  0.4055
   70MOL   C62447682   6.961   5.580   3.488 -0.1898  0.7392  0.6850
   70MOL   C62547683   7.010   5.675   3.577  0.0246 -0.3039  0.4757
   70MOL   C62647684   7.005   5.656   3.716 -0.4040  0.1315  0.0512
   70MOL   O62747685   7.048   5.749   3.806  0.2998  0.9312 -0.1429
   70MOL   C62847686   7.184   5.750   3.830  0.5186 -0.5726 -0.0462
   70MOL   C62947687   7.234   5.651   3.912 -0.5539  0.4647 -0.1704
   70MOL   C63047688   7.372   5.637   3.929 -0.1012  0.0376  0.3866
   70MOL   C63147689   7.466   5.721   3.869 -0.3939  0.4821 -0.8030
   70MOL   C63247690   7.414   5.825   3.785  0.9319 -0.3825  0.4749
   70MOL   C63347691   7.272   5.847   3.775  0.6596 -0.5323  0.0563
   70MOL   C63447692   6.939   5.540   3.763  0.6923 -0.2312  0.1826
   70MOL   C63547693   6.881   5.444   3.670  0.4509 -0.3104  0.2747
   70MOL   H63647694   7.061   5.246   3.513 -0.3649  0.7784  0.2038
   70MOL   H63747695   7.182   5.065   3.380  1.0129  0.3090 -1.0269
   70MOL   H63847696   6.928   5.147   3.041 -0.7937 -2.6971  0.0777
   70MOL   H63947697   6.805   5.301   3.174 -0.1734  2.2744  1.2206
   70MOL   H64047698   6.970   5.609   3.384 -0.6955 -1.1499  0.0897
   70MOL   H64147699   7.071   5.753   3.534 -0.4963 -0.2579 -0.1917
   70MOL   H64247700   7.171   5.578   3.959 -2.4817  2.3147  0.1937
   70MOL   H64347701   7.411   5.568   4.002  0.0356 -0.4679 -0.1560
   70MOL   H64447702   7.479   5.895   3.736  0.0541 -1.1060 -1.8062
   70MOL   H64547703   7.237   5.934   3.720 -0.1177 -0.3004  0.8985
   70MOL   H64647704   6.925   5.526   3.869 -0.0729  0.8648  0.2331
   70MOL   H64747705   6.828   5.355   3.699  1.4368 -0.1846  2.5718
   70MOL   C64847706   7.716   5.633   3.544  0.4662  0.1437 -0.0210
   70MOL   C64947707   7.635   5.644   3.658  0.4899 -0.7188  0.3438
   70MOL   C65047708   7.682   5.680   3.785  0.0884 -0.1508 -0.2977
   70MOL   O65147709   7.601   5.691   3.893  0.3104  0.1351 -0.4250
   70MOL   C65247710   7.820   5.705   3.799  0.5599  0.3015 -0.2873
   70MOL   C65347711   7.901   5.691   3.683 -0.0647  0.6153 -0.0093
   70MOL   C65447712   7.854   5.674   3.553 -0.0419 -0.0398 -0.0993
   70MOL   C65547713   7.947   5.674   3.435  0.4733  0.9509 -0.6911
   70MOL   O65647714   8.065   5.682   3.455  0.6471  0.5713 -0.2282
   70MOL   C65747715   7.897   5.676   3.294 -0.5243 -0.0021  0.0067
   70MOL   C65847716   7.924   5.794   3.219  0.3116 -0.8787 -0.0377
   70MOL   C65947717   7.871   5.814   3.094  0.0036 -0.0115  0.0336
   70MOL   C66047718   7.794   5.722   3.033 -0.0334 -0.2814  0.3156
   70MOL   O66147719   7.739   5.750   2.911 -0.4763 -0.3897 -0.1196
   70MOL   C66247720   7.677   5.871   2.896  0.4688  0.4774  0.2618
   70MOL   C66347721   7.685   5.934   2.772 -0.7136  0.3458 -0.2805
   70MOL   C66447722   7.617   6.056   2.747  0.9245 -0.2292  0.1117
   70MOL   C66547723   7.558   6.129   2.853 -0.7914 -0.8803 -0.2829
   70MOL   C66647724   7.562   6.071   2.980 -0.4345  0.1444  0.4969
   70MOL   C66747725   7.610   5.940   2.997  0.7053 -0.6402 -0.3521
   70MOL   C66847726   7.770   5.598   3.095  0.1830  0.0371  0.0417
   70MOL   C66947727   7.818   5.578   3.231  0.4751  0.2208 -0.4512
   70MOL   H67047728   7.664   5.622   3.450  1.0878 -1.6127 -0.1711
   70MOL   H67147729   7.539   5.595   3.651  1.2837 -2.2966  0.2080
   70MOL   H67247730   7.870   5.730   3.891 -1.1533 -0.5646  0.8972
   70MOL   H67347731   8.006   5.709   3.702  0.1145 -1.0895  0.6619
   70MOL   H67447732   7.986   5.874   3.256 -1.9641  1.2695 -0.6800
   70MOL   H67547733   7.889   5.904   3.036 -0.2736  0.3164  0.4525
   70MOL   H67647734   7.746   5.898   2.691  2.8477  2.2431  1.4796
   70MOL   H67747735   7.610   6.099   2.649 -2.4438 -1.1361 -0.1084
   70MOL   H67847736   7.518   6.123   3.064 -0.7677  1.6993 -0.6133
   70MOL   H67947737   7.599   5.902   3.097 -0.8546  2.2326  0.6384
   70MOL   H68047738   7.713   5.518   3.049 -0.6784  1.2181 -0.9704
   70MOL   H68147739   7.795   5.486   3.283 -0.4597  0.8221  0.2139
   70MOL   H68247740   7.519   6.224   2.822  0.1072 -0.5605 -0.4508
   71MOL     C147741   0.139   1.534   7.360 -0.1226  0.0146  0.0715
   71MOL     C247742   0.177   1.571   7.495  0.0707  0.2642 -0.5677
   71MOL     C347743   0.072   1.586   7.588 -0.2736  0.6836  0.3810
   71MOL     O447744   0.101   1.635   7.714 -0.5386 -0.1728  0.6245
   71MOL     C547745   8.252   1.542   7.560 -0.4116 -0.3146 -0.4459
   71MOL     C647746   8.225   1.512   7.424  0.3363  0.2767  0.7360
   71MOL     C747747   0.012   1.498   7.321  0.1017  0.0477 -0.3578
   71MOL     C847748   8.289   1.438   7.184 -0.0139 -0.5396  0.7853
   71MOL     O947749   8.185   1.462   7.122 -0.2073 -0.5051  0.4930
   71MOL    C1047750   0.067   1.334   7.125 -0.5713  0.3464 -0.2506
   71MOL    C1147751   0.145   1.252   7.211 -0.0316  0.2798 -0.0957
   71MOL    C1247752   0.236   1.168   7.158 -0.1804 -0.5488 -0.0423
   71MOL    C1347753   0.248   1.147   7.021 -0.1475 -0.3052 -0.0522
   71MOL    O1447754   0.345   1.065   6.969 -0.3007 -0.2480  0.6725
   71MOL    C1547755   0.476   1.114   6.945 -0.2177 -0.0083 -0.7233
   71MOL    C1647756   0.574   1.109   7.043 -0.0159  0.0589 -0.6003
   71MOL    C1747757   0.708   1.124   7.003  0.5810  0.1676 -0.4512
   71MOL    C1847758   0.746   1.164   6.872 -0.3141  0.5117  0.2489
   71MOL    C1947759   0.642   1.175   6.780  0.4154  0.2497  0.1545
   71MOL    C2047760   0.510   1.150   6.809 -0.5409  0.2638 -0.7150
   71MOL    C2147761   0.160   1.221   6.934  0.6318 -0.6073  0.0997
   71MOL    C2247762   0.069   1.314   6.990 -0.2493  0.1820  0.6476
   71MOL    H2347763   0.215   1.520   7.285  1.1691  0.5640  1.2541
   71MOL    H2447764   0.279   1.596   7.519  0.4141  0.9765 -2.6468
   71MOL    H2547765   8.171   1.558   7.630 -1.5766 -2.2466 -1.3070
   71MOL    H2647766   8.129   1.484   7.382  1.7135 -2.1140 -0.9125
   71MOL    H2747767   0.133   1.254   7.318 -1.1440 -1.5843 -0.1675
   71MOL    H2847768   0.298   1.118   7.232 -0.3299  0.8255  1.0381
   71MOL    H2947769   0.543   1.086   7.144 -0.7212  1.0730 -0.5724
   71MOL    H3047770   0.791   1.099   7.068 -0.0211  3.1151  1.5582
   71MOL    H3147771   0.670   1.205   6.680 -1.6555 -0.6171 -0.7114
   71MOL    H3247772   0.443   1.147   6.724 -0.9639 -2.9256 -0.3260
   71MOL    H3347773   0.172   1.206   6.828 -2.6425 -0.1282 -0.4101
   71MOL    H3447774   8.312   1.370   6.929  0.5386 -0.9263 -1.3215
   71MOL    H3547775   0.025   1.679   7.751 -0.4245  0.2984  0.3017
   71MOL    C3647776   1.063   0.906   6.774 -0.7891  0.0150 -0.5111
   71MOL    C3747777   0.958   0.986   6.778 -0.3136 -0.2676  0.3690
   71MOL    C3847778   0.970   1.113   6.840  0.1296 -0.8451  0.5529
   71MOL    O3947779   0.872   1.203   6.839 -0.2085  0.2571 -0.6627
   71MOL    C4047780   1.091   1.147   6.907 -0.1807  0.5896  0.0332
   71MOL    C4147781   1.199   1.058   6.906  0.4659  0.5520 -0.0693
   71MOL    C4247782   1.193   0.943   6.820  0.1067 -0.3754  0.3867
   71MOL    C4347783   1.312   0.854   6.792 -0.3827  0.3056 -0.5604
   71MOL    O4447784   1.296   0.730   6.781 -0.2831  0.3535  0.2582
   71MOL    C4547785   1.444   0.921   6.794 -0.4962  0.7738 -0.0183
   71MOL    C4647786   1.560   0.863   6.855 -1.0800  0.1414 -0.0780
   71MOL    C4747787   1.679   0.936   6.878  0.1445  0.4239  0.2409
   71MOL    C4847788   1.694   1.065   6.826 -0.4976 -0.4928 -0.3117
   71MOL    O4947789   1.811   1.136   6.837 -0.0565 -0.5839 -0.1307
   71MOL    C5047790   1.804   1.270   6.849  0.6962 -0.0479 -0.7625
   71MOL    C5147791   1.740   1.330   6.963 -0.3406 -0.3726 -1.0580
   71MOL    C5247792   1.736   1.474   6.969 -0.3752  0.1300 -1.5271
   71MOL    C5347793   1.802   1.551   6.878  0.6983 -0.0758 -0.7433
   71MOL    C5447794   1.873   1.489   6.771  0.0023  0.5856 -0.3792
   71MOL    C5547795   1.861   1.351   6.753  0.3971  0.3733  0.6674
   71MOL    C5647796   1.588   1.118   6.753 -0.3669 -0.2324 -0.9684
   71MOL    C5747797   1.466   1.049   6.742 -0.6027 -0.2280  0.6398
   71MOL    H5847798   1.056   0.814   6.719 -2.2519 -1.9113  2.7798
   71MOL    H5947799   0.875   0.953   6.717 -0.2199 -0.8686  0.5551
   71MOL    H6047800   1.085   1.242   6.958 -2.6185  1.1521 -1.2201
   71MOL    H6147801   1.290   1.079   6.959 -0.1167  0.5467  0.9335
   71MOL    H6247802   1.547   0.768   6.905 -0.7004  1.5858  2.8596
   71MOL    H6347803   1.762   0.902   6.938 -1.5783 -0.8212  1.9751
   71MOL    H6447804   1.687   1.263   7.029 -0.3850 -1.3099 -2.0429
   71MOL    H6547805   1.691   1.522   7.055  0.2549  0.1314 -1.1919
   71MOL    H6647806   1.940   1.542   6.706  3.0506 -0.9119  1.4135
   71MOL    H6747807   1.919   1.305   6.674 -0.1898  1.9523 -0.7128
   71MOL    H6847808   1.601   1.216   6.709  0.3303 -0.1218 -0.5360
   71MOL    H6947809   1.400   1.096   6.670 -0.1884  1.1458  1.1458
   71MOL    C7047810   1.561   1.831   6.654 -0.1911 -0.7179 -0.0446
   71MOL    C7147811   1.637   1.728   6.713  0.5750  0.3835  0.6185
   71MOL    C7247812   1.737   1.763   6.807  0.2686 -0.2403 -0.1394
   71MOL    O7347813   1.809   1.681   6.887  0.3355 -0.2796 -0.5968
   71MOL    C7447814   1.765   1.900   6.825  0.0229 -0.1175 -0.4490
   71MOL    C7547815   1.688   2.002   6.769 -0.0479  0.5690 -0.3989
   71MOL    C7647816   1.584   1.966   6.691 -0.6562 -0.2844  0.4585
   71MOL    C7747817   1.499   2.085   6.652 -0.8580  0.0559 -0.1206
   71MOL    O7847818   1.458   2.173   6.728 -0.6194  0.1617 -0.2468
   71MOL    C7947819   1.464   2.103   6.509  0.4213  0.2142  0.3639
   71MOL    C8047820   1.354   2.186   6.470  0.3067 -0.4695 -0.3861
   71MOL    C8147821   1.333   2.215   6.333 -0.1532 -0.4792 -0.3222
   71MOL    C8247822   1.427   2.163   6.239 -0.2629  0.1786 -0.3035
   71MOL    O8347823   1.419   2.211   6.106  0.7279  0.6402  0.4001
   71MOL    C8447824   1.456   2.332   6.075  0.4626 -0.5961  0.5593
   71MOL    C8547825   1.374   2.444   6.093 -0.1524  0.8298 -0.2332
   71MOL    C8647826   1.410   2.574   6.056  0.4362 -0.4282  0.2704
   71MOL    C8747827   1.533   2.604   5.990 -0.7160  0.0312 -0.5753
   71MOL    C8847828   1.619   2.494   5.970  0.2809 -0.4725  0.2211
   71MOL    C8947829   1.585   2.364   6.018  0.0355 -0.2035 -0.0211
   71MOL    C9047830   1.527   2.070   6.277  0.5055 -0.0742  0.9240
   71MOL    C9147831   1.547   2.041   6.414 -0.4433 -0.1970  0.0752
   71MOL    H9247832   1.474   1.805   6.595 -1.1119  1.2084  0.3798
   71MOL    H9347833   1.614   1.624   6.696  1.8155  0.1642  0.2382
   71MOL    H9447834   1.847   1.926   6.890 -0.4614  2.1554 -0.7105
   71MOL    H9547835   1.703   2.099   6.816 -1.0607  0.5856 -0.1024
   71MOL    H9647836   1.296   2.223   6.553  0.6931 -0.9692  0.1066
   71MOL    H9747837   1.250   2.269   6.291  0.5174  0.6024 -0.2565
   71MOL    H9847838   1.274   2.426   6.130  0.0309 -0.2922 -0.2887
   71MOL    H9947839   1.333   2.648   6.069 -1.8209 -2.0712 -3.0414
   71MOL   H10047840   1.709   2.506   5.912 -1.3051 -1.8645 -2.6869
   71MOL   H10147841   1.658   2.287   5.996 -1.1394 -1.6472  0.9732
   71MOL   H10247842   1.587   2.025   6.199 -0.7416  2.1486 -1.4353
   71MOL   H10347843   1.623   1.967   6.437  0.2231 -0.0659 -1.6701
   71MOL   C10447844   1.757   2.848   6.264 -0.0214  0.9631  0.2550
   71MOL   C10547845   1.652   2.795   6.185  0.0841  0.4131  0.2613
   71MOL   C10647846   1.659   2.786   6.045  0.2544 -0.0175 -0.1056
   71MOL   O10747847   1.562   2.736   5.961  0.4514 -0.1860  0.3429
   71MOL   C10847848   1.778   2.836   5.980 -0.2835 -0.3715 -1.1006
   71MOL   C10947849   1.880   2.887   6.060  0.5314  0.2814  0.2805
   71MOL   C11047850   1.880   2.890   6.200  0.1267 -0.0445  0.1660
   71MOL   C11147851   2.007   2.929   6.272 -0.6368 -0.4263  0.8427
   71MOL   O11247852   2.081   3.014   6.223  0.6951  0.1930  0.6084
   71MOL   C11347853   2.032   2.866   6.411 -0.2772 -0.5511 -0.3985
   71MOL   C11447854   2.019   2.724   6.435  0.1017 -0.1233 -0.3394
   71MOL   C11547855   2.034   2.676   6.567  0.7418  0.1846  0.3180
   71MOL   C11647856   2.073   2.763   6.674 -0.3092  0.8309 -0.3575
   71MOL   O11747857   2.086   2.709   6.797 -0.1046  0.2085 -0.4997
   71MOL   C11847858   2.200   2.632   6.835  0.2314 -0.2365 -0.6330
   71MOL   C11947859   2.326   2.693   6.866  0.6361 -0.4083  0.1148
   71MOL   C12047860   2.431   2.600   6.891  0.2068 -0.0326  0.7368
   71MOL   C12147861   2.417   2.464   6.887 -0.2166 -0.2339 -0.1858
   71MOL   C12247862   2.293   2.410   6.856  0.5026  0.5377 -0.1109
   71MOL   C12347863   2.184   2.496   6.835  0.3357 -0.5554 -0.5748
   71MOL   C12447864   2.090   2.896   6.648  0.0320 -0.2942 -0.2634
   71MOL   C12547865   2.066   2.951   6.520  0.0438  0.0332 -0.2341
   71MOL   H12647866   1.744   2.855   6.371  2.2990 -0.3225  0.6402
   71MOL   H12747867   1.563   2.754   6.230 -0.1437  1.6841  0.9689
   71MOL   H12847868   1.791   2.824   5.873 -1.7299 -2.6972 -1.0378
   71MOL   H12947869   1.971   2.908   6.007  0.7731  0.1405  0.6381
   71MOL   H13047870   2.002   2.654   6.355 -1.1249 -1.4650  1.0462
   71MOL   H13147871   2.014   2.570   6.576  0.3861  0.2234  0.0129
   71MOL   H13247872   2.343   2.799   6.853  0.6051 -0.3897  0.2231
   71MOL   H13347873   2.529   2.644   6.900 -0.3056  1.1262  0.7687
   71MOL   H13447874   2.273   2.304   6.846 -2.1644  1.1990 -2.3058
   71MOL   H13547875   2.086   2.456   6.816  0.5864 -1.7334  0.5705
   71MOL   H13647876   2.115   2.966   6.726  0.2797  0.0643 -0.6629
   71MOL   H13747877   2.069   3.058   6.510  0.8432  0.2314  1.8337
   71MOL   C13847878   2.626   2.028   6.865 -0.0908  0.5233 -0.6322
   71MOL   C13947879   2.599   2.152   6.926 -0.7193  0.5103  0.3681
   71MOL   C14047880   2.547   2.261   6.851  0.2671  0.1306  0.1872
   71MOL   O14147881   2.534   2.386   6.911  0.0208 -0.3555  0.4335
   71MOL   C14247882   2.525   2.241   6.716 -0.5295 -1.2256  0.9058
   71MOL   C14347883   2.546   2.115   6.653  0.1437  0.0590  0.6197
   71MOL   C14447884   2.606   2.010   6.725  0.0118 -0.0829 -1.1159
   71MOL   C14547885   2.632   1.874   6.666  0.5224 -0.4571  0.3153
   71MOL   O14647886   2.619   1.771   6.732  0.7035  0.7191  0.4528
   71MOL   C14747887   2.669   1.869   6.523  0.4693 -0.1650 -1.0514
   71MOL   C14847888   2.736   1.981   6.463  0.5440  0.2820  0.1319
   71MOL   C14947889   2.765   1.979   6.322 -0.1110 -0.3610  0.2186
   71MOL   C15047890   2.727   1.866   6.250  0.0726 -0.9875  0.1740
   71MOL   O15147891   2.730   1.879   6.113  0.2998  0.4233 -0.3424
   71MOL   C15247892   2.845   1.914   6.053  0.5348  0.4572  0.8714
   71MOL   C15347893   2.962   1.841   6.065  0.0445  0.8990  0.2617
   71MOL   C15447894   3.076   1.867   5.987  0.3478  0.4201  0.0548
   71MOL   C15547895   3.079   1.987   5.908 -0.3772  1.0449 -0.1760
   71MOL   C15647896   2.961   2.059   5.899  0.1569  0.1248 -0.1165
   71MOL   C15747897   2.837   2.019   5.960  0.0972 -0.6931 -0.6384
   71MOL   C15847898   2.666   1.756   6.309  0.2727 -0.4799 -0.1760
   71MOL   C15947899   2.627   1.762   6.446 -0.5430 -0.4165  0.3149
   71MOL   H16047900   2.662   1.942   6.921 -0.4568  0.8733  0.1485
   71MOL   H16147901   2.625   2.164   7.031 -1.1971  0.1387  0.5284
   71MOL   H16247902   2.475   2.319   6.661  0.8648 -0.1571  1.1272
   71MOL   H16347903   2.498   2.092   6.559  1.7730  0.8339 -0.4277
   71MOL   H16447904   2.753   2.075   6.514  1.5111  0.5648 -0.7041
   71MOL   H16547905   2.800   2.068   6.272  0.6439 -0.6458  0.2360
   71MOL   H16647906   2.966   1.752   6.126 -3.1418 -0.4615 -1.3586
   71MOL   H16747907   3.169   1.812   5.985 -1.0467 -2.0416  0.9052
   71MOL   H16847908   2.962   2.134   5.821  0.0993  1.2758  0.9782
   71MOL   H16947909   2.750   2.077   5.933  0.5960 -0.4902 -1.8536
   71MOL   H17047910   2.629   1.674   6.250 -0.2410  0.1158 -0.6999
   71MOL   H17147911   2.582   1.669   6.478 -0.5948 -0.8599 -1.0206
   71MOL   C17247912   3.466   2.114   6.029  0.4068 -0.4589  0.3035
   71MOL   C17347913   3.348   2.047   5.991  0.2125 -0.4128  0.4722
   71MOL   C17447914   3.277   2.089   5.878  0.0336 -0.0331 -0.2103
   71MOL   O17547915   3.183   2.012   5.822 -0.1520 -0.2679 -0.5674
   71MOL   C17647916   3.316   2.206   5.815  0.4057 -0.1256  0.4631
   71MOL   C17747917   3.424   2.286   5.857 -0.5810 -0.7071  1.1204
   71MOL   C17847918   3.498   2.237   5.972  0.8161 -0.1694 -0.0412
   71MOL   C17947919   3.614   2.318   6.014 -0.2858  0.4065  0.0893
   71MOL   O18047920   3.610   2.441   6.005  0.2414  0.0478  0.5567
   71MOL   C18147921   3.744   2.249   6.046 -0.3128  1.1856  0.1325
   71MOL   C18247922   3.782   2.127   5.986 -1.0667 -0.0352 -0.4139
   71MOL   C18347923   3.905   2.071   6.015  0.3376  0.1181  0.1113
   71MOL   C18447924   4.000   2.143   6.095  0.3707 -0.2505  0.4536
   71MOL   O18547925   4.133   2.109   6.112 -0.0669  0.2040  0.1325
   71MOL   C18647926   4.212   2.151   6.006  0.6632 -0.2922 -0.5331
   71MOL   C18747927   4.244   2.068   5.899  0.4271 -0.2711  0.4217
   71MOL   C18847928   4.313   2.120   5.789  0.4285  0.9931  0.1338
   71MOL   C18947929   4.369   2.250   5.797  0.6735  0.4481  0.4790
   71MOL   C19047930   4.342   2.336   5.904 -0.4284  0.5968 -0.4203
   71MOL   C19147931   4.265   2.285   6.008 -0.2838  0.5558 -0.7426
   71MOL   C19247932   3.962   2.259   6.161  0.3906 -0.4132 -0.1390
   71MOL   C19347933   3.834   2.315   6.136 -0.0518 -0.1411  0.3604
   71MOL   H19447934   3.533   2.068   6.100  0.3081 -1.1083 -0.0227
   71MOL   H19547935   3.325   1.956   6.045  0.4866 -0.2852  0.8118
   71MOL   H19647936   3.253   2.224   5.729 -0.6587 -0.3818  1.1764
   71MOL   H19747937   3.443   2.379   5.805 -0.4146 -1.4493 -0.1579
   71MOL   H19847938   3.712   2.078   5.921  0.1512  1.0308 -2.5919
   71MOL   H19947939   3.924   1.976   5.968 -0.8800  0.1884 -0.5590
   71MOL   H20047940   4.209   1.966   5.895 -3.1773  0.9695 -1.1315
   71MOL   H20147941   4.340   2.054   5.708 -1.7796  0.4989 -0.2430
   71MOL   H20247942   4.393   2.430   5.916 -0.5499  0.3608  2.1752
   71MOL   H20347943   4.265   2.336   6.103 -2.5052  0.2961 -0.5881
   71MOL   H20447944   4.026   2.302   6.236  1.1253 -1.2499 -0.2723
   71MOL   H20547945   3.807   2.411   6.176 -1.9273  0.6842 -2.7841
   71MOL   C20647946   4.586   2.631   5.684  0.1694  0.5206 -0.6712
   71MOL   C20747947   4.581   2.491   5.703 -0.2497  0.8016  0.2500
   71MOL   C20847948   4.467   2.418   5.665  0.4348  0.5762 -0.1049
   71MOL   O20947949   4.455   2.285   5.698 -0.3908 -0.3636  0.2243
   71MOL   C21047950   4.359   2.485   5.598  0.1894 -0.3832  0.1690
   71MOL   C21147951   4.363   2.623   5.588 -0.6819  0.3324  0.2599
   71MOL   C21247952   4.474   2.696   5.629 -0.0211  0.3968  0.2563
   71MOL   C21347953   4.472   2.842   5.625 -0.2085 -0.2843 -0.1343
   71MOL   O21447954   4.362   2.898   5.650  0.4203 -0.1381  0.3021
   71MOL   C21547955   4.583   2.913   5.568 -0.1572 -0.3563 -0.2408
   71MOL   C21647956   4.602   3.052   5.594  0.0221 -0.0895  0.5034
   71MOL   C21747957   4.719   3.110   5.548 -0.2416  0.7515  0.6048
   71MOL   C21847958   4.802   3.049   5.459  0.3289 -0.0253  0.3690
   71MOL   O21947959   4.915   3.118   5.424  0.1148 -0.1172  0.0309
   71MOL   C22047960   5.022   3.051   5.371 -1.2822  0.2412 -0.3819
   71MOL   C22147961   5.046   3.047   5.237  0.0617  0.1759  0.0180
   71MOL   C22247962   5.163   2.979   5.196 -0.5212  0.3481 -0.7567
   71MOL   C22347963   5.257   2.933   5.282 -0.0429  0.1651 -1.2107
   71MOL   C22447964   5.235   2.941   5.419 -1.1367 -0.3990  0.1174
   71MOL   C22547965   5.115   3.003   5.463 -0.1060 -0.4870 -0.3097
   71MOL   C22647966   4.773   2.920   5.411  0.2506  0.1060  0.0133
   71MOL   C22747967   4.661   2.854   5.468  0.0065 -0.1294  0.6786
   71MOL   H22847968   4.670   2.693   5.713  0.5346 -1.0448  1.7953
   71MOL   H22947969   4.663   2.439   5.751 -0.9665  0.2799  0.9424
   71MOL   H23047970   4.269   2.432   5.571 -0.3708  1.0368 -0.8347
   71MOL   H23147971   4.280   2.670   5.539 -1.4012  1.8998  2.8811
   71MOL   H23247972   4.527   3.098   5.657  0.3079 -3.8580  3.7558
   71MOL   H23347973   4.745   3.206   5.591  2.8716  1.8183 -3.3611
   71MOL   H23447974   4.976   3.102   5.176  0.3046  0.0394 -0.3888
   71MOL   H23547975   5.182   2.967   5.091  1.0369  1.0400 -0.5665
   71MOL   H23647976   5.296   2.884   5.488  2.3514 -1.2435 -3.4717
   71MOL   H23747977   5.092   3.008   5.568 -0.2643 -0.8299 -0.3275
   71MOL   H23847978   4.831   2.868   5.336 -2.6603 -1.0848 -1.4647
   71MOL   H23947979   4.648   2.755   5.427  4.3415 -0.4410 -0.2612
   71MOL   C24047980   5.621   3.166   5.293 -0.3761 -0.1087 -0.8280
   71MOL   C24147981   5.495   3.101   5.292  0.0450  0.4907  0.0472
   71MOL   C24247982   5.484   2.976   5.222  0.0357 -1.0482  0.6853
   71MOL   O24347983   5.376   2.889   5.224  0.3616  0.0037  0.1794
   71MOL   C24447984   5.589   2.932   5.143  0.3589  0.5711 -0.4490
   71MOL   C24547985   5.714   2.998   5.147  0.2018  0.0303  0.1702
   71MOL   C24647986   5.735   3.107   5.229 -0.3406  0.2108 -0.1490
   71MOL   C24747987   5.875   3.169   5.232 -0.0651 -0.3655 -0.0153
   71MOL   O24847988   5.918   3.240   5.141  0.5749 -0.0389  0.1300
   71MOL   C24947989   5.959   3.128   5.353  0.1590 -0.0579 -0.3505
   71MOL   C25047990   5.910   3.053   5.464  0.1251  0.0919 -0.4134
   71MOL   C25147991   5.989   3.018   5.575 -0.0166  0.0629 -0.4232
   71MOL   C25247992   6.126   3.061   5.581 -0.0838 -0.5546 -0.6727
   71MOL   O25347993   6.214   3.039   5.688 -0.2211 -0.0215  0.1715
   71MOL   C25447994   6.166   3.006   5.813 -0.0753  0.2798 -1.0512
   71MOL   C25547995   6.186   2.874   5.853  0.3694 -0.3448 -0.1259
   71MOL   C25647996   6.111   2.824   5.966 -0.1472 -0.2809  0.3993
   71MOL   C25747997   6.049   2.914   6.053 -0.1858  0.3074 -0.6745
   71MOL   C25847998   6.043   3.047   6.017  0.0791 -0.1381 -0.6030
   71MOL   C25947999   6.105   3.095   5.900 -0.9449 -0.6634  0.0477
   71MOL   C26048000   6.174   3.137   5.477  0.0254 -0.1304  0.3011
   71MOL   C26148001   6.101   3.162   5.361  0.1278  0.2540  0.2859
   71MOL   H26248002   5.620   3.261   5.344 -0.5142  0.1545 -1.3182
   71MOL   H26348003   5.406   3.146   5.334 -1.4605 -2.0977 -0.3083
   71MOL   H26448004   5.575   2.845   5.081 -2.0660  1.0679 -0.6573
   71MOL   H26548005   5.802   2.960   5.098  0.1696 -1.5213  1.2835
   71MOL   H26648006   5.805   3.027   5.464 -0.2370  1.5002  0.6013
   71MOL   H26748007   5.943   2.964   5.656  0.8062 -1.5214 -1.0022
   71MOL   H26848008   6.240   2.812   5.783  0.9498  0.6587 -0.5751
   71MOL   H26948009   6.122   2.719   5.988  2.7842  0.1682  1.3182
   71MOL   H27048010   6.000   3.114   6.090 -2.1558  0.0002 -1.9988
   71MOL   H27148011   6.102   3.201   5.880 -1.1006 -0.1458  2.6839
   71MOL   H27248012   6.273   3.178   5.486 -0.1813  0.2946  0.6577
   71MOL   H27348013   6.152   3.215   5.282  0.2822 -0.5536 -0.1662
   71MOL   C27448014   6.166   2.995   6.477  0.0221 -0.2018  0.1567
   71MOL   C27548015   6.071   2.989   6.371 -0.5152 -0.0743  0.2576
   71MOL   C27648016   6.089   2.883   6.278  0.4923  0.3993  0.4889
   71MOL   O27748017   6.002   2.869   6.171  0.2235  0.0160  0.2225
   71MOL   C27848018   6.189   2.791   6.292  0.4078 -0.0240 -0.3076
   71MOL   C27948019   6.287   2.801   6.389  0.2460  0.2616 -0.3357
   71MOL   C28048020   6.270   2.898   6.485 -0.3096  0.3626  0.0623
   71MOL   C28148021   6.365   2.902   6.593 -0.8239 -0.2944  0.2381
   71MOL   O28248022   6.337   2.848   6.700  0.2684  0.0729  0.3682
   71MOL   C28348023   6.496   2.959   6.561  0.5943 -0.2740 -0.7472
   71MOL   C28448024   6.601   2.970   6.657  0.1340 -0.4122  0.0853
   71MOL   C28548025   6.731   3.023   6.624 -0.0297 -0.6430  0.1566
   71MOL   C28648026   6.753   3.073   6.494 -0.5328 -0.0206 -0.4319
   71MOL   O28748027   6.869   3.133   6.465  1.0892 -0.4590 -0.2265
   71MOL   C28848028   6.958   3.064   6.394  0.8429 -0.0684  0.8528
   71MOL   C28948029   6.981   3.103   6.261  0.2447 -0.2148  0.8576
   71MOL   C29048030   7.094   3.044   6.196 -0.5074 -0.1303  0.5555
   71MOL   C29148031   7.179   2.951   6.263  0.6155 -0.1383 -0.0212
   71MOL   C29248032   7.148   2.910   6.396 -0.1434 -0.1967  0.2415
   71MOL   C29348033   7.043   2.968   6.461  0.8082 -0.2078 -0.0027
   71MOL   C29448034   6.646   3.059   6.397  0.0554  0.2675 -0.1658
   71MOL   C29548035   6.522   3.011   6.431  0.7002 -0.1027 -0.2400
   71MOL   H29648036   6.151   3.060   6.562 -2.2654  0.0080 -0.3962
   71MOL   H29748037   5.992   3.062   6.361 -1.0565 -0.3466  2.4488
   71MOL   H29848038   6.178   2.702   6.232  1.4472  0.7331 -1.6653
   71MOL   H29948039   6.360   2.724   6.408 -1.8624 -1.0646  2.8678
   71MOL   H30048040   6.585   2.924   6.753 -2.8817 -0.1423 -0.2515
   71MOL   H30148041   6.801   3.039   6.705 -2.1362  3.8798  1.2254
   71MOL   H30248042   6.929   3.188   6.219 -0.6693  1.0465  4.3117
   71MOL   H30348043   7.133   3.072   6.099  1.1154 -2.3008  0.5507
   71MOL   H30448044   7.209   2.842   6.453 -0.7449 -0.8536  0.0972
   71MOL   H30548045   7.021   2.947   6.565 -0.7021  1.3031  0.0057
   71MOL   H30648046   6.660   3.098   6.297 -1.2288  1.5387  0.1432
   71MOL   H30748047   6.449   3.002   6.352 -0.8070 -0.0597  1.1275
   71MOL   C30848048   7.311   2.609   5.960 -0.6581 -0.6108  0.0925
   71MOL   C30948049   7.335   2.726   6.034  0.2703 -0.3716 -0.6104
   71MOL   C31048050   7.252   2.772   6.136  0.8630  0.2174 -0.5868
   71MOL   O31148051   7.278   2.889   6.200 -0.0776 -0.1699  0.4011
   71MOL   C31248052   7.142   2.679   6.168  0.6111  0.2855  1.0788
   71MOL   C31348053   7.133   2.553   6.109 -0.0540 -0.2466  0.0138
   71MOL   C31448054   7.215   2.516   6.000  0.0289  0.2643 -0.7829
   71MOL   C31548055   7.197   2.382   5.928  0.0146 -0.7726  0.4368
   71MOL   O31648056   7.078   2.340   5.912  0.2699  0.4349 -0.1609
   71MOL   C31748057   7.315   2.318   5.878  0.5147  0.3406  0.0047
   71MOL   C31848058   7.435   2.315   5.950 -0.7485  0.4594 -0.2556
   71MOL   C31948059   7.543   2.236   5.914  0.6195  0.3720 -0.2166
   71MOL   C32048060   7.532   2.158   5.800  0.0652  0.0624  0.8208
   71MOL   O32148061   7.638   2.079   5.770 -0.0767 -0.0530 -0.2671
   71MOL   C32248062   7.685   2.087   5.641 -1.0854  0.0643  0.4751
   71MOL   C32348063   7.753   2.201   5.596  0.4403 -0.5591 -0.0556
   71MOL   C32448064   7.803   2.205   5.460  0.6260 -1.1526 -0.3628
   71MOL   C32548065   7.794   2.095   5.377  0.1263  0.8597  0.2794
   71MOL   C32648066   7.730   1.984   5.429 -0.3087 -0.1616 -0.1819
   71MOL   C32748067   7.674   1.976   5.560 -0.0011 -0.0800 -0.4671
   71MOL   C32848068   7.419   2.160   5.717  0.5460  0.1020  0.6086
   71MOL   C32948069   7.303   2.226   5.761  0.0364  0.3805 -0.1259
   71MOL   H33048070   7.373   2.583   5.875  0.4665  0.9753  0.4071
   71MOL   H33148071   7.421   2.786   6.008 -0.7243  1.0365 -0.6861
   71MOL   H33248072   7.069   2.697   6.245 -1.3468  0.1771 -0.7109
   71MOL   H33348073   7.059   2.483   6.144  0.0353  0.3869  1.4978
   71MOL   H33448074   7.442   2.369   6.044  1.5854 -1.3508  0.6535
   71MOL   H33548075   7.635   2.238   5.969 -1.2005  0.8587  2.9389
   71MOL   H33648076   7.759   2.293   5.652  2.0276  0.9919 -2.6793
   71MOL   H33748077   7.859   2.286   5.417  0.5495  0.0251  1.6755
   71MOL   H33848078   7.694   1.914   5.354 -1.5896 -0.1342  0.3874
   71MOL   H33948079   7.614   1.890   5.587  1.1963 -0.7770 -0.0044
   71MOL   H34048080   7.419   2.082   5.642 -0.1524 -2.1236  2.8651
   71MOL   H34148081   7.213   2.198   5.710 -0.5592 -0.3557  1.3136
   71MOL   C34248082   8.143   2.173   5.118 -0.0036 -0.6169  0.3706
   71MOL   C34348083   8.015   2.190   5.163  0.4418 -0.0916  0.1429
   71MOL   C34448084   7.931   2.081   5.200 -0.1020 -0.0729  0.6080
   71MOL   O34548085   7.806   2.109   5.239 -0.4988 -0.2099 -0.1719
   71MOL   C34648086   7.989   1.951   5.202 -0.2710 -0.1745  0.7819
   71MOL   C34748087   8.121   1.931   5.150  0.0072 -0.0919 -0.1456
   71MOL   C34848088   8.199   2.044   5.115  0.0106 -0.1829 -0.7478
   71MOL   C34948089   0.023   2.022   5.062 -0.4761  0.5255 -0.2620
   71MOL   O35048090   0.050   1.929   4.981 -0.0441 -0.3797  0.1076
   71MOL   C35148091   0.130   2.105   5.107 -0.4558 -0.3771 -0.1801
   71MOL   C35248092   0.128   2.176   5.229  0.5588 -0.1832  0.1414
   71MOL   C35348093   0.244   2.234   5.275 -0.0998 -0.6822 -0.3341
   71MOL   C35448094   0.361   2.238   5.204 -0.0120  0.5223 -0.1127
   71MOL   O35548095   0.475   2.300   5.252 -0.4543  0.1626  0.0127
   71MOL   C35648096   0.485   2.368   5.368  0.7406 -0.3166  0.0110
   71MOL   C35748097   0.521   2.299   5.488  0.3839 -0.3502  0.3383
   71MOL   C35848098   0.522   2.378   5.611  0.2012  0.4420 -0.6758
   71MOL   C35948099   0.477   2.510   5.617 -0.4538 -0.5083 -0.4424
   71MOL   C36048100   0.443   2.577   5.501 -0.1410 -0.1611  0.3593
   71MOL   C36148101   0.442   2.501   5.381  0.2114  0.6099 -0.2324
   71MOL   C36248102   0.367   2.171   5.079 -0.2604 -0.0451  0.0433
   71MOL   C36348103   0.250   2.112   5.029  0.6530 -0.0576 -0.1313
   71MOL   H36448104   8.192   2.264   5.086  0.1383 -0.8884 -0.1748
   71MOL   H36548105   7.978   2.292   5.168  0.2907 -0.1808  1.0053
   71MOL   H36648106   7.933   1.867   5.241 -1.6816 -1.1708 -3.0664
   71MOL   H36748107   8.158   1.829   5.149 -1.4417 -0.6279  0.0981
   71MOL   H36848108   0.043   2.173   5.295 -0.0433 -0.1955 -0.6228
   71MOL   H36948109   0.238   2.290   5.367 -1.1800 -0.2710 -0.6448
   71MOL   H37048110   0.548   2.195   5.489  0.8434 -0.2318  0.5411
   71MOL   H37148111   0.555   2.338   5.706 -0.0951  0.0884 -0.7204
   71MOL   H37248112   0.406   2.678   5.498  0.6609  0.0812 -3.0445
   71MOL   H37348113   0.408   2.544   5.287  1.4190 -2.7806 -2.3102
   71MOL   H37448114   0.458   2.168   5.021 -0.1245 -1.4794  0.3233
   71MOL   H37548115   0.262   2.075   4.928 -0.1734 -1.9161  0.4420
   71MOL   C37648116   0.826   2.666   5.752  0.6551  0.0372 -0.1444
   71MOL   C37748117   0.701   2.640   5.696 -0.0619  0.4908 -0.1047
   71MOL   C37848118   0.598   2.593   5.786 -0.5606 -0.1463 -0.3755
   71MOL   O37948119   0.474   2.574   5.737  0.3773  0.5222 -0.1627
   71MOL   C38048120   0.626   2.573   5.926  0.1463  0.4058  0.0745
   71MOL   C38148121   0.755   2.598   5.977 -0.0682 -0.7696  0.6197
   71MOL   C38248122   0.861   2.639   5.889 -0.2272  0.1103  0.1405
   71MOL   C38348123   0.999   2.651   5.950  0.1058  0.6585  0.5068
   71MOL   O38448124   1.034   2.589   6.052 -0.2610  0.1504  0.2613
   71MOL   C38548125   1.094   2.744   5.886 -0.2385  0.6015  0.0259
   71MOL   C38648126   1.212   2.687   5.833  0.5453 -0.0645 -0.0370
   71MOL   C38748127   1.305   2.760   5.756 -0.4292 -0.3133  1.0992
   71MOL   C38848128   1.281   2.896   5.735 -0.9062  0.6282 -0.0989
   71MOL   O38948129   1.362   2.979   5.666  0.2445 -0.1311  0.3978
   71MOL   C39048130   1.345   2.997   5.531  0.0355  0.0879 -0.5831
   71MOL   C39148131   1.298   2.902   5.437 -0.1497 -0.6421 -0.0324
   71MOL   C39248132   1.270   2.938   5.302 -0.4605 -0.0928 -1.0738
   71MOL   C39348133   1.274   3.065   5.261 -0.0727 -0.1698  0.1168
   71MOL   C39448134   1.315   3.163   5.354 -0.0129 -0.7793 -0.0950
   71MOL   C39548135   1.340   3.127   5.489  0.0329  0.7786 -0.3247
   71MOL   C39648136   1.165   2.954   5.789  0.3065  0.2937 -0.2749
   71MOL   C39748137   1.074   2.884   5.872  0.0119  0.4671  0.3344
   71MOL   H39848138   0.901   2.692   5.680  2.3485  0.8855  1.8668
   71MOL   H39948139   0.693   2.642   5.588  1.2583  0.1142 -0.2267
   71MOL   H40048140   0.550   2.534   5.992  0.8893 -1.7508 -0.3055
   71MOL   H40148141   0.768   2.576   6.082 -0.6495 -1.4262  0.5553
   71MOL   H40248142   1.223   2.580   5.842 -3.0433 -0.5400 -0.5144
   71MOL   H40348143   1.394   2.713   5.717  0.2649  1.5083  0.4201
   71MOL   H40448144   1.292   2.799   5.469  1.2900 -0.5788  0.4645
   71MOL   H40548145   1.244   2.863   5.230 -1.8833 -0.8226  0.1806
   71MOL   H40648146   1.312   3.267   5.325  1.7895 -1.3825 -2.6263
   71MOL   H40748147   1.367   3.208   5.555 -2.4166  0.6744  0.8449
   71MOL   H40848148   1.146   3.060   5.781  1.9811  0.5985 -0.3732
   71MOL   H40948149   0.987   2.938   5.908  0.5973  1.0845  0.8348
   71MOL   C41048150   1.575   3.186   4.996  0.2792 -0.6798 -0.1449
   71MOL   C41148151   1.470   3.161   5.087 -1.0499 -0.1350  0.0058
   71MOL   C41248152   1.338   3.133   5.050  0.4708  0.3940  0.1819
   71MOL   O41348153   1.238   3.097   5.136  0.4331 -0.0420 -0.2624
   71MOL   C41448154   1.310   3.131   4.911  0.1619 -0.3365 -1.1370
   71MOL   C41548155   1.414   3.159   4.817 -0.7431  0.4272 -0.3109
   71MOL   C41648156   1.543   3.188   4.856  0.5552 -0.7926 -0.2247
   71MOL   C41748157   1.644   3.234   4.748 -0.0121 -0.9872 -0.0973
   71MOL   O41848158   1.607   3.281   4.636 -0.1337  0.0247  0.1190
   71MOL   C41948159   1.788   3.211   4.783  0.0796  0.2856 -0.0471
   71MOL   C42048160   1.884   3.308   4.747 -0.5492  0.2005 -0.1051
   71MOL   C42148161   2.023   3.287   4.765  0.2884 -0.3181 -0.5163
   71MOL   C42248162   2.055   3.165   4.827  0.7534  0.4625  0.1832
   71MOL   O42348163   2.191   3.133   4.839  0.3221  0.5516  0.6480
   71MOL   C42448164   2.229   3.018   4.776 -0.1072  0.1039 -0.4451
   71MOL   C42548165   2.261   2.901   4.847 -0.2922  0.1144  0.0597
   71MOL   C42648166   2.275   2.776   4.786 -0.2846  0.3001  0.0529
   71MOL   C42748167   2.263   2.765   4.644  0.3099 -0.1404 -0.5068
   71MOL   C42848168   2.247   2.880   4.567 -0.4058  0.3478  1.0546
   71MOL   C42948169   2.223   3.008   4.634 -0.5536 -0.2617  0.0354
   71MOL   C43048170   1.957   3.067   4.872 -0.6642  0.8740 -0.5898
   71MOL   C43148171   1.823   3.084   4.840  0.7732 -0.2251  0.3750
   71MOL   H43248172   1.675   3.198   5.035  0.3618 -3.2080  0.5183
   71MOL   H43348173   1.502   3.152   5.190  0.0973 -1.1094 -0.4276
   71MOL   H43448174   1.219   3.104   4.859 -0.8789 -0.0218  0.4903
   71MOL   H43548175   1.394   3.159   4.710  1.5399  0.0218 -0.7599
   71MOL   H43648176   1.844   3.397   4.701  0.9107  0.2069 -1.3780
   71MOL   H43748177   2.098   3.355   4.727  0.5876  0.2464  1.0359
   71MOL   H43848178   2.275   2.912   4.954  0.3983 -0.1978  0.0049
   71MOL   H43948179   2.286   2.691   4.853 -0.4984  1.0960  1.1174
   71MOL   H44048180   2.250   2.882   4.459 -1.0729 -2.1367  0.9685
   71MOL   H44148181   2.204   3.096   4.576 -2.3774 -0.5456  0.1868
   71MOL   H44248182   1.985   2.973   4.916 -1.3263  0.8592 -0.1859
   71MOL   H44348183   1.752   3.005   4.857  1.0691 -0.4943  0.3539
   71MOL   C44448184   2.079   2.347   4.679 -0.5086 -0.6435 -0.2262
   71MOL   C44548185   2.176   2.450   4.684 -0.5041  0.3482  0.5052
   71MOL   C44648186   2.174   2.560   4.588  0.3239 -0.2221  0.0896
   71MOL   O44748187   2.280   2.649   4.576  0.4172 -0.1264  0.3070
   71MOL   C44848188   2.067   2.572   4.501  0.7224 -0.8860  0.5776
   71MOL   C44948189   1.964   2.473   4.502 -0.5490 -0.0320  0.2048
   71MOL   C45048190   1.970   2.367   4.594  0.2700 -0.3804  0.3176
   71MOL   C45148191   1.853   2.269   4.598 -0.3629 -0.7457 -0.2617
   71MOL   O45248192   1.845   2.197   4.696  0.2159  0.4957  0.1908
   71MOL   C45348193   1.765   2.263   4.483  0.7403 -0.0094  0.3985
   71MOL   C45448194   1.814   2.253   4.352 -0.6190  0.6510 -0.3997
   71MOL   C45548195   1.739   2.237   4.237 -0.4820 -0.3876  0.0535
   71MOL   C45648196   1.606   2.208   4.262 -0.1548 -0.4286 -0.5835
   71MOL   O45748197   1.525   2.169   4.157  0.1084 -0.3349  0.5600
   71MOL   C45848198   1.467   2.043   4.160  0.0000  0.9317 -0.5246
   71MOL   C45948199   1.556   1.929   4.162 -0.5363 -0.4460 -0.7446
   71MOL   C46048200   1.505   1.799   4.156 -0.2864 -0.1241  0.0823
   71MOL   C46148201   1.364   1.780   4.140 -0.0158  0.4720 -0.3281
   71MOL   C46248202   1.275   1.893   4.150 -0.0277 -0.8127 -0.1830
   71MOL   C46348203   1.325   2.025   4.163  0.1940  0.0416  0.4085
   71MOL   C46448204   1.545   2.225   4.394 -0.3176 -0.9818 -0.7008
   71MOL   C46548205   1.630   2.263   4.498  0.3567  0.1826  0.4636
   71MOL   H46648206   2.090   2.254   4.733 -0.8109 -1.3504 -1.3474
   71MOL   H46748207   2.262   2.430   4.745 -0.4595  0.1735  0.3858
   71MOL   H46848208   2.060   2.647   4.424 -0.9088 -1.3680  0.2336
   71MOL   H46948209   1.885   2.487   4.429  0.9163 -0.5908 -1.5185
   71MOL   H47048210   1.922   2.250   4.341 -0.4888 -1.7511  1.1256
   71MOL   H47148211   1.776   2.243   4.135  0.5974 -1.4652  0.3752
   71MOL   H47248212   1.663   1.939   4.170 -0.9107  2.3490  1.0956
   71MOL   H47348213   1.566   1.710   4.151 -0.7506 -0.4074 -0.5882
   71MOL   H47448214   1.168   1.882   4.136 -0.1500  1.0821 -0.9339
   71MOL   H47548215   1.255   2.106   4.178 -0.4124 -0.1961 -1.0594
   71MOL   H47648216   1.438   2.219   4.408 -0.6151 -0.0377 -2.3842
   71MOL   H47748217   1.580   2.283   4.592  1.9790 -1.0818  1.6561
   71MOL   C47848218   0.960   1.552   4.112 -0.3393  0.3329 -0.0687
   71MOL   C47948219   1.097   1.574   4.070 -0.1565 -0.4075 -0.1647
   71MOL   C48048220   1.201   1.611   4.154 -0.1028 -0.0302 -0.1743
   71MOL   O48148221   1.318   1.656   4.102  0.7518 -0.0250 -0.4666
   71MOL   C48248222   1.161   1.616   4.290  0.6878  0.2385 -0.7803
   71MOL   C48348223   1.031   1.587   4.334  0.7540  0.0328 -0.1158
   71MOL   C48448224   0.926   1.559   4.243 -0.0463  0.3216  0.1358
   71MOL   C48548225   0.791   1.531   4.300 -0.6740 -0.1253  0.2046
   71MOL   O48648226   0.784   1.481   4.411  0.1939 -0.5445 -0.0979
   71MOL   C48748227   0.681   1.542   4.201 -0.2457  0.1179 -0.1396
   71MOL   C48848228   0.661   1.663   4.126 -0.1690  0.3415 -0.7885
   71MOL   C48948229   0.549   1.683   4.046 -0.4403  0.3828 -0.4073
   71MOL   C49048230   0.451   1.582   4.040 -0.1793 -0.7206  0.4337
   71MOL   O49148231   0.328   1.600   3.974 -0.1497  0.1771  0.6244
   71MOL   C49248232   0.320   1.689   3.876 -0.3478 -0.1521 -0.8452
   71MOL   C49348233   0.381   1.670   3.751 -0.0146  0.1463 -0.2482
   71MOL   C49448234   0.368   1.767   3.651  0.0297  0.3653 -0.5638
   71MOL   C49548235   0.301   1.885   3.678  0.0677  0.0096  0.3750
   71MOL   C49648236   0.242   1.908   3.800  0.3015  0.2751 -0.8439
   71MOL   C49748237   0.247   1.807   3.896 -0.1307 -0.2000  0.4190
   71MOL   C49848238   0.479   1.455   4.101  0.8988  0.1666 -0.1223
   71MOL   C49948239   0.581   1.438   4.192  0.1476 -0.6028 -0.0565
   71MOL   H50048240   0.888   1.517   4.039  0.1295 -1.0786  0.1393
   71MOL   H50148241   1.114   1.566   3.964 -0.3973 -0.6291 -0.1887
   71MOL   H50248242   1.240   1.649   4.357  0.5983 -1.2994  0.1127
   71MOL   H50348243   1.018   1.581   4.441  2.0891 -2.4646 -0.0456
   71MOL   H50448244   0.732   1.743   4.140 -0.3919  0.2208  1.2468
   71MOL   H50548245   0.538   1.772   3.987 -1.9239  2.4207  2.7831
   71MOL   H50648246   0.429   1.574   3.738 -1.4528 -0.6885  0.5166
   71MOL   H50748247   0.415   1.757   3.554 -0.4772 -1.5438 -0.6430
   71MOL   H50848248   0.172   1.989   3.815  0.0242  0.2362 -1.9186
   71MOL   H50948249   0.196   1.824   3.989  1.2022  0.2547  1.0772
   71MOL   H51048250   0.409   1.375   4.084  2.0475 -0.4299 -2.2525
   71MOL   H51148251   0.577   1.345   4.246 -0.9907  0.3867  1.6190
   71MOL   C51248252   8.264   1.851   3.457  0.5607 -0.6864 -0.2163
   71MOL   C51348253   0.067   1.856   3.535  0.1944 -0.9497  0.2984
   71MOL   C51448254   0.154   1.966   3.517  0.1648 -1.4000 -0.1649
   71MOL   O51548255   0.285   1.967   3.572  0.5223 -0.0233  0.1093
   71MOL   C51648256   0.104   2.081   3.439 -0.3613 -0.1429 -0.3204
   71MOL   C51748257   8.289   2.082   3.381  0.5622 -0.5894 -0.4075
   71MOL   C51848258   8.214   1.968   3.392  0.2951 -0.2293  0.2956
   71MOL   C51948259   8.085   1.963   3.317 -0.5759 -0.3726  0.0498
   71MOL   O52048260   8.005   1.874   3.331  0.7663 -0.3067 -0.7354
   71MOL   C52148261   8.045   2.076   3.221 -0.0445 -0.0794  0.0914
   71MOL   C52248262   8.116   2.098   3.104 -0.3017  0.0588  0.2971
   71MOL   C52348263   8.086   2.208   3.017 -0.0277  0.0819 -0.6839
   71MOL   C52448264   7.989   2.301   3.058  0.2790 -0.3657  0.7031
   71MOL   O52548265   7.958   2.409   2.977 -0.8685 -0.0686  0.2916
   71MOL   C52648266   8.050   2.510   2.977 -0.5892 -0.1946 -0.3337
   71MOL   C52748267   8.092   2.558   2.853 -0.2279 -0.2669  0.6437
   71MOL   C52848268   8.185   2.666   2.843 -0.2022 -0.2580  0.1675
   71MOL   C52948269   8.245   2.729   2.953 -0.1407  0.1377  0.5553
   71MOL   C53048270   8.212   2.681   3.085 -0.1545 -0.0779  0.2458
   71MOL   C53148271   8.114   2.571   3.096  0.7194  0.3186  0.3745
   71MOL   C53248272   7.910   2.279   3.173  0.1388 -0.5867 -0.5008
   71MOL   C53348273   7.940   2.166   3.258  0.1967  0.0219  0.1033
   71MOL   H53448274   8.210   1.758   3.457 -0.3819 -0.1430  0.0242
   71MOL   H53548275   0.105   1.771   3.590 -1.4667  0.1203  3.1924
   71MOL   H53648276   0.176   2.159   3.424  0.6747 -1.1639 -0.7693
   71MOL   H53748277   8.247   2.168   3.331 -0.7478 -0.5086  0.8180
   71MOL   H53848278   8.200   2.037   3.074  2.2278  2.4940  2.2556
   71MOL   H53948279   8.142   2.231   2.928 -1.8498  2.6206 -1.2034
   71MOL   H54048280   8.038   2.524   2.765 -1.0476  0.8614  0.6965
   71MOL   H54148281   8.201   2.705   2.744 -2.2575 -1.0675 -0.5183
   71MOL   H54248282   8.248   2.738   3.170 -1.2323 -1.2764  1.5317
   71MOL   H54348283   8.076   2.529   3.188  0.1197 -1.6543 -0.7365
   71MOL   H54448284   7.834   2.352   3.197  0.2583 -0.6493  0.0591
   71MOL   H54548285   7.887   2.137   3.348  1.0079 -1.0294  0.2442
   71MOL   C54648286   0.335   2.787   2.816  0.0966 -0.5233 -0.1674
   71MOL   C54748287   0.198   2.800   2.810  0.1527 -0.4927  0.4503
   71MOL   C54848288   0.132   2.850   2.924 -0.3024  0.0118  0.1437
   71MOL   O54948289   8.309   2.850   2.931  0.2029  0.5350  0.6429
   71MOL   C55048290   0.204   2.880   3.041  0.6580 -0.1923  0.1421
   71MOL   C55148291   0.342   2.887   3.035 -0.1258 -0.7398 -0.2703
   71MOL   C55248292   0.408   2.841   2.921 -0.1096  0.1463 -0.1688
   71MOL   C55348293   0.555   2.819   2.917  0.2364 -0.2123  0.0730
   71MOL   O55448294   0.592   2.717   2.862 -0.3946  0.5462  0.1165
   71MOL   C55548295   0.642   2.923   2.974  0.0496 -0.2175  0.5969
   71MOL   C55648296   0.605   3.050   3.023  0.4170 -0.3584 -0.1552
   71MOL   C55748297   0.693   3.140   3.084 -0.1461  0.1879  0.0256
   71MOL   C55848298   0.831   3.109   3.090  0.0901  0.0620  0.3044
   71MOL   O55948299   0.925   3.177   3.171  0.2507  1.1935  0.1836
   71MOL   C56048300   0.984   3.293   3.142 -0.7650 -0.6594  0.7419
   71MOL   C56148301   1.048   3.316   3.012  0.0023  0.5596  0.2642
   71MOL   C56248302   1.133   3.425   2.989 -0.5068  0.4298 -0.5014
   71MOL   C56348303   1.139   3.532   3.088  1.2249 -0.0752  0.1025
   71MOL   C56448304   1.049   3.525   3.197  0.0187 -0.3509 -0.6968
   71MOL   C56548305   0.985   3.397   3.235 -0.0841  0.2168  0.7294
   71MOL   C56648306   0.879   2.988   3.033  0.2907  0.4444  0.1874
   71MOL   C56748307   0.780   2.897   2.982 -0.4021 -0.0868  0.1206
   71MOL   H56848308   0.392   2.749   2.732 -1.0261 -0.0052 -1.1822
   71MOL   H56948309   0.146   2.770   2.720 -0.2081 -1.5773  1.0083
   71MOL   H57048310   0.153   2.899   3.134  1.8169  2.4281  0.2934
   71MOL   H57148311   0.388   2.912   3.130 -1.3813 -2.4187  0.8099
   71MOL   H57248312   0.502   3.082   3.017  0.2585 -0.4866  1.7742
   71MOL   H57348313   0.672   3.239   3.120 -0.6832 -0.3320  1.1547
   71MOL   H57448314   1.026   3.235   2.945  2.0367  0.0660  0.1889
   71MOL   H57548315   1.201   3.428   2.905  0.0479  1.4628 -0.0230
   71MOL   H57648316   1.047   3.604   3.270  0.3604  0.3984 -1.4975
   71MOL   H57748317   0.950   3.382   3.336  1.9283 -0.3766  1.3592
   71MOL   H57848318   0.986   2.980   3.044  0.2787  0.4696  0.3229
   71MOL   H57948319   0.804   2.800   2.942  3.3496 -0.3597  2.7188
   71MOL   C58048320   1.190   4.001   3.177 -0.1458  0.7100  0.2806
   71MOL   C58148321   1.247   3.873   3.156  0.0183 -0.8659 -0.1192
   71MOL   C58248322   1.178   3.768   3.087  0.5455  0.2132 -0.1264
   71MOL   O58348323   1.224   3.644   3.067  0.0197  0.0738  0.1316
   71MOL   C58448324   1.059   3.807   3.023  0.3998  0.7491  0.6913
   71MOL   C58548325   1.000   3.929   3.038 -0.3124  0.1628 -0.1481
   71MOL   C58648326   1.060   4.023   3.122 -0.3110  0.1834  0.0222
   71MOL   C58748327   1.004   4.155   3.134  0.6432  0.6368  0.3342
   71MOL   O58848328   0.966   4.216   3.030  0.4243 -0.2298  0.4198
   71MOL   C58948329   0.997   4.219   3.273 -0.1847 -0.5496 -0.3494
   71MOL   C59048330   1.007   4.357   3.284 -0.2631 -0.0944 -0.6023
   71MOL   C59148331   0.986   4.421   3.410  0.0436  1.1550  0.2973
   71MOL   C59248332   0.948   4.346   3.520  0.2957  0.0651  0.0164
   71MOL   O59348333   0.935   4.410   3.649 -0.1163  0.0093 -0.5447
   71MOL   C59448334   1.010   4.379   3.759  0.1172  1.5468 -0.3941
   71MOL   C59548335   1.143   4.421   3.764 -0.2511  0.2146  0.1207
   71MOL   C59648336   1.207   4.409   3.886 -0.7392  0.9461 -0.6487
   71MOL   C59748337   1.157   4.340   3.999 -0.2056 -0.4027 -1.0725
   71MOL   C59848338   1.021   4.295   3.992 -0.6666  0.6164 -0.0116
   71MOL   C59948339   0.944   4.321   3.874  0.1890  0.3073  0.8130
   71MOL   C60048340   0.945   4.205   3.507 -0.1851  0.1512  0.7386
   71MOL   C60148341   0.968   4.135   3.390 -0.6506 -0.6119 -0.0956
   71MOL   H60248342   1.236   4.084   3.229 -0.8632  2.0269 -1.1423
   71MOL   H60348343   1.346   3.848   3.192 -0.4136  0.8785  2.5127
   71MOL   H60448344   1.004   3.731   2.969  1.3327  0.5534  0.0173
   71MOL   H60548345   0.910   3.953   2.983  0.0466 -0.8546 -1.1854
   71MOL   H60648346   1.018   4.408   3.190  0.2985 -0.4304 -0.7252
   71MOL   H60748347   0.995   4.527   3.430  1.0031  1.0837  0.2752
   71MOL   H60848348   1.189   4.477   3.683 -0.3989  1.5385  0.9506
   71MOL   H60948349   1.307   4.450   3.890 -0.6046  0.5780 -0.2582
   71MOL   H61048350   0.986   4.248   4.082  1.8656 -1.5980 -0.1322
   71MOL   H61148351   0.844   4.285   3.856  0.9066 -1.4319  0.1157
   71MOL   H61248352   0.906   4.157   3.595 -0.0280 -1.8938 -0.2813
   71MOL   H61348353   0.948   4.030   3.379 -2.4544 -0.2763 -0.2245
   71MOL   C61448354   1.457   4.132   4.321 -0.4336  0.3418  0.6414
   71MOL   C61548355   1.375   4.232   4.273  0.2975 -0.0606  0.7439
   71MOL   C61648356   1.318   4.234   4.143 -0.0660  0.9269  0.1697
   71MOL   O61748357   1.237   4.335   4.113  0.1729  0.2076 -0.0823
   71MOL   C61848358   1.357   4.127   4.054  0.2949 -0.2973  0.1615
   71MOL   C61948359   1.447   4.028   4.100  0.5618 -0.7175 -0.2795
   71MOL   C62048360   1.494   4.030   4.230 -1.0942  0.5546  0.1479
   71MOL   C62148361   1.586   3.922   4.279 -0.8667  0.3842  0.4719
   71MOL   O62248362   1.703   3.950   4.313  0.1909  0.1053 -0.6577
   71MOL   C62348363   1.533   3.784   4.290 -0.2588 -0.0356  0.4807
   71MOL   C62448364   1.396   3.745   4.283  0.6562 -0.2135  0.6299
   71MOL   C62548365   1.352   3.609   4.288  0.4756  0.0011 -0.6586
   71MOL   C62648366   1.443   3.509   4.330  0.1597 -0.3907 -0.3111
   71MOL   O62748367   1.402   3.374   4.343 -0.2032  0.2753 -0.2111
   71MOL   C62848368   1.445   3.283   4.253 -0.4075  0.4197  0.4152
   71MOL   C62948369   1.422   3.299   4.113 -0.5877 -0.0277 -0.4415
   71MOL   C63048370   1.468   3.200   4.026  0.0194  0.3705  0.0109
   71MOL   C63148371   1.548   3.095   4.070  0.0684  0.6883  0.1783
   71MOL   C63248372   1.568   3.079   4.209 -0.1783 -0.4090 -0.0958
   71MOL   C63348373   1.508   3.172   4.294  0.6883  0.1587  0.1009
   71MOL   C63448374   1.583   3.545   4.339  0.3643 -0.0459  0.5753
   71MOL   C63548375   1.624   3.679   4.321 -0.4745  0.2853  0.2630
   71MOL   H63648376   1.485   4.130   4.425  0.5133 -1.6375  0.3880
   71MOL   H63748377   1.342   4.310   4.340 -2.3789  1.2573 -1.9805
   71MOL   H63848378   1.315   4.113   3.955  0.7496 -1.3309  0.1115
   71MOL   H63948379   1.483   3.956   4.028  0.1028 -1.7751  0.5441
   71MOL   H64048380   1.319   3.818   4.261 -1.2455 -2.0652  0.9371
   71MOL   H64148381   1.246   3.587   4.282  0.5912 -0.4174 -1.2867
   71MOL   H64248382   1.370   3.385   4.072  2.5987  1.8815 -0.6886
   71MOL   H64348383   1.433   3.202   3.924  2.8079 -1.0983 -1.0167
   71MOL   H64448384   1.634   3.000   4.244 -0.3995  0.1633  1.6725
   71MOL   H64548385   1.535   3.155   4.398  0.7220  1.6026  0.3364
   71MOL   H64648386   1.650   3.460   4.350 -3.6676 -3.3869  0.5164
   71MOL   H64748387   1.729   3.702   4.333 -0.0722 -1.5114  0.2471
   71MOL   C64848388   1.487   2.673   3.925  0.4766  0.3927  0.3035
   71MOL   C64948389   1.555   2.781   3.979  0.4667 -0.1688 -0.4379
   71MOL   C65048390   1.547   2.913   3.924  0.3744  0.6561  0.4359
   71MOL   O65148391   1.612   3.014   3.991  0.0384  0.5091 -0.0068
   71MOL   C65248392   1.466   2.935   3.810 -0.8095  0.5376 -0.1579
   71MOL   C65348393   1.402   2.823   3.751 -0.2969 -0.3640 -0.0722
   71MOL   C65448394   1.408   2.690   3.812  0.4456  0.0679 -1.1794
   71MOL   C65548395   1.344   2.579   3.733  0.6080  0.6317 -0.2843
   71MOL   O65648396   1.239   2.583   3.667  0.1159  0.2372  0.3150
   71MOL   C65748397   1.420   2.449   3.745 -0.4642 -0.1722  0.1530
   71MOL   C65848398   1.553   2.440   3.702  0.0152  0.2945 -0.4770
   71MOL   C65948399   1.627   2.321   3.726  0.1876  0.4378  0.2054
   71MOL   C66048400   1.574   2.213   3.809 -0.2185  0.3325  0.4624
   71MOL   O66148401   1.647   2.104   3.836  0.2903 -0.4210  0.0026
   71MOL   C66248402   1.654   2.018   3.737  0.2345  0.0473  0.4730
   71MOL   C66348403   1.540   1.974   3.666 -0.1870 -0.0665 -1.1103
   71MOL   C66448404   1.551   1.885   3.553  0.4580  0.3139 -0.4385
   71MOL   C66548405   1.676   1.839   3.518 -0.0085  0.2005  0.6371
   71MOL   C66648406   1.793   1.872   3.593  0.2587 -0.0745 -0.7277
   71MOL   C66748407   1.784   1.970   3.702 -0.4791  0.3033 -0.5601
   71MOL   C66848408   1.438   2.226   3.847 -0.2812  0.2242  0.1853
   71MOL   C66948409   1.363   2.336   3.808 -0.4328 -0.2206 -1.7907
   71MOL   H67048410   1.501   2.574   3.965  0.1800  0.0433 -0.4457
   71MOL   H67148411   1.612   2.760   4.069 -0.8287 -0.0175  0.4412
   71MOL   H67248412   1.451   3.026   3.753 -1.5629  0.9116  0.6152
   71MOL   H67348413   1.351   2.845   3.658 -0.2990  1.0866  0.2693
   71MOL   H67448414   1.595   2.519   3.641  0.0771  0.4115 -0.2840
   71MOL   H67548415   1.731   2.308   3.699  0.6735  1.1340  1.6880
   71MOL   H67648416   1.443   2.002   3.704  1.2854  1.1446  1.8620
   71MOL   H67748417   1.462   1.859   3.496 -0.6396  1.3478  0.7620
   71MOL   H67848418   1.891   1.838   3.562  0.2525 -0.6390 -0.1359
   71MOL   H67948419   1.865   2.010   3.760 -1.3341 -0.8666  1.4792
   71MOL   H68048420   1.391   2.164   3.922 -2.0823 -0.0999 -1.1850
   71MOL   H68148421   1.260   2.341   3.842  0.9171 -0.4914  2.6810
   71MOL   H68248422   1.683   1.775   3.431 -0.4229  1.5772 -0.4256
   72MOL     C148423   4.424   2.035   3.967  0.1554 -0.1269  0.1431
   72MOL     C248424   4.523   2.136   3.970 -0.2915  0.2900  0.8435
   72MOL     C348425   4.620   2.148   4.079  0.3468  0.7483 -0.4993
   72MOL     O448426   4.718   2.243   4.070  0.3550  0.3216 -0.2324
   72MOL     C548427   4.602   2.052   4.185 -0.3297 -0.0967  0.3047
   72MOL     C648428   4.510   1.944   4.176  0.4645 -0.3837 -0.2161
   72MOL     C748429   4.417   1.937   4.069 -0.5570  0.1343 -0.4452
   72MOL     C848430   4.336   1.812   4.064 -0.3158  0.5976  0.4459
   72MOL     O948431   4.332   1.733   4.154  0.3380 -0.2694 -0.0380
   72MOL    C1048432   4.255   1.782   3.943 -0.5275  0.0513  0.1157
   72MOL    C1148433   4.112   1.783   3.968  0.1760  0.0090 -0.0369
   72MOL    C1248434   4.021   1.766   3.867 -0.0716  0.7077  0.5074
   72MOL    C1348435   4.066   1.747   3.734  0.0453  0.5584 -0.1361
   72MOL    O1448436   3.971   1.727   3.636 -0.1020 -0.0277 -0.0829
   72MOL    C1548437   3.984   1.796   3.515 -0.3695  0.4459  0.7396
   72MOL    C1648438   3.999   1.937   3.531 -0.4595  0.6081 -0.0324
   72MOL    C1748439   3.997   2.023   3.418  0.4639 -0.2408 -0.0708
   72MOL    C1848440   3.974   1.974   3.290 -0.3431 -0.1115 -0.8535
   72MOL    C1948441   3.954   1.834   3.273  0.1861 -0.5547  0.0461
   72MOL    C2048442   3.962   1.745   3.383  0.1079 -0.6396  0.4614
   72MOL    C2148443   4.206   1.741   3.709 -0.3483 -0.6624 -0.9212
   72MOL    C2248444   4.297   1.747   3.813 -0.3525 -0.8152 -1.0238
   72MOL    H2348445   4.349   2.044   3.889  0.5446  1.6464 -0.0621
   72MOL    H2448446   4.507   2.207   3.890 -1.7884 -1.0464 -0.0712
   72MOL    H2548447   4.678   2.060   4.261 -0.5042 -3.2411  0.8655
   72MOL    H2648448   4.496   1.871   4.254  1.9133  0.5292  0.9387
   72MOL    H2748449   4.078   1.794   4.070  1.2008  0.0071  0.3094
   72MOL    H2848450   3.920   1.760   3.905 -0.5849  0.2783 -0.9074
   72MOL    H2948451   4.005   1.984   3.628 -0.7892 -0.4426  0.5021
   72MOL    H3048452   3.991   2.130   3.434 -0.4932 -0.0251 -1.7788
   72MOL    H3148453   3.952   1.789   3.174  1.7307  0.1366 -0.3218
   72MOL    H3248454   3.960   1.638   3.371  1.3690 -0.5436 -0.6955
   72MOL    H3348455   4.240   1.731   3.606 -0.2222 -0.5638 -0.8895
   72MOL    H3448456   4.400   1.747   3.781  0.6782  0.3050  2.0331
   72MOL    H3548457   4.687   2.303   4.004 -1.6525  0.0918  0.4655
   72MOL    C3648458   3.779   2.373   3.165  0.2760  0.2619  0.1088
   72MOL    C3748459   3.887   2.287   3.190  0.6052 -0.7250  0.4131
   72MOL    C3848460   3.872   2.148   3.170 -0.3153  0.4484 -0.5112
   72MOL    O3948461   3.978   2.062   3.184  0.5178  0.0476  0.2015
   72MOL    C4048462   3.745   2.093   3.141 -0.9907  0.1190  0.2132
   72MOL    C4148463   3.633   2.174   3.122 -0.1779 -0.6439  0.4405
   72MOL    C4248464   3.650   2.317   3.134 -0.0478  0.4341  0.5546
   72MOL    C4348465   3.541   2.414   3.118  0.0478  0.1647 -0.5202
   72MOL    O4448466   3.551   2.529   3.165  0.1762 -0.0386  0.5272
   72MOL    C4548467   3.432   2.379   3.022 -0.0254  0.2033  0.3074
   72MOL    C4648468   3.300   2.409   3.059  0.1533 -0.7823 -0.4103
   72MOL    C4748469   3.191   2.378   2.972 -0.6346 -0.0381  0.1731
   72MOL    C4848470   3.217   2.320   2.847  0.1442 -0.4993 -0.7781
   72MOL    O4948471   3.118   2.276   2.759  0.5528  0.2850 -0.0364
   72MOL    C5048472   2.991   2.325   2.780 -0.5089  0.4003  0.8778
   72MOL    C5148473   2.938   2.416   2.689 -0.1032 -1.3717 -0.2114
   72MOL    C5248474   2.801   2.452   2.703 -0.2275  0.0402  0.1560
   72MOL    C5348475   2.711   2.397   2.801 -0.2375 -0.1302  0.1656
   72MOL    C5448476   2.768   2.295   2.887 -0.2578  0.0648  0.2543
   72MOL    C5548477   2.904   2.263   2.876 -0.1302 -0.0328  0.0613
   72MOL    C5648478   3.347   2.288   2.811  0.0953  0.9914  0.7064
   72MOL    C5748479   3.454   2.312   2.897 -0.0788  0.0603 -0.1913
   72MOL    H5848480   3.791   2.480   3.170  0.0779  0.3460 -1.0206
   72MOL    H5948481   3.976   2.338   3.225  0.3142  0.7446 -0.9581
   72MOL    H6048482   3.738   1.986   3.128 -0.4942  0.3126 -1.8446
   72MOL    H6148483   3.536   2.127   3.117 -0.1586 -0.5288 -1.0818
   72MOL    H6248484   3.286   2.445   3.160 -1.3555  0.8360 -1.1641
   72MOL    H6348485   3.091   2.383   3.013 -0.2521 -0.3617  1.1578
   72MOL    H6448486   3.006   2.454   2.614  0.1647 -1.6082 -0.0915
   72MOL    H6548487   2.763   2.531   2.639 -1.8074 -1.6403 -1.0324
   72MOL    H6648488   2.716   2.247   2.969 -0.3404 -0.5599 -0.1624
   72MOL    H6748489   2.950   2.186   2.936  1.8553  2.6597  2.1530
   72MOL    H6848490   3.360   2.239   2.715 -1.5072  0.4823  0.7432
   72MOL    H6948491   3.551   2.302   2.851  0.4047 -0.5051  0.9225
   72MOL    C7048492   2.403   2.210   2.566 -0.3750 -0.1572 -0.7400
   72MOL    C7148493   2.505   2.261   2.655 -0.1177 -0.0533  0.1947
   72MOL    C7248494   2.489   2.386   2.718  0.0121  0.2139  0.1413
   72MOL    O7348495   2.579   2.445   2.805 -0.0861 -0.5172  0.8966
   72MOL    C7448496   2.372   2.456   2.687 -0.4156 -0.5467  0.0012
   72MOL    C7548497   2.276   2.409   2.594  0.0356 -0.2190 -1.0186
   72MOL    C7648498   2.282   2.280   2.544  0.2828  0.2743 -0.2661
   72MOL    C7748499   2.181   2.238   2.443  0.2380  0.4005  0.5270
   72MOL    O7848500   2.131   2.315   2.368 -0.0767 -0.4928 -0.0780
   72MOL    C7948501   2.142   2.089   2.436  0.0760 -0.3240 -0.1263
   72MOL    C8048502   2.125   2.006   2.545 -0.4602  0.0630  0.1886
   72MOL    C8148503   2.078   1.874   2.530  0.0272 -0.2715 -0.3868
   72MOL    C8248504   2.069   1.815   2.403 -0.1906 -0.2703  0.3381
   72MOL    O8348505   2.032   1.684   2.380  0.0708  0.1406 -0.3147
   72MOL    C8448506   1.948   1.613   2.467 -0.2493  0.0564 -0.2536
   72MOL    C8548507   1.811   1.622   2.459  0.8878 -0.0898  0.5166
   72MOL    C8648508   1.726   1.541   2.536  0.2385 -0.1157  0.1586
   72MOL    C8748509   1.785   1.449   2.622  0.2144 -0.2309  0.0137
   72MOL    C8848510   1.930   1.434   2.621  0.7629 -0.2910 -0.6949
   72MOL    C8948511   2.007   1.520   2.554  0.2040  0.5179 -0.1675
   72MOL    C9048512   2.094   1.900   2.292 -0.5865 -0.9141 -0.1805
   72MOL    C9148513   2.122   2.034   2.309  0.0120 -0.4642 -0.7148
   72MOL    H9248514   2.415   2.115   2.518 -1.0756 -0.7213  0.1890
   72MOL    H9348515   2.594   2.201   2.661  0.0022  0.2769  1.9354
   72MOL    H9448516   2.368   2.555   2.728 -1.4388 -0.5255 -0.1495
   72MOL    H9548517   2.190   2.472   2.579  1.2222  1.6895 -0.0417
   72MOL    H9648518   2.146   2.036   2.647  1.6894  0.7636 -0.4321
   72MOL    H9748519   2.068   1.811   2.618  0.2343 -0.8709 -0.7903
   72MOL    H9848520   1.768   1.697   2.395  0.3116 -0.7265  0.1582
   72MOL    H9948521   1.619   1.534   2.525 -0.4689  3.6204  3.6614
   72MOL   H10048522   1.979   1.367   2.691 -0.8700 -0.1451  0.6282
   72MOL   H10148523   2.114   1.520   2.567  0.1952 -1.2914  0.0215
   72MOL   H10248524   2.083   1.868   2.189  0.8482  3.2918 -1.7259
   72MOL   H10348525   2.142   2.098   2.224  0.2138  1.5703  0.7987
   72MOL   C10448526   1.654   0.996   2.616 -0.5676 -0.4106 -0.6123
   72MOL   C10548527   1.696   1.114   2.677  0.6371  0.2876 -0.2236
   72MOL   C10648528   1.673   1.243   2.615 -0.1893 -0.0023  0.3059
   72MOL   O10748529   1.711   1.358   2.688  0.9106  0.0438  0.4483
   72MOL   C10848530   1.611   1.247   2.485 -0.1324  0.6302 -0.5524
   72MOL   C10948531   1.585   1.121   2.423 -0.4824 -0.5601 -0.3652
   72MOL   C11048532   1.602   0.995   2.484  0.4502  0.3947  0.3524
   72MOL   C11148533   1.565   0.865   2.423  0.0801  0.9514  0.5509
   72MOL   O11248534   1.542   0.770   2.494 -0.4196 -0.0041 -0.0271
   72MOL   C11348535   1.550   0.850   2.273 -0.0189  0.3173  0.1841
   72MOL   C11448536   1.624   0.910   2.173 -0.3035  0.7826  0.6892
   72MOL   C11548537   1.595   0.905   2.035  0.1628  0.3650  0.4360
   72MOL   C11648538   1.480   0.844   1.988  0.0807  0.7467 -0.3271
   72MOL   O11748539   1.458   0.838   1.855 -1.2842 -0.0188 -0.2231
   72MOL   C11848540   1.405   0.947   1.804 -0.5865 -0.2501  1.2882
   72MOL   C11948541   1.488   1.044   1.751 -0.2028  0.5716  0.5948
   72MOL   C12048542   1.434   1.148   1.673  0.2582  0.2829  0.0202
   72MOL   C12148543   1.291   1.157   1.659 -0.2637 -0.0941 -0.2195
   72MOL   C12248544   1.207   1.060   1.717 -0.1632 -0.3194 -0.1027
   72MOL   C12348545   1.262   0.952   1.789 -0.8031  0.5982 -0.5611
   72MOL   C12448546   1.405   0.772   2.083  0.4670 -0.4665  0.4856
   72MOL   C12548547   1.436   0.779   2.223  0.1737 -0.2767  0.6503
   72MOL   H12648548   1.667   0.899   2.664  0.3477  0.2069  0.4166
   72MOL   H12748549   1.745   1.105   2.773  1.3749 -0.4478 -0.6682
   72MOL   H12848550   1.594   1.338   2.431  0.6507  0.2977 -1.3640
   72MOL   H12948551   1.549   1.125   2.321  1.8340 -0.2264 -1.2129
   72MOL   H13048552   1.713   0.966   2.196 -0.4322  1.0949  0.4348
   72MOL   H13148553   1.671   0.949   1.973  1.2497  0.2714  1.6760
   72MOL   H13248554   1.595   1.033   1.746 -0.5110 -2.0966 -0.7924
   72MOL   H13348555   1.502   1.226   1.640 -1.3145  1.6247 -0.1134
   72MOL   H13448556   1.101   1.079   1.711  0.3939  2.8070 -1.4042
   72MOL   H13548557   1.198   0.876   1.831  1.0015 -1.3288 -1.1967
   72MOL   H13648558   1.318   0.715   2.056  1.9743 -1.8089 -1.6321
   72MOL   H13748559   1.377   0.721   2.293 -0.5637  0.7614  0.8945
   72MOL   C13848560   1.083   1.114   1.286  0.2869  0.5265  0.5171
   72MOL   C13948561   1.142   1.116   1.414 -0.0126 -0.3759  0.2277
   72MOL   C14048562   1.197   1.244   1.459 -0.3507  0.8201 -0.0132
   72MOL   O14148563   1.240   1.262   1.590  0.7045  0.3184 -0.1605
   72MOL   C14248564   1.191   1.354   1.379 -0.1712 -0.7230 -0.2385
   72MOL   C14348565   1.134   1.343   1.250  0.0408  0.6020  0.1518
   72MOL   C14448566   1.087   1.224   1.196 -0.5670  0.1582 -0.7325
   72MOL   C14548567   1.024   1.226   1.063  0.3441 -0.1642  0.3349
   72MOL   O14648568   0.919   1.163   1.043  1.3797  0.3328 -0.1050
   72MOL   C14748569   1.087   1.312   0.955 -0.2842 -0.4672  0.0718
   72MOL   C14848570   1.219   1.345   0.944 -0.2429  0.0117 -0.0166
   72MOL   C14948571   1.265   1.421   0.840 -0.0607 -0.2464  0.0176
   72MOL   C15048572   1.179   1.466   0.736  0.4057  0.4629 -0.4691
   72MOL   O15148573   1.222   1.528   0.619  0.2868 -0.1270  0.2296
   72MOL   C15248574   1.157   1.638   0.567 -0.0498 -0.2742  0.4303
   72MOL   C15348575   1.137   1.758   0.639  0.6733 -0.4730  0.0468
   72MOL   C15448576   1.064   1.862   0.587  0.0472 -0.2896 -0.4334
   72MOL   C15548577   1.010   1.852   0.457  0.3511  0.4859 -0.0571
   72MOL   C15648578   1.025   1.731   0.382  0.3164  0.5108  0.0589
   72MOL   C15748579   1.099   1.627   0.437  0.2033 -0.2896  0.4811
   72MOL   C15848580   1.048   1.422   0.741  0.1406 -0.0618  0.1938
   72MOL   C15948581   1.000   1.346   0.846 -0.6497 -0.5819  0.1438
   72MOL   H16048582   1.039   1.022   1.250 -0.9000  0.3372  2.3835
   72MOL   H16148583   1.132   1.030   1.478  1.4638 -0.9844 -0.3474
   72MOL   H16248584   1.229   1.448   1.415 -0.3937 -1.2373  1.3663
   72MOL   H16348585   1.133   1.430   1.187 -2.9858  0.5467  0.0433
   72MOL   H16448586   1.286   1.321   1.026 -0.4497  0.2060  0.2114
   72MOL   H16548587   1.372   1.436   0.839  0.1357 -1.3788  1.8245
   72MOL   H16648588   1.190   1.756   0.733 -0.6815  0.0122  0.8295
   72MOL   H16748589   1.050   1.947   0.652  1.4879 -2.5997  3.0147
   72MOL   H16848590   0.993   1.735   0.279 -0.0478 -0.4698  0.1315
   72MOL   H16948591   1.116   1.541   0.374  1.5714  0.4938 -0.2401
   72MOL   H17048592   0.977   1.431   0.659  0.0376 -0.2965  0.2580
   72MOL   H17148593   0.893   1.333   0.848 -1.0315  2.2609  0.3929
   72MOL   C17248594   1.218   2.098   0.176  0.4424 -0.3799 -0.3394
   72MOL   C17348595   1.129   2.003   0.232  0.1041 -0.4761  0.1323
   72MOL   C17448596   1.038   2.044   0.328 -0.4994 -0.2561  0.2639
   72MOL   O17548597   0.957   1.960   0.400 -1.0160 -0.3090  0.5536
   72MOL   C17648598   1.023   2.178   0.352  0.4055 -0.7735 -0.0642
   72MOL   C17748599   1.101   2.277   0.289  0.0135 -0.2719 -0.6248
   72MOL   C17848600   1.200   2.237   0.205  0.2905  0.0034  0.0749
   72MOL   C17948601   1.287   2.340   0.141 -0.0981  0.2299 -0.1551
   72MOL   O18048602   1.266   2.461   0.147 -0.0660 -0.0099  0.3742
   72MOL   C18148603   1.399   2.289   0.061  0.1600  0.6401  0.5516
   72MOL   C18248604   1.403   2.321   8.235  0.0860  0.0705  0.3359
   72MOL   C18348605   1.514   2.283   8.157 -0.0304  1.0206  0.0974
   72MOL   C18448606   1.624   2.209   8.210 -0.1652  0.0675 -0.7924
   72MOL   O18548607   1.740   2.181   8.137  0.5254 -0.2934  0.4329
   72MOL   C18648608   1.748   2.051   8.090 -0.7380 -0.3820  0.2057
   72MOL   C18748609   1.875   1.993   8.075  0.6847 -0.8728  0.3462
   72MOL   C18848610   1.886   1.870   8.011 -0.6689 -0.9058  0.4187
   72MOL   C18948611   1.781   1.804   7.955  0.4581  0.0983 -0.2667
   72MOL   C19048612   1.651   1.867   7.956  0.3346  0.3552 -0.4131
   72MOL   C19148613   1.639   1.989   8.026 -0.3620  0.3621 -0.3421
   72MOL   C19248614   1.616   2.177   0.034  0.1919 -0.2062 -0.1367
   72MOL   C19348615   1.502   2.209   0.111 -0.0223  0.1505 -0.0265
   72MOL   H19448616   1.292   2.070   0.102 -1.1549 -0.2075 -2.0497
   72MOL   H19548617   1.140   1.897   0.217 -0.6156 -0.5920  0.3740
   72MOL   H19648618   0.956   2.230   0.419  1.7313  1.7840 -0.6389
   72MOL   H19748619   1.075   2.374   0.326 -0.4596  0.4490 -2.7666
   72MOL   H19848620   1.327   2.376   8.182  0.9932  1.5389  0.5440
   72MOL   H19948621   1.525   2.313   8.054  1.9832  1.1309  0.3272
   72MOL   H20048622   1.955   2.058   8.108  0.0023 -0.6075  1.5001
   72MOL   H20148623   1.986   1.831   8.027  0.4088  1.1972 -0.8613
   72MOL   H20248624   1.567   1.809   7.922  1.7058 -0.5701 -2.3358
   72MOL   H20348625   1.541   2.035   8.025  0.6590  2.6377  1.5650
   72MOL   H20448626   1.700   2.135   0.088 -0.7080  1.4654  2.6921
   72MOL   H20548627   1.491   2.177   0.214 -0.1757  1.7011  0.4553
   72MOL   C20648628   1.673   1.331   7.911  0.9302 -0.1573  0.1018
   72MOL   C20748629   1.734   1.451   7.870 -0.0758  0.0649  1.1842
   72MOL   C20848630   1.734   1.565   7.949 -0.2445  0.2168 -0.8781
   72MOL   O20948631   1.795   1.678   7.896 -0.3702 -0.9649 -0.3271
   72MOL   C21048632   1.682   1.555   8.083 -0.0061  0.4012 -0.5685
   72MOL   C21148633   1.619   1.435   8.124  0.1950  0.3170 -0.0518
   72MOL   C21248634   1.611   1.318   8.037 -0.2992 -0.3263  0.6398
   72MOL   C21348635   1.543   1.190   8.081 -0.5393  0.4465 -0.7325
   72MOL   O21448636   1.549   1.093   8.010  0.1398  0.5518 -0.3077
   72MOL   C21548637   1.465   1.188   8.209  0.4879 -0.5074  0.8596
   72MOL   C21648638   1.359   1.285   8.237 -0.2599 -0.0357 -0.1371
   72MOL   C21748639   1.281   1.283   0.040 -0.4126 -0.2235 -0.0394
   72MOL   C21848640   1.309   1.182   0.138 -0.5453 -0.0131  0.4761
   72MOL   O21948641   1.240   1.198   0.252  0.1970 -0.0348  0.3695
   72MOL   C22048642   1.317   1.194   0.364 -0.4197 -0.4108  0.2614
   72MOL   C22148643   1.400   1.305   0.389  0.6747 -0.6606 -0.3187
   72MOL   C22248644   1.483   1.306   0.505 -0.0525  0.2911  0.0606
   72MOL   C22348645   1.480   1.195   0.595  0.1564 -0.6428  0.1121
   72MOL   C22448646   1.397   1.082   0.566  0.6077 -0.5220 -0.5937
   72MOL   C22548647   1.313   1.085   0.452  0.1782 -0.1868  0.5882
   72MOL   C22648648   1.418   1.087   0.124  0.0097  0.9127  1.0687
   72MOL   C22748649   1.485   1.094   8.311 -0.5175  0.4255 -0.3111
   72MOL   H22848650   1.668   1.251   7.839 -2.2616 -0.1032  0.2143
   72MOL   H22948651   1.759   1.461   7.765 -0.9839 -0.4077  0.9099
   72MOL   H23048652   1.691   1.641   8.149  1.2864  1.7456 -2.4421
   72MOL   H23148653   1.570   1.423   8.219 -1.7935 -0.2245 -1.1101
   72MOL   H23248654   1.339   1.358   8.160 -1.7200  2.0882  2.2027
   72MOL   H23348655   1.208   1.362   0.055  1.0820  1.5785 -1.9613
   72MOL   H23448656   1.393   1.393   0.326 -0.2465  1.2680  2.3840
   72MOL   H23548657   1.547   1.392   0.514 -0.4405  0.8409 -2.1539
   72MOL   H23648658   1.384   1.005   0.640 -0.6398  1.3057  1.1422
   72MOL   H23748659   1.237   1.009   0.446 -2.8036  2.5746  1.5683
   72MOL   H23848660   1.435   1.003   0.190 -0.3450 -0.9494 -1.1599
   72MOL   H23948661   1.550   1.009   8.295  0.5853  1.5400 -1.8778
   72MOL   C24048662   1.836   1.433   0.719  0.3426 -0.1536  0.1431
   72MOL   C24148663   1.757   1.327   0.677 -0.1719 -0.5601 -0.1974
   72MOL   C24248664   1.641   1.295   0.748  0.6055 -0.0959  0.4492
   72MOL   O24348665   1.556   1.189   0.711  0.0389  1.1296  0.7448
   72MOL   C24448666   1.605   1.363   0.869  0.0532 -1.0345  0.2701
   72MOL   C24548667   1.689   1.462   0.917 -0.7822 -0.3376  0.6097
   72MOL   C24648668   1.800   1.503   0.839 -0.5350  0.2039  0.1277
   72MOL   C24748669   1.887   1.624   0.887  0.4388 -0.1214 -0.1310
   72MOL   O24848670   1.928   1.622   1.003 -0.1490  0.3039  0.2151
   72MOL   C24948671   1.902   1.747   0.803  0.3379  0.1976  0.2176
   72MOL   C25048672   1.995   1.845   0.836 -0.0218  0.0609 -0.0440
   72MOL   C25148673   2.012   1.958   0.751  0.4999  0.2116 -0.0382
   72MOL   C25248674   1.919   1.980   0.647  0.0682 -0.3569  0.3799
   72MOL   O25348675   1.941   2.083   0.551  0.1937  0.0348 -0.4700
   72MOL   C25448676   1.980   2.046   0.431  0.0295 -0.7702 -0.2619
   72MOL   C25548677   1.896   2.049   0.322 -0.4742  0.0049  0.0753
   72MOL   C25648678   1.942   2.018   0.192 -0.1003 -0.2439 -0.2638
   72MOL   C25748679   2.075   1.979   0.175  0.4793  0.2233  0.6367
   72MOL   C25848680   2.163   1.979   0.288  0.3300 -0.5350 -0.9825
   72MOL   C25948681   2.117   2.014   0.417 -0.3449  0.6424 -0.1389
   72MOL   C26048682   1.814   1.889   0.625 -0.1884  0.0792  0.3989
   72MOL   C26148683   1.811   1.776   0.703  0.0795  0.8831  0.5597
   72MOL   H26248684   1.919   1.472   0.662 -0.3548  2.5402  0.8607
   72MOL   H26348685   1.774   1.271   0.586 -2.0086  1.0949 -1.5909
   72MOL   H26448686   1.526   1.326   0.932  1.5403 -1.2699  2.0268
   72MOL   H26548687   1.667   1.512   1.010  1.0053  2.6629 -0.5220
   72MOL   H26648688   2.066   1.832   0.917  1.2247 -2.2996 -1.4941
   72MOL   H26748689   2.097   2.024   0.761  0.2436  0.2747  1.8011
   72MOL   H26848690   1.797   2.088   0.342 -0.0266  0.5610  1.2646
   72MOL   H26948691   1.884   2.003   0.102 -2.3360  1.8856  0.7767
   72MOL   H27048692   2.266   1.948   0.280  1.0290  1.7687 -1.2322
   72MOL   H27148693   2.180   2.013   0.505  0.1912  1.6836 -0.4989
   72MOL   H27248694   1.746   1.902   0.543 -0.8365 -1.7972  0.5962
   72MOL   H27348695   1.735   1.701   0.682  0.8243 -0.1890  1.6324
   72MOL   C27448696   2.205   1.667   8.140 -0.2908 -0.2988 -0.1460
   72MOL   C27548697   2.213   1.783   8.216 -0.4190 -0.3680 -0.0958
   72MOL   C27648698   2.110   1.820   8.308  0.1608 -0.1419 -0.6001
   72MOL   O27748699   2.121   1.952   0.050  0.1968  0.0797  0.4020
   72MOL   C27848700   1.996   1.739   0.006 -0.0052 -0.3582  0.1375
   72MOL   C27948701   1.982   1.633   8.230 -0.3686  0.4426  0.0563
   72MOL   C28048702   2.086   1.590   8.145 -0.1741 -0.7989  0.5498
   72MOL   C28148703   2.068   1.466   8.064 -0.5500  0.2949 -0.4127
   72MOL   O28248704   2.095   1.458   7.943 -0.6631 -0.8595 -0.4338
   72MOL   C28348705   2.031   1.344   8.143 -0.0664 -0.2827  0.2831
   72MOL   C28448706   2.088   1.319   8.270  0.3386 -0.0204 -0.3981
   72MOL   C28548707   2.072   1.192   0.012  0.4757  0.4269  0.5151
   72MOL   C28648708   1.990   1.092   8.263  0.1086  0.0763 -1.2027
   72MOL   O28748709   1.967   0.972   0.010  0.2106  0.1710  0.2971
   72MOL   C28848710   1.908   0.973   0.134 -0.0212  0.1996 -0.3344
   72MOL   C28948711   1.963   0.884   0.224  0.0327  0.2707  0.4512
   72MOL   C29048712   1.919   0.888   0.356  0.6864 -0.2424  0.8092
   72MOL   C29148713   1.814   0.975   0.399 -0.2091 -1.0374  0.1351
   72MOL   C29248714   1.762   1.070   0.307  0.1496 -0.0727  0.1162
   72MOL   C29348715   1.805   1.066   0.169 -0.0602  0.6561 -0.8465
   72MOL   C29448716   1.925   1.119   8.144 -0.1345 -0.3788 -0.1614
   72MOL   C29548717   1.948   1.245   8.080 -0.2130 -0.1191 -0.2826
   72MOL   H29648718   2.282   1.628   8.075 -0.1200 -0.6826  0.2726
   72MOL   H29748719   2.302   1.844   8.209 -0.6608 -0.1980 -2.2401
   72MOL   H29848720   1.914   1.762   0.073 -1.8758 -0.1681 -2.1393
   72MOL   H29948721   1.888   1.581   8.215 -0.0514  0.1201 -0.8498
   72MOL   H30048722   2.145   1.394   0.010  1.9266 -0.1008 -1.9383
   72MOL   H30148723   2.125   1.174   0.104  1.9253 -0.5133 -0.4910
   72MOL   H30248724   2.049   0.825   0.198 -0.4585  0.4811 -1.7015
   72MOL   H30348725   1.953   0.819   0.432 -1.0240 -0.1600  1.6860
   72MOL   H30448726   1.682   1.137   0.336  0.9751  1.2733 -0.7029
   72MOL   H30548727   1.763   1.130   0.092 -2.0264 -1.1901 -1.3386
   72MOL   H30648728   1.856   1.049   8.100 -0.7455  0.5996 -0.7832
   72MOL   H30748729   1.911   1.261   7.980  0.1122  0.1146 -0.3678
   72MOL   C30848730   1.453   0.763   0.454 -0.1501 -0.4674 -0.4346
   72MOL   C30948731   1.556   0.859   0.435 -0.4674  0.6496  0.2739
   72MOL   C31048732   1.651   0.883   0.538 -0.1016 -0.5272  1.0436
   72MOL   O31148733   1.763   0.965   0.526  0.0116 -0.5045  0.0605
   72MOL   C31248734   1.643   0.813   0.658 -0.2302 -0.1787  0.8490
   72MOL   C31348735   1.544   0.716   0.675  0.5255  0.3600 -0.7690
   72MOL   C31448736   1.449   0.690   0.574 -0.6919  0.0478 -0.0539
   72MOL   C31548737   1.352   0.584   0.588  0.4274  0.9873 -0.1999
   72MOL   O31648738   1.245   0.584   0.525  0.0328 -0.3661 -0.5031
   72MOL   C31748739   1.384   0.479   0.684  0.4295  0.1712 -0.3409
   72MOL   C31848740   1.347   0.495   0.819  0.0053 -0.4580  1.0378
   72MOL   C31948741   1.387   0.399   0.909 -0.0631 -0.1675 -0.9769
   72MOL   C32048742   1.447   0.276   0.872  0.0770 -0.3829 -0.6551
   72MOL   O32148743   1.462   0.165   0.957  0.1877  0.0823 -0.4409
   72MOL   C32248744   1.387   0.162   1.073 -0.4012 -0.2442 -0.1427
   72MOL   C32348745   1.247   0.131   1.063 -0.2819 -0.1060 -0.0527
   72MOL   C32448746   1.171   0.111   1.184 -0.1371 -0.0288  0.1896
   72MOL   C32548747   1.233   0.111   1.309 -0.8513  0.2775  0.1154
   72MOL   C32648748   1.375   0.129   1.317  0.4579  0.2642 -0.1297
   72MOL   C32748749   1.451   0.159   1.203  0.0460 -0.4159  0.3296
   72MOL   C32848750   1.480   0.261   0.738 -0.2324  0.6341 -0.5411
   72MOL   C32948751   1.450   0.357   0.646 -0.4964 -1.0352  0.3098
   72MOL   H33048752   1.384   0.751   0.372  0.9423  1.4445 -1.6547
   72MOL   H33148753   1.575   0.901   0.337 -0.4588 -0.0695 -0.0373
   72MOL   H33248754   1.719   0.837   0.731 -0.1683 -0.8551  1.0126
   72MOL   H33348755   1.531   0.668   0.770 -0.7960  0.6974 -0.7675
   72MOL   H33448756   1.295   0.583   0.852  0.3933  0.5319 -0.9071
   72MOL   H33548757   1.344   0.409   1.008 -0.2768 -2.8005 -0.7675
   72MOL   H33648758   1.196   0.142   0.968  1.9647 -1.7364 -1.5021
   72MOL   H33748759   1.064   0.094   1.182  0.1668 -2.3613  1.9727
   72MOL   H33848760   1.420   0.137   1.415  2.3474  1.0533 -1.0299
   72MOL   H33948761   1.558   0.161   1.216  0.1604  1.6378 -0.6776
   72MOL   H34048762   1.530   0.171   0.705 -0.2851 -0.1971  1.6319
   72MOL   H34148763   1.477   0.343   0.542  2.4279 -0.7953  0.9866
   72MOL   C34248764   0.934   0.345   1.539 -0.2217 -0.5176  0.6936
   72MOL   C34348765   0.983   0.242   1.458  0.4596  0.2210 -0.2222
   72MOL   C34448766   1.113   0.189   1.481 -0.1275 -0.1308  0.1269
   72MOL   O34548767   1.162   0.077   1.418  0.5250  0.2643 -0.2160
   72MOL   C34648768   1.198   0.246   1.577  0.3963 -0.0490  0.4095
   72MOL   C34748769   1.158   0.367   1.640  0.2163 -0.5733  0.6201
   72MOL   C34848770   1.021   0.414   1.627 -0.6562 -0.1985 -0.0083
   72MOL   C34948771   0.963   0.538   1.697 -0.6934 -0.5737  0.0600
   72MOL   O35048772   0.910   0.626   1.630  0.0849 -0.5223  0.4444
   72MOL   C35148773   0.990   0.561   1.841 -0.7287  0.4666  0.0009
   72MOL   C35248774   1.009   0.450   1.927 -0.2163  0.1039 -0.2892
   72MOL   C35348775   1.045   0.467   2.068  0.3084 -0.4265  0.5806
   72MOL   C35448776   1.072   0.594   2.114 -0.4119  0.0632 -0.2024
   72MOL   O35548777   1.129   0.614   2.241 -0.0821 -0.4130  0.0388
   72MOL   C35648778   1.057   0.610   2.357 -0.4502 -0.7359 -0.0425
   72MOL   C35748779   1.129   0.631   2.473 -0.3700 -0.3897 -0.1582
   72MOL   C35848780   1.068   0.634   2.600  0.5149 -0.4122  0.3663
   72MOL   C35948781   0.925   0.635   2.610 -0.4183  0.3558  0.5276
   72MOL   C36048782   0.850   0.601   2.491 -0.9213  0.5430 -0.5445
   72MOL   C36148783   0.915   0.596   2.368 -0.1015 -0.4712  0.2346
   72MOL   C36248784   1.047   0.706   2.031  0.2853 -0.3450  0.3525
   72MOL   C36348785   1.011   0.692   1.891  0.3810  0.4079 -0.1022
   72MOL   H36448786   0.835   0.378   1.509  0.5112  0.6181 -0.5479
   72MOL   H36548787   0.925   0.185   1.387 -1.9410  1.5335  0.6359
   72MOL   H36648788   1.297   0.208   1.600  0.1232 -0.7932  0.3648
   72MOL   H36748789   1.231   0.412   1.705  0.2642  0.7363 -0.3256
   72MOL   H36848790   1.002   0.347   1.894 -0.8152 -0.2050  0.7779
   72MOL   H36948791   1.052   0.382   2.134  1.3248 -0.1209  0.8796
   72MOL   H37048792   1.236   0.643   2.477 -0.1228 -1.9357 -1.4742
   72MOL   H37148793   1.137   0.647   2.682 -0.0367  1.0611  0.6154
   72MOL   H37248794   0.742   0.591   2.495 -1.0777  1.8716 -1.1154
   72MOL   H37348795   0.863   0.566   2.278 -2.0539  0.6615  0.9739
   72MOL   H37448796   1.063   0.807   2.065 -1.5084 -0.0772  0.4290
   72MOL   H37548797   1.014   0.774   1.822  0.4078  1.0992  0.7076
   72MOL   C37648798   0.497   0.637   2.742  0.3259  0.4047  0.0595
   72MOL   C37748799   0.628   0.597   2.751  0.9941  0.0355 -0.2396
   72MOL   C37848800   0.731   0.692   2.741  0.4163  0.2010  0.3592
   72MOL   O37948801   0.864   0.654   2.732  0.4684 -0.4095 -0.1333
   72MOL   C38048802   0.699   0.829   2.748  0.2942  0.2108  0.1340
   72MOL   C38148803   0.569   0.873   2.748 -0.5527  0.9127  0.7475
   72MOL   C38248804   0.464   0.773   2.746  0.5828  0.0893 -0.1517
   72MOL   C38348805   0.319   0.807   2.753 -0.1952  0.9908  1.1296
   72MOL   O38448806   0.238   0.740   2.823  0.0607  0.1835  0.7651
   72MOL   C38548807   0.268   0.912   2.667  0.2382  0.5277  0.6369
   72MOL   C38648808   0.146   0.971   2.701 -1.0466  0.0196 -0.2320
   72MOL   C38748809   0.092   1.076   2.621  0.8370 -0.9969 -0.4398
   72MOL   C38848810   0.153   1.117   2.501 -0.6678 -0.4932 -0.1776
   72MOL   O38948811   0.081   1.186   2.407  0.1079  0.3229 -0.1275
   72MOL   C39048812   0.141   1.296   2.350  0.0152  0.0630 -0.5423
   72MOL   C39148813   0.184   1.293   2.212  0.1412  1.0054  0.1760
   72MOL   C39248814   0.240   1.403   2.151 -0.3058  0.5315  0.1688
   72MOL   C39348815   0.250   1.523   2.222 -0.9667  0.4558 -1.0048
   72MOL   C39448816   0.204   1.531   2.357  0.0141  0.2279 -0.9924
   72MOL   C39548817   0.152   1.415   2.420  0.6745 -0.6308 -0.0566
   72MOL   C39648818   0.280   1.062   2.469 -0.8647 -0.0394 -0.3156
   72MOL   C39748819   0.335   0.958   2.550  0.1383  0.5648 -0.0376
   72MOL   H39848820   0.418   0.563   2.746  1.1601 -0.4201  1.8305
   72MOL   H39948821   0.653   0.492   2.744 -1.9673 -0.6997 -0.2811
   72MOL   H40048822   0.786   0.891   2.763  1.2678 -0.7999 -1.2384
   72MOL   H40148823   0.546   0.979   2.750 -0.5579  1.0340 -2.5082
   72MOL   H40248824   0.084   0.936   2.782 -1.2916  1.9368  0.4503
   72MOL   H40348825   8.304   1.101   2.649  0.9740 -0.9020 -0.0287
   72MOL   H40448826   0.159   1.200   2.163  1.8036 -0.2089  1.5899
   72MOL   H40548827   0.296   1.391   2.059  0.4590 -0.3002  0.7375
   72MOL   H40648828   0.198   1.624   2.413 -1.1723  0.2422 -1.1216
   72MOL   H40748829   0.112   1.437   2.518 -0.3312  0.9294 -0.7948
   72MOL   H40848830   0.329   1.079   2.374 -1.5681 -1.7031 -0.9926
   72MOL   H40948831   0.420   0.901   2.517  1.9404  1.9943  1.9845
   72MOL   C41048832   0.602   1.533   1.971  0.2253  0.4864 -0.4807
   72MOL   C41148833   0.504   1.529   2.071 -0.1411  0.1978  0.2807
   72MOL   C41248834   0.407   1.634   2.077 -0.5218  0.1597 -0.7768
   72MOL   O41348835   0.315   1.642   2.175  0.7210  0.0564  0.0741
   72MOL   C41448836   0.412   1.737   1.985  0.2830  0.3445 -0.1732
   72MOL   C41548837   0.515   1.744   1.887 -0.7996  0.1835 -0.5694
   72MOL   C41648838   0.612   1.643   1.879  0.0783  0.9520  0.1539
   72MOL   C41748839   0.734   1.652   1.784  0.3573  0.2224  0.3567
   72MOL   O41848840   0.731   1.723   1.688 -0.4196 -0.5895  0.0098
   72MOL   C41948841   0.848   1.575   1.819 -0.2233  0.5469  0.0241
   72MOL   C42048842   0.916   1.594   1.940 -0.2558  0.8545  0.8850
   72MOL   C42148843   1.030   1.513   1.971  0.5360  0.1465 -0.0277
   72MOL   C42248844   1.069   1.412   1.880  0.4094  0.2770  0.7173
   72MOL   O42348845   1.182   1.334   1.899 -0.1838  0.5505  0.4574
   72MOL   C42448846   1.161   1.230   1.990  0.8030  0.1602 -0.2258
   72MOL   C42548847   1.040   1.160   1.997  0.1815  0.4632 -0.2211
   72MOL   C42648848   1.030   1.049   2.089  0.5609 -0.6815  0.9374
   72MOL   C42748849   1.137   1.019   2.180  0.0706  0.1442 -0.4279
   72MOL   C42848850   1.261   1.092   2.170  0.3455  0.5450 -0.3906
   72MOL   C42948851   1.271   1.192   2.066  0.0125 -0.2296 -0.9082
   72MOL   C43048852   0.995   1.392   1.760 -0.6529 -0.3045  0.3797
   72MOL   C43148853   0.884   1.475   1.733 -0.2233 -0.0284 -0.2379
   72MOL   H43248854   0.684   1.463   1.967  0.2233  0.4240  0.6049
   72MOL   H43348855   0.503   1.457   2.152 -0.0124  1.5579  1.5150
   72MOL   H43448856   0.341   1.819   1.993  1.6519  1.4819  0.5598
   72MOL   H43548857   0.520   1.826   1.817 -0.3749  1.9051  1.4089
   72MOL   H43648858   0.885   1.664   2.016  0.3286 -0.8187  2.7128
   72MOL   H43748859   1.081   1.522   2.066  0.7109  1.1869 -0.2104
   72MOL   H43848860   0.954   1.185   1.935 -0.1299  0.5557  0.2459
   72MOL   H43948861   0.940   0.989   2.091 -0.0556  0.0917 -1.9093
   72MOL   H44048862   1.344   1.073   2.236  1.9276  0.9268 -2.2163
   72MOL   H44148863   1.365   1.234   2.037 -0.8430  0.8576 -2.1563
   72MOL   H44248864   1.003   1.300   1.704  2.8294 -0.6980  1.4060
   72MOL   H44348865   0.821   1.460   1.647 -0.0196  1.2839 -0.6340
   72MOL   C44448866   0.949   1.004   2.583 -0.0182  0.4717 -0.5864
   72MOL   C44548867   0.972   0.964   2.453  0.2330 -0.2352  0.0221
   72MOL   C44648868   1.099   0.956   2.405 -0.3498 -0.1431 -0.3231
   72MOL   O44748869   1.123   0.925   2.275  0.5339 -0.1918  0.1237
   72MOL   C44848870   1.202   0.986   2.488 -0.5984 -0.1775 -0.9209
   72MOL   C44948871   1.187   1.012   2.621 -0.3342  0.8294 -0.2497
   72MOL   C45048872   1.054   1.031   2.670 -0.1462 -0.2986  0.1140
   72MOL   C45148873   1.026   1.064   2.816 -0.1000  0.6442  0.1342
   72MOL   O45248874   0.942   1.147   2.850 -0.1037 -0.2825  0.3052
   72MOL   C45348875   1.101   0.981   2.914  0.4425  0.3469 -0.1367
   72MOL   C45448876   1.088   0.839   2.900 -0.3758  0.2605  0.1439
   72MOL   C45548877   1.172   0.756   2.974  0.1249  0.2176 -0.3563
   72MOL   C45648878   1.249   0.812   3.078 -0.0304  0.3656 -0.3366
   72MOL   O45748879   1.321   0.734   3.159  0.4783  0.4090 -0.0472
   72MOL   C45848880   1.389   0.624   3.114  0.6698 -0.1436  0.0201
   72MOL   C45948881   1.479   0.637   3.006 -0.0771  0.1458  0.0015
   72MOL   C46048882   1.548   0.530   2.948 -0.6654 -0.3333 -0.4210
   72MOL   C46148883   1.537   0.403   3.016  0.0702 -0.3852  0.4943
   72MOL   C46248884   1.438   0.391   3.116  0.3544  0.4656 -0.3857
   72MOL   C46348885   1.364   0.496   3.168  0.2111  0.0738 -0.5828
   72MOL   C46448886   1.232   0.946   3.111  0.3029  0.9521  0.6700
   72MOL   C46548887   1.168   1.030   3.020 -0.1604 -0.3687  0.0402
   72MOL   H46648888   0.848   1.019   2.619 -0.6331 -1.1127 -1.5897
   72MOL   H46748889   0.898   0.940   2.378 -0.9441 -0.8343  1.3553
   72MOL   H46848890   1.303   0.983   2.448 -0.6720 -1.1814 -1.0387
   72MOL   H46948891   1.260   1.014   2.701 -0.6383 -0.1836  0.0570
   72MOL   H47048892   1.033   0.799   2.816 -0.3983 -0.8527  0.6748
   72MOL   H47148893   1.180   0.650   2.958  0.3733  0.2653 -0.5544
   72MOL   H47248894   1.499   0.734   2.965  0.9214  0.3406  0.9221
   72MOL   H47348895   1.608   0.553   2.861  0.2647  1.3344  0.6196
   72MOL   H47448896   1.418   0.288   3.143  1.8324  0.5073  0.9158
   72MOL   H47548897   1.299   0.479   3.253  0.3162  0.1895 -0.4792
   72MOL   H47648898   1.286   0.997   3.189 -2.0690  1.5072  1.9906
   72MOL   H47748899   1.155   1.135   3.042 -3.0824 -0.6443 -0.1732
   72MOL   C47848900   1.861   0.338   2.735 -0.0355 -0.4049  0.3814
   72MOL   C47948901   1.782   0.355   2.846  0.6311 -0.1436  0.2971
   72MOL   C48048902   1.657   0.282   2.848 -0.1870 -0.7966 -1.0593
   72MOL   O48148903   1.591   0.291   2.968  0.0318  0.6047 -0.0709
   72MOL   C48248904   1.622   0.197   2.746  0.5362  0.0750  0.4360
   72MOL   C48348905   1.702   0.195   2.624 -0.1532  0.7592  0.6423
   72MOL   C48448906   1.828   0.257   2.625 -0.2664 -0.3468 -0.1172
   72MOL   C48548907   1.906   0.236   2.500  0.5609 -0.5231  1.1618
   72MOL   O48648908   1.930   0.125   2.457 -0.2641 -0.1498 -0.2647
   72MOL   C48748909   1.940   0.358   2.418 -0.0447  0.1940 -0.2973
   72MOL   C48848910   1.862   0.476   2.426 -0.3022  0.5432  0.7091
   72MOL   C48948911   1.887   0.587   2.343  0.3120  0.2436  0.4126
   72MOL   C49048912   2.002   0.582   2.262  0.0779 -0.0644  0.2493
   72MOL   O49148913   2.040   0.694   2.189  0.0154 -0.4003  0.3703
   72MOL   C49248914   1.996   0.714   2.056  0.9357 -0.2418  0.4754
   72MOL   C49348915   2.085   0.783   1.971  0.6046  0.2548 -0.1070
   72MOL   C49448916   2.043   0.802   1.839  0.4773  0.2347  0.0110
   72MOL   C49548917   1.908   0.773   1.799  0.2085 -0.2415  0.1044
   72MOL   C49648918   1.820   0.709   1.886  0.2378  0.4493  0.1795
   72MOL   C49748919   1.864   0.680   2.015  0.1634  0.2497 -0.3575
   72MOL   C49848920   2.080   0.470   2.250  0.7237  0.1900  0.0033
   72MOL   C49948921   2.052   0.355   2.329 -0.7518 -0.7477 -0.3762
   72MOL   H50048922   1.953   0.392   2.719 -0.8838  1.1066  0.5461
   72MOL   H50148923   1.823   0.422   2.921  1.6699 -0.3811 -0.0546
   72MOL   H50248924   1.524   0.153   2.747  0.5061  0.1019 -0.6514
   72MOL   H50348925   1.675   0.129   2.544  1.9328  1.5761 -0.7729
   72MOL   H50448926   1.777   0.475   2.491  1.4099  1.9702  3.0317
   72MOL   H50548927   1.825   0.675   2.347 -1.3441 -0.8047 -1.4989
   72MOL   H50648928   2.182   0.806   2.011 -0.1025  2.0961  0.6318
   72MOL   H50748929   2.104   0.843   1.760  1.6224  1.0150  1.2790
   72MOL   H50848930   1.714   0.696   1.868  0.1600  2.6845 -1.1937
   72MOL   H50948931   1.791   0.634   2.079  1.5546 -1.4270  0.0857
   72MOL   H51048932   2.168   0.467   2.187  1.1084  0.2038  0.5313
   72MOL   H51148933   2.111   0.266   2.311 -0.5505 -0.6000 -0.4392
   72MOL   C51248934   1.913   0.563   1.435  0.3003 -0.7455  0.2225
   72MOL   C51348935   1.941   0.676   1.515 -0.6602  1.0096 -0.4569
   72MOL   C51448936   1.833   0.734   1.585  0.2427  0.9598 -0.2994
   72MOL   O51548937   1.864   0.826   1.683 -0.3181 -0.2391  0.2574
   72MOL   C51648938   1.702   0.692   1.564  0.2055  0.2858  0.1335
   72MOL   C51748939   1.668   0.573   1.498  0.2267 -0.1350  0.3903
   72MOL   C51848940   1.776   0.509   1.432 -0.9512  0.7362  0.1864
   72MOL   C51948941   1.742   0.381   1.359  0.3231 -0.1703  0.1627
   72MOL   O52048942   1.667   0.288   1.399 -0.1969 -0.3257 -0.3254
   72MOL   C52148943   1.818   0.351   1.233  0.2437  0.0041  0.0762
   72MOL   C52248944   1.855   0.450   1.137 -0.6057  0.3869  1.1175
   72MOL   C52348945   1.930   0.411   1.025  0.7197  0.2202 -0.4169
   72MOL   C52448946   1.976   0.278   0.999 -0.2056 -0.0506  0.1055
   72MOL   O52548947   2.042   0.241   0.883  0.1429 -0.2033  0.8004
   72MOL   C52648948   2.128   0.138   0.882 -0.0653  0.1613 -0.1050
   72MOL   C52748949   2.218   0.116   0.987 -0.2037  0.5229 -0.4023
   72MOL   C52848950   2.324   0.026   0.973  0.0092 -0.3016 -0.0439
   72MOL   C52948951   2.339   8.260   0.855  0.3423  0.7244  0.5435
   72MOL   C53048952   2.243   8.274   0.747 -0.7316  0.4130  0.1195
   72MOL   C53148953   2.141   0.060   0.762  0.0431 -0.1999 -0.3810
   72MOL   C53248954   1.926   0.181   1.094 -0.4632 -0.0107 -0.8850
   72MOL   C53348955   1.854   0.215   1.209  0.7479  0.0667 -0.5109
   72MOL   H53448956   1.990   0.512   1.378  0.3714  0.8912 -1.1975
   72MOL   H53548957   2.041   0.718   1.521 -0.7745  1.2687 -0.3426
   72MOL   H53648958   1.618   0.734   1.616  0.0164  3.0442 -2.2748
   72MOL   H53748959   1.566   0.541   1.507 -0.0584  0.2429 -1.3357
   72MOL   H53848960   1.828   0.554   1.143 -1.4816  0.0908  2.6931
   72MOL   H53948961   1.960   0.494   0.963 -0.8752  0.6804 -0.5938
   72MOL   H54048962   2.222   0.180   1.074  1.6451  1.5313 -1.2104
   72MOL   H54148963   2.402   0.018   1.047 -2.8074 -1.0769  2.9336
   72MOL   H54248964   2.249   8.215   0.657 -0.2056 -0.3158  0.6318
   72MOL   H54348965   2.064   0.067   0.686  1.1500  0.5440 -1.4715
   72MOL   H54448966   1.965   0.082   1.080  2.6696  1.3572 -2.3014
   72MOL   H54548967   1.822   0.138   1.277  2.0242 -0.1483 -0.1312
   72MOL   C54648968   2.412   7.840   0.684  0.1386  0.4639 -0.0521
   72MOL   C54748969   2.392   7.945   0.780  0.4745 -0.3316 -0.3656
   72MOL   C54848970   2.453   8.068   0.768 -0.1680 -0.1833  0.2182
   72MOL   O54948971   2.446   8.171   0.857  0.1446 -0.1814 -0.3560
   72MOL   C55048972   2.525   8.094   0.650  0.4368  0.1335  0.5756
   72MOL   C55148973   2.559   7.995   0.559  0.4756 -0.0599 -0.7463
   72MOL   C55248974   2.498   7.868   0.577 -0.5173  0.3718 -0.1527
   72MOL   C55348975   2.502   7.761   0.466 -0.2832  0.2961  0.3356
   72MOL   O55448976   2.427   7.662   0.472 -0.7724 -0.5732  0.6931
   72MOL   C55548977   2.606   7.765   0.358 -0.6830 -0.3342 -0.0914
   72MOL   C55648978   2.570   7.744   0.224 -0.1713 -0.4961 -0.1679
   72MOL   C55748979   2.664   7.764   0.120 -0.0264  0.7394  0.2366
   72MOL   C55848980   2.789   7.812   0.145 -0.2036 -0.0826  0.3266
   72MOL   O55948981   2.883   7.836   0.049  0.9799  0.0895 -0.6142
   72MOL   C56048982   2.970   7.733   0.009  0.5284  0.1443  0.0853
   72MOL   C56148983   2.959   7.602   0.059  0.3460  0.2793  0.6488
   72MOL   C56248984   3.053   7.501   0.021 -0.1836  0.4724  0.2217
   72MOL   C56348985   3.159   7.533   8.251  0.2748  0.0739  0.2904
   72MOL   C56448986   3.177   7.664   8.204  0.5282 -0.4921  0.7093
   72MOL   C56548987   3.080   7.761   8.238  0.1732  0.6634 -0.5543
   72MOL   C56648988   2.824   7.839   0.281  0.5293  0.2133  0.6148
   72MOL   C56748989   2.737   7.812   0.384 -0.1792 -0.4545 -0.5315
   72MOL   H56848990   2.370   7.740   0.688 -0.3840  0.6556 -0.6676
   72MOL   H56948991   2.346   7.924   0.875  0.7015  1.4204  0.1444
   72MOL   H57048992   2.560   8.195   0.637  1.4523 -0.4851 -1.6926
   72MOL   H57148993   2.609   8.019   0.466 -2.0485  0.1572 -2.0678
   72MOL   H57248994   2.467   7.724   0.197  0.1498 -0.3579 -1.5014
   72MOL   H57348995   2.634   7.754   0.017 -1.6356 -0.2796  0.7782
   72MOL   H57448996   2.873   7.568   0.114  0.3721  1.9373  1.7615
   72MOL   H57548997   3.039   7.398   0.052  0.4818 -0.1163 -1.3821
   72MOL   H57648998   3.262   7.690   8.143  0.1334 -0.7727  0.0214
   72MOL   H57748999   3.088   7.864   8.206 -0.5520  1.2292  1.0409
   72MOL   H57849000   2.925   7.876   0.295  0.4692  0.0485  1.5189
   72MOL   H57949001   2.763   7.827   0.488 -2.5620  1.5002 -0.1617
   72MOL   C58049002   3.573   7.401   0.044 -0.8341  0.8569 -0.2057
   72MOL   C58149003   3.433   7.404   0.037 -0.0094  0.2474  0.7047
   72MOL   C58249004   3.372   7.437   8.226 -0.3639 -1.0410  0.3815
   72MOL   O58349005   3.234   7.435   8.199  0.3747  0.6389  0.0923
   72MOL   C58449006   3.457   7.494   8.124 -0.6248  1.0971 -0.2871
   72MOL   C58549007   3.596   7.499   8.138  0.5368 -0.4409 -0.8797
   72MOL   C58649008   3.655   7.446   8.250 -0.1915 -0.3033 -0.2320
   72MOL   C58749009   3.803   7.425   8.257 -0.6645  0.0481  0.6681
   72MOL   O58849010   3.853   7.339   0.018  0.3115  0.1119 -0.7219
   72MOL   C58949011   3.891   7.503   8.169 -0.2001  0.1722  0.4151
   72MOL   C59049012   3.931   7.634   8.207  0.2495 -0.5194 -0.3433
   72MOL   C59149013   4.033   7.702   8.135  0.3502 -0.0648  0.2862
   72MOL   C59249014   4.094   7.639   8.024  1.3431 -0.5606  0.4028
   72MOL   O59349015   4.202   7.697   7.961  0.2299 -0.2518 -0.0919
   72MOL   C59449016   4.278   7.795   8.021 -0.6400 -0.2374  0.2858
   72MOL   C59549017   4.288   7.917   7.951  0.5586 -0.6612  0.2288
   72MOL   C59649018   4.358   8.025   8.011  0.3249 -0.5131  0.2742
   72MOL   C59749019   4.432   8.002   8.130 -0.1439  0.1643  0.1111
   72MOL   C59849020   4.419   7.883   8.199 -0.2020  0.4317  0.6611
   72MOL   C59949021   4.338   7.781   8.148  0.1788  0.5961  0.3721
   72MOL   C60049022   4.054   7.506   7.993 -0.3687 -0.4753  0.0562
   72MOL   C60149023   3.959   7.435   8.065 -0.2362 -0.2436  0.1704
   72MOL   H60249024   3.615   7.346   0.127 -1.3703  0.9644  0.1411
   72MOL   H60349025   3.376   7.359   0.117  0.1062 -3.1665 -1.0677
   72MOL   H60449026   3.417   7.533   8.032  1.7546 -2.0115 -2.7399
   72MOL   H60549027   3.653   7.531   8.053  1.4129  2.7048  0.8140
   72MOL   H60649028   3.884   7.683   8.291 -1.6216 -0.4519 -1.4000
   72MOL   H60749029   4.076   7.790   8.178 -0.4701  0.7975 -0.6331
   72MOL   H60849030   4.238   7.910   7.855  2.1969  0.8451 -0.7593
   72MOL   H60949031   4.360   8.127   7.976  1.5448 -0.0871  1.5522
   72MOL   H61049032   4.475   7.866   8.289 -0.3762 -1.8668  0.3877
   72MOL   H61149033   4.333   7.685   8.197  0.2885 -0.1209 -0.9871
   72MOL   H61249034   4.104   7.450   7.915 -1.3841 -1.6644  0.2309
   72MOL   H61349035   3.940   7.331   8.042 -1.6219 -0.1670  0.9269
   72MOL   C61449036   4.808   8.253   8.057 -0.0666 -0.0272 -0.7808
   72MOL   C61549037   4.670   8.234   8.079 -0.1941  0.5477  0.5421
   72MOL   C61649038   4.631   8.138   8.171 -0.7015 -0.8133 -0.3387
   72MOL   O61749039   4.497   8.109   8.194  0.2040 -0.3949 -0.0760
   72MOL   C61849040   4.724   8.066   8.247  0.0386 -0.1111 -0.1491
   72MOL   C61949041   4.860   8.077   8.221 -0.0472 -0.2683 -0.1271
   72MOL   C62049042   4.901   8.172   8.118  0.2569  0.8150  0.3255
   72MOL   C62149043   5.046   8.181   8.089 -0.1140  0.1334  0.0481
   72MOL   O62249044   5.118   8.081   8.107 -0.2238 -0.0544  0.1442
   72MOL   C62349045   5.093   8.308   8.028 -1.2650  0.1776 -0.0666
   72MOL   C62449046   5.069   0.118   8.089 -0.0339  0.4163  0.1615
   72MOL   C62549047   5.089   0.239   8.021  0.7735  0.3604  0.0121
   72MOL   C62649048   5.142   0.242   7.887 -0.6049  0.8139  0.4042
   72MOL   O62749049   5.163   0.355   7.818 -0.9457  0.9270  0.0128
   72MOL   C62849050   5.063   0.407   7.735 -0.1668  0.7232  0.2596
   72MOL   C62949051   5.096   0.524   7.658 -0.3434 -0.7843 -0.3678
   72MOL   C63049052   4.994   0.579   7.579 -0.2432 -0.8485 -0.4944
   72MOL   C63149053   4.870   0.516   7.557  0.5443 -0.7645 -0.4789
   72MOL   C63249054   4.840   0.410   7.644  0.3106  0.0210 -0.1812
   72MOL   C63349055   4.934   0.352   7.730 -0.5573  0.1510 -0.3846
   72MOL   C63449056   5.164   0.115   7.830 -0.2917 -0.0023  0.5316
   72MOL   C63549057   5.152   8.305   7.901  0.7414  0.1355 -0.0098
   72MOL   H63649058   4.839   0.018   7.988 -0.0008  0.5703 -0.0847
   72MOL   H63749059   4.593   8.291   8.029  0.6419  3.1261  2.0701
   72MOL   H63849060   4.688   8.003   0.014 -2.6069  2.2561  0.6097
   72MOL   H63949061   4.931   8.019   8.278 -0.4002 -0.1278  0.4598
   72MOL   H64049062   5.018   0.126   8.184  0.3381 -1.6226  0.5583
   72MOL   H64149063   5.070   0.333   8.070 -0.2928  0.6243 -0.8772
   72MOL   H64249064   5.192   0.574   7.665 -1.4432  1.3194 -0.0906
   72MOL   H64349065   5.020   0.665   7.520 -1.0424 -0.1250  0.1974
   72MOL   H64449066   4.745   0.359   7.650  0.0806  0.7330  2.5317
   72MOL   H64549067   4.904   0.271   7.795  2.1205 -0.4919  0.1186
   72MOL   H64649068   5.203   0.111   7.729 -2.0497  1.1641 -0.2164
   72MOL   H64749069   5.165   8.211   7.850  2.3412  0.6487 -0.5613
   72MOL   C64849070   4.572   0.465   7.195 -0.2418 -0.8519  0.1763
   72MOL   C64949071   4.615   0.507   7.325  0.9057  0.1551  0.1548
   72MOL   C65049072   4.749   0.492   7.356 -0.5508  0.3857 -0.1195
   72MOL   O65149073   4.782   0.571   7.462 -0.0180 -0.3801 -0.5273
   72MOL   C65249074   4.845   0.434   7.271  0.0001 -0.6704 -0.3290
   72MOL   C65349075   4.799   0.380   7.147 -0.2878 -0.2602 -0.1580
   72MOL   C65449076   4.666   0.403   7.108 -0.0649  0.6250  0.3280
   72MOL   C65549077   4.617   0.354   6.975 -0.2164 -0.3146  0.0263
   72MOL   O65649078   4.549   0.426   6.900  0.7363 -0.2062  0.2329
   72MOL   C65749079   4.657   0.220   6.933 -0.0766 -0.3492  0.2355
   72MOL   C65849080   4.649   0.108   7.021  0.0649 -0.5540 -0.3165
   72MOL   C65949081   4.690   8.293   6.976 -0.2563  0.4256  0.8821
   72MOL   C66049082   4.722   8.269   6.839 -0.2826  0.6047 -0.5702
   72MOL   O66149083   4.766   8.149   6.800 -0.2527 -0.2134  0.2632
   72MOL   C66249084   4.877   8.084   6.859  0.5260 -0.8780  0.2065
   72MOL   C66349085   4.999   8.149   6.888  0.3088 -0.0671 -0.6937
   72MOL   C66449086   5.109   8.081   6.933 -0.6480 -0.4880 -0.2741
   72MOL   C66549087   5.105   7.941   6.947  0.0534 -0.4029 -0.8280
   72MOL   C66649088   4.983   7.868   6.924 -0.6752  0.3782 -0.5878
   72MOL   C66749089   4.869   7.942   6.879 -0.2514 -0.4469 -0.1673
   72MOL   C66849090   4.722   0.063   6.750 -0.5483 -0.2878  0.3275
   72MOL   C66949091   4.702   0.192   6.801  1.0108 -0.0708 -0.2153
   72MOL   H67049092   4.472   0.491   7.163  0.0201 -0.2740 -0.1916
   72MOL   H67149093   4.554   0.568   7.390  1.1716  2.4012 -1.6358
   72MOL   H67249094   4.951   0.428   7.289  0.3108  1.1867 -1.4183
   72MOL   H67349095   4.884   0.352   7.087 -1.0854  1.1961 -2.0330
   72MOL   H67449096   4.607   0.122   7.119 -0.5652  0.1908 -0.6848
   72MOL   H67549097   4.689   8.219   7.054 -0.1320 -0.5824 -0.0543
   72MOL   H67649098   5.016   8.255   6.879 -0.1881  0.2137  1.5480
   72MOL   H67749099   5.204   8.127   6.956 -0.6967  0.1859 -1.3602
   72MOL   H67849100   4.980   7.761   6.940  2.5816  0.1673 -0.9826
   72MOL   H67949101   4.778   7.889   6.854 -0.1205 -0.4956 -0.5329
   72MOL   H68049102   4.741   0.052   6.644  2.0336 -0.3975  0.7599
   72MOL   H68149103   4.706   0.271   6.728 -0.6553  0.1214 -0.1303
   72MOL   H68249104   5.193   7.886   6.979  0.3241 -0.2429 -1.2848
   73MOL     C149105   0.784   4.810   3.779 -0.2380  0.0710 -0.1573
   73MOL     C249106   0.835   4.744   3.895  0.3698  0.1785  0.1978
   73MOL     C349107   0.972   4.699   3.902  0.8609  0.3212 -0.5489
   73MOL     O449108   1.016   4.640   4.016  1.0144 -0.2921 -0.3312
   73MOL     C549109   1.052   4.728   3.788 -0.1080  0.0987 -0.5786
   73MOL     C649110   1.001   4.790   3.669  0.9499  0.4002  0.3726
   73MOL     C749111   0.868   4.841   3.673 -0.3644  0.4030  1.3173
   73MOL     C849112   0.819   4.916   3.552 -0.3378 -0.0105 -0.2387
   73MOL     O949113   0.903   4.966   3.476 -0.5253  0.4321  0.0993
   73MOL    C1049114   0.676   4.939   3.523 -0.2501  0.4855 -0.1760
   73MOL    C1149115   0.586   4.829   3.528 -0.1304 -0.7836 -0.0497
   73MOL    C1249116   0.453   4.842   3.479  0.1531 -0.3891  0.3913
   73MOL    C1349117   0.406   4.969   3.448 -0.2371  0.0036  0.7283
   73MOL    O1449118   0.282   4.991   3.396  0.0004 -0.2894  0.3119
   73MOL    C1549119   0.251   4.943   3.272  0.4905 -0.1248 -0.9821
   73MOL    C1649120   0.335   4.986   3.162  0.2849 -0.3660  0.1944
   73MOL    C1749121   0.305   4.939   3.036 -0.5940  0.1001 -0.8001
   73MOL    C1849122   0.210   4.842   3.021  0.2736 -0.1975  0.3270
   73MOL    C1949123   0.136   4.787   3.124  0.4663 -0.2743 -0.1060
   73MOL    C2049124   0.155   4.840   3.250  0.3183  0.6218 -0.6571
   73MOL    C2149125   0.493   5.081   3.451  0.2236  1.0509  0.1063
   73MOL    C2249126   0.629   5.065   3.482  0.1806  0.0174  0.0747
   73MOL    H2349127   0.682   4.844   3.788 -0.5276 -0.6159 -0.7398
   73MOL    H2449128   0.768   4.736   3.980 -0.6893 -0.2179 -0.6494
   73MOL    H2549129   1.153   4.691   3.784 -0.2273 -0.6347  2.0226
   73MOL    H2649130   1.067   4.809   3.586  1.4601  1.7307  1.0739
   73MOL    H2749131   0.621   4.728   3.546 -1.5682 -1.1087  1.0635
   73MOL    H2849132   0.381   4.762   3.482 -0.6014  0.2674 -0.0694
   73MOL    H2949133   0.418   5.053   3.177 -1.5061  2.0383 -0.2116
   73MOL    H3049134   0.360   4.963   2.947  1.0213  1.0793  0.4315
   73MOL    H3149135   0.057   4.716   3.103  0.0374  0.1092  0.2150
   73MOL    H3249136   0.083   4.806   3.323  0.7993 -3.3358 -1.8813
   73MOL    H3349137   0.458   5.181   3.428  1.0859  0.9677 -1.5889
   73MOL    H3449138   0.704   5.143   3.482  3.3465 -2.8972 -0.4760
   73MOL    H3549139   1.110   4.632   4.015  1.1456  1.1157 -1.6576
   73MOL    C3649140   0.048   5.057   2.669  0.1295  0.9429  0.6460
   73MOL    C3749141   0.130   4.995   2.765 -0.9707 -0.1632  0.0697
   73MOL    C3849142   0.115   4.857   2.796 -0.0484  0.0969  0.1823
   73MOL    O3949143   0.190   4.792   2.891  0.0039  0.0981  0.4086
   73MOL    C4049144   0.019   4.776   2.717 -0.0675  0.6715  0.5289
   73MOL    C4149145   8.272   4.838   2.608  0.0912  0.1451 -0.2340
   73MOL    C4249146   8.266   4.980   2.600  0.1744  0.5392  0.3715
   73MOL    C4349147   8.172   5.038   2.498  0.2961 -0.2198 -0.0020
   73MOL    O4449148   8.143   4.979   2.391 -0.3296 -0.2820  0.3362
   73MOL    C4549149   8.136   5.179   2.508 -0.7385  0.4654  0.1546
   73MOL    C4649150   8.132   5.264   2.398 -0.0898 -0.4506  0.3843
   73MOL    C4749151   8.099   5.397   2.412 -1.0337 -0.5505 -0.0408
   73MOL    C4849152   8.064   5.450   2.538  0.0018 -0.3832 -0.1066
   73MOL    O4949153   8.026   5.579   2.558  0.1432 -0.3990  0.2083
   73MOL    C5049154   7.896   5.612   2.538 -0.1013 -0.9836 -0.7253
   73MOL    C5149155   7.808   5.606   2.649  0.3444  0.0623  0.1641
   73MOL    C5249156   7.667   5.630   2.632  0.2187  0.5617 -0.1111
   73MOL    C5349157   7.620   5.665   2.507 -0.4556  0.1586  0.7099
   73MOL    C5449158   7.708   5.669   2.396  0.0157 -0.6907 -0.3263
   73MOL    C5549159   7.844   5.649   2.410 -0.3442  0.2736  0.8176
   73MOL    C5649160   8.060   5.365   2.653  0.3776  0.1975 -0.1393
   73MOL    C5749161   8.094   5.228   2.636 -0.3214  0.3837 -0.0969
   73MOL    H5849162   0.060   5.164   2.661 -0.5319  0.9657 -0.0582
   73MOL    H5949163   0.202   5.053   2.821 -1.8955  0.6140  0.4676
   73MOL    H6049164   0.014   4.672   2.744 -1.6494  0.7811  0.7297
   73MOL    H6149165   8.219   4.774   2.539  1.7013 -0.9605 -0.4880
   73MOL    H6249166   8.162   5.232   2.299  0.7633 -3.3640  1.5109
   73MOL    H6349167   8.108   5.457   2.323  2.5894 -1.6865 -0.5023
   73MOL    H6449168   7.851   5.565   2.739 -0.4780 -0.4224  0.3504
   73MOL    H6549169   7.607   5.622   2.721 -0.7322  0.5219 -0.7539
   73MOL    H6649170   7.659   5.698   2.304  0.1835  0.2908 -0.1145
   73MOL    H6749171   7.914   5.657   2.328 -0.9368  0.7172  0.3448
   73MOL    H6849172   8.028   5.419   2.741 -1.0957  0.9868 -1.1411
   73MOL    H6949173   8.071   5.170   2.724  0.1649  1.3649  0.6905
   73MOL    C7049174   7.337   5.358   2.485  0.8967 -0.0124 -0.5502
   73MOL    C7149175   7.404   5.470   2.432 -0.2423  0.0048 -0.3962
   73MOL    C7249176   7.405   5.588   2.512 -0.1968 -0.1995 -0.4614
   73MOL    O7349177   7.486   5.696   2.483  0.1670  0.0589  0.2365
   73MOL    C7449178   7.337   5.597   2.637 -0.2896 -0.1887 -0.0811
   73MOL    C7549179   7.262   5.488   2.681  0.6639  1.0402 -0.0358
   73MOL    C7649180   7.257   5.372   2.605  0.4262 -0.5135 -0.2967
   73MOL    C7749181   7.182   5.252   2.641  0.2760 -1.3826 -0.2113
   73MOL    O7849182   7.231   5.138   2.643  0.2696 -0.4148 -0.3159
   73MOL    C7949183   7.038   5.263   2.680 -0.6432 -0.3537 -0.5946
   73MOL    C8049184   6.963   5.383   2.667 -0.4355  0.0356  0.0377
   73MOL    C8149185   6.821   5.391   2.709  0.1246  0.2048 -0.1963
   73MOL    C8249186   6.763   5.279   2.759 -0.7296 -0.3429 -0.4290
   73MOL    O8349187   6.629   5.289   2.790  0.6305 -0.3128 -0.2586
   73MOL    C8449188   6.534   5.304   2.689  0.6773  0.2982  0.7324
   73MOL    C8549189   6.535   5.234   2.565  0.0850 -0.5485  0.0320
   73MOL    C8649190   6.446   5.257   2.464  0.3120 -0.3292  0.4065
   73MOL    C8749191   6.353   5.363   2.483 -0.2675 -0.5692  0.3224
   73MOL    C8849192   6.351   5.436   2.603  0.8115  0.7994 -0.2603
   73MOL    C8949193   6.441   5.407   2.709 -0.2890 -0.1477  0.4129
   73MOL    C9049194   6.835   5.161   2.782  0.2625 -0.0785  0.2308
   73MOL    C9149195   6.972   5.153   2.743 -0.5781  0.2057  0.6719
   73MOL    H9249196   7.342   5.271   2.421  0.0665  0.3982 -1.1954
   73MOL    H9349197   7.476   5.466   2.351 -0.6544  0.7680 -0.8020
   73MOL    H9449198   7.358   5.683   2.699  0.6550 -1.5518  1.5440
   73MOL    H9549199   7.220   5.490   2.780  1.9282  0.3321  0.5160
   73MOL    H9649200   7.009   5.464   2.614 -1.7172  1.2031  0.6700
   73MOL    H9749201   6.773   5.485   2.686 -2.4891 -1.4208 -1.5445
   73MOL    H9849202   6.616   5.165   2.550  1.3951  0.9012  0.3180
   73MOL    H9949203   6.447   5.205   2.370 -2.5737 -0.5331  0.4460
   73MOL   H10049204   6.286   5.521   2.619  1.1312  1.3377 -1.7056
   73MOL   H10149205   6.431   5.451   2.807 -1.5205 -0.3464  0.3959
   73MOL   H10249206   6.790   5.071   2.823 -1.2147  0.7391  0.4548
   73MOL   H10349207   7.028   5.062   2.761  0.5736  0.5166 -1.1854
   73MOL   C10449208   5.915   5.456   2.292 -0.3520  0.1698  0.4055
   73MOL   C10549209   6.053   5.483   2.320  0.0737  0.1480  0.1297
   73MOL   C10649210   6.145   5.387   2.369 -0.0521 -0.1483  0.0259
   73MOL   O10749211   6.276   5.420   2.382  0.3874  0.0995  0.7180
   73MOL   C10849212   6.094   5.258   2.395 -0.1318  0.0734  0.0655
   73MOL   C10949213   5.952   5.232   2.371 -0.5555 -0.0947 -0.5448
   73MOL   C11049214   5.870   5.330   2.323  0.1460 -0.3308 -0.2160
   73MOL   C11149215   5.726   5.303   2.300  0.9659 -0.5013 -0.7167
   73MOL   O11249216   5.682   5.326   2.189  0.4011  0.1680  0.5195
   73MOL   C11349217   5.642   5.247   2.412 -0.1901 -0.0578  0.9520
   73MOL   C11449218   5.690   5.211   2.543  0.6572 -0.3784 -0.5074
   73MOL   C11549219   5.599   5.153   2.635 -0.0138 -0.1996  0.7696
   73MOL   C11649220   5.462   5.143   2.612 -0.1106 -0.3298 -0.2073
   73MOL   O11749221   5.371   5.102   2.704 -0.1219  0.1202 -0.3769
   73MOL   C11849222   5.378   5.169   2.827  0.1812 -0.1513 -0.1793
   73MOL   C11949223   5.335   5.300   2.838  0.4994 -0.7565 -0.6602
   73MOL   C12049224   5.322   5.371   2.963 -0.2569 -0.1909 -0.5742
   73MOL   C12149225   5.350   5.299   3.082 -0.7581 -0.6049 -0.4997
   73MOL   C12249226   5.395   5.161   3.070  0.1632 -0.9089 -0.3399
   73MOL   C12349227   5.418   5.106   2.940  0.1346 -0.7033 -0.4318
   73MOL   C12449228   5.420   5.177   2.485 -0.0266 -0.5561 -0.6396
   73MOL   C12549229   5.503   5.225   2.386  0.0525  0.0434 -0.7796
   73MOL   H12649230   5.848   5.535   2.259  1.9658  1.6472 -0.9384
   73MOL   H12749231   6.097   5.580   2.301  0.4846  0.0547  0.5920
   73MOL   H12849232   6.168   5.183   2.418 -0.2138  0.2577  0.9908
   73MOL   H12949233   5.908   5.141   2.408  0.2621 -0.1211  0.3839
   73MOL   H13049234   5.793   5.227   2.571  1.0052 -0.9243 -1.4641
   73MOL   H13149235   5.636   5.117   2.729 -2.7711 -2.2002  1.1227
   73MOL   H13249236   5.316   5.352   2.745 -1.8737 -0.6890 -0.1563
   73MOL   H13349237   5.305   5.477   2.969  2.8420  0.3502 -0.3287
   73MOL   H13449238   5.417   5.116   3.166  0.1404  1.6434  0.9066
   73MOL   H13549239   5.444   5.001   2.936 -0.6361 -1.2631  5.3351
   73MOL   H13649240   5.315   5.170   2.459  0.0175  0.8759 -1.2254
   73MOL   H13749241   5.469   5.244   2.285  0.2868  2.4332 -0.4336
   73MOL   C13849242   5.435   5.690   3.330 -0.8214 -0.5888  0.1159
   73MOL   C13949243   5.456   5.561   3.282  0.1615 -0.4708 -0.3439
   73MOL   C14049244   5.347   5.491   3.226 -1.0220  0.5672  0.4625
   73MOL   O14149245   5.365   5.354   3.205  0.0310  0.0537  0.0629
   73MOL   C14249246   5.226   5.560   3.210  0.3615  0.3759  0.2976
   73MOL   C14349247   5.202   5.690   3.254  0.0915 -0.3564  0.0510
   73MOL   C14449248   5.308   5.753   3.325 -0.1604 -0.7768 -0.7243
   73MOL   C14549249   5.292   5.887   3.400 -0.2220  0.4495  1.1344
   73MOL   O14649250   5.390   5.929   3.451  0.1562 -0.1476  0.5213
   73MOL   C14749251   5.161   5.962   3.408 -0.7878  0.2643 -0.2330
   73MOL   C14849252   5.151   6.091   3.367 -0.2613 -0.1967 -0.0754
   73MOL   C14949253   5.027   6.167   3.378 -0.1203  0.3635 -0.0256
   73MOL   C15049254   4.918   6.107   3.437 -0.0969 -0.5200 -0.4442
   73MOL   O15149255   4.797   6.166   3.466 -0.4218  0.1453  0.4645
   73MOL   C15249256   4.762   6.287   3.406  0.2839  0.1512 -0.3053
   73MOL   C15349257   4.711   6.299   3.277 -0.5154 -0.0715  0.1651
   73MOL   C15449258   4.681   6.423   3.219  0.1276 -0.3838 -0.1800
   73MOL   C15549259   4.692   6.545   3.293  0.0473  0.2899  0.2792
   73MOL   C15649260   4.736   6.530   3.428 -0.5396 -0.2999  0.2571
   73MOL   C15749261   4.772   6.405   3.484  0.6244  0.3440  0.1892
   73MOL   C15849262   4.932   5.971   3.484 -0.1172  0.6247 -0.1984
   73MOL   C15949263   5.051   5.903   3.466 -0.2379  0.7584 -0.0756
   73MOL   H16049264   5.515   5.749   3.373 -0.5593 -1.1956  0.4580
   73MOL   H16149265   5.551   5.510   3.287 -0.0282 -0.8089 -0.1801
   73MOL   H16249266   5.148   5.497   3.169  0.6509 -0.6845  1.3580
   73MOL   H16349267   5.107   5.738   3.235  0.8094  1.8970  1.7673
   73MOL   H16449268   5.239   6.139   3.326 -0.3399  0.2152  0.2359
   73MOL   H16549269   5.012   6.266   3.339 -0.6179  0.0149 -0.7274
   73MOL   H16649270   4.702   6.206   3.222  1.8834  1.0966 -2.3374
   73MOL   H16749271   4.662   6.417   3.113 -1.1522 -0.2862  0.0407
   73MOL   H16849272   4.740   6.620   3.488  0.9274  1.2066 -1.9805
   73MOL   H16949273   4.806   6.401   3.587  1.6365  0.5260 -0.1291
   73MOL   H17049274   4.857   5.925   3.545  0.1634  1.8967  1.1425
   73MOL   H17149275   5.059   5.800   3.499 -1.5815  1.6709  3.2002
   73MOL   C17249276   4.357   6.686   3.061  0.3124 -0.5097 -0.3066
   73MOL   C17349277   4.481   6.644   3.098 -0.0371  0.1085  0.8188
   73MOL   C17449278   4.544   6.704   3.211  0.2650 -0.6321 -0.3067
   73MOL   O17549279   4.671   6.668   3.251 -0.2653 -0.4292  0.6618
   73MOL   C17649280   4.476   6.807   3.278  0.3477 -0.6945  0.5669
   73MOL   C17749281   4.352   6.859   3.229  0.2404  0.5372 -0.0631
   73MOL   C17849282   4.292   6.797   3.121  0.6949  0.4122  0.0779
   73MOL   C17949283   4.166   6.844   3.063  0.0420 -0.0987  0.0429
   73MOL   O18049284   4.145   6.833   2.944 -0.5575  0.3907  0.0763
   73MOL   C18149285   4.071   6.889   3.154  0.3282 -0.9007  0.4532
   73MOL   C18249286   4.025   7.021   3.147  0.2109  0.1519 -0.5179
   73MOL   C18349287   3.942   7.067   3.244  0.1419 -0.1493 -0.3769
   73MOL   C18449288   3.904   6.987   3.354 -0.1507 -0.1519 -0.0514
   73MOL   O18549289   3.817   7.042   3.444  0.6900  0.3487  0.1408
   73MOL   C18649290   3.821   7.015   3.578  0.2312  0.4109 -1.1720
   73MOL   C18749291   3.944   7.010   3.650 -0.2009 -0.1056  0.5618
   73MOL   C18849292   3.946   6.990   3.789  0.2465 -0.3350  0.0983
   73MOL   C18949293   3.824   6.977   3.861  0.4077 -0.3210  0.0331
   73MOL   C19049294   3.702   6.982   3.792  0.2111  0.1796 -0.0843
   73MOL   C19149295   3.699   7.000   3.652 -0.3407 -0.6394  0.6269
   73MOL   C19249296   3.950   6.850   3.362 -0.0174  0.6315  0.3150
   73MOL   C19349297   4.044   6.798   3.262  0.4737 -0.1169 -0.3048
   73MOL   H19449298   4.314   6.639   2.973 -2.5551  1.5855 -0.0842
   73MOL   H19549299   4.530   6.562   3.047 -0.7607  0.8324 -1.0829
   73MOL   H19649300   4.523   6.855   3.362  0.9539 -1.9872  0.9867
   73MOL   H19749301   4.315   6.954   3.264 -0.8148  0.6526 -1.4646
   73MOL   H19849302   4.071   7.089   3.077  2.0320  0.3517  0.8537
   73MOL   H19949303   3.914   7.171   3.230 -3.4301 -1.4708 -4.3685
   73MOL   H20049304   4.041   7.031   3.607 -0.2168  0.3861  0.7602
   73MOL   H20149305   4.038   6.990   3.845  1.6178 -0.5122 -2.1407
   73MOL   H20249306   3.612   6.956   3.846  1.6149 -1.5803  1.5159
   73MOL   H20349307   3.607   7.003   3.595 -1.0504  1.1650  1.8221
   73MOL   H20449308   3.920   6.787   3.445  2.3626 -2.5796 -1.1460
   73MOL   H20549309   4.087   6.701   3.281  0.3212  0.2098  1.8694
   73MOL   C20649310   3.805   6.581   4.034  0.8754  0.5897 -0.2996
   73MOL   C20749311   3.764   6.712   4.006  0.6037  0.5511  0.7166
   73MOL   C20849312   3.857   6.815   4.019 -0.6648  0.9696  0.6769
   73MOL   O20949313   3.826   6.947   3.993  0.2667  1.1132  0.7058
   73MOL   C21049314   3.984   6.788   4.071 -0.2411  0.3879 -0.1793
   73MOL   C21149315   4.025   6.655   4.090  0.1205  0.1985 -0.8721
   73MOL   C21249316   3.938   6.550   4.066  0.1983 -0.3153 -0.0979
   73MOL   C21349317   3.986   6.409   4.082  0.3224 -0.7720 -0.4092
   73MOL   O21449318   4.050   6.376   4.182  0.0078  0.3214 -0.0709
   73MOL   C21549319   3.958   6.317   3.968 -0.0885 -0.1379 -0.7342
   73MOL   C21649320   3.953   6.371   3.839  0.0255 -0.2307  0.4856
   73MOL   C21749321   3.923   6.287   3.733  0.5243 -0.3022  0.0772
   73MOL   C21849322   3.892   6.154   3.751 -0.0150 -0.2014  0.4041
   73MOL   O21949323   3.886   6.073   3.641  0.2614 -0.1309 -0.1504
   73MOL   C22049324   3.818   5.954   3.640 -0.3265 -0.0580 -0.1490
   73MOL   C22149325   3.679   5.951   3.649 -0.2424 -0.0724 -0.1806
   73MOL   C22249326   3.610   5.824   3.644  0.0755  0.4296  0.3875
   73MOL   C22349327   3.682   5.701   3.646 -0.5014 -0.0146 -0.3258
   73MOL   C22449328   3.828   5.707   3.641  0.5276  0.2272 -0.3602
   73MOL   C22549329   3.890   5.835   3.642  0.1370 -0.7837 -0.4266
   73MOL   C22649330   3.897   6.096   3.879 -0.4804 -0.3552 -0.0295
   73MOL   C22749331   3.926   6.181   3.990  0.2463 -0.0619  0.5125
   73MOL   H22849332   3.729   6.506   4.019 -1.5938  3.0944 -0.8190
   73MOL   H22949333   3.662   6.728   3.975  1.6261  0.4378 -2.9451
   73MOL   H23049334   4.065   6.858   4.083 -1.1341  1.2676  0.7826
   73MOL   H23149335   4.124   6.641   4.132 -0.3725 -0.5970  0.0485
   73MOL   H23249336   3.972   6.475   3.820 -2.2126  0.4961  2.0232
   73MOL   H23349337   3.921   6.321   3.631  0.3687 -1.6755 -0.3867
   73MOL   H23449338   3.626   6.045   3.646  2.0520  1.2100 -2.4342
   73MOL   H23549339   3.502   5.824   3.641  0.0948  0.9086 -0.7465
   73MOL   H23649340   3.885   5.616   3.651  1.5432  0.7808 -1.0211
   73MOL   H23749341   3.997   5.828   3.630 -0.1133 -1.9885 -2.1929
   73MOL   H23849342   3.893   5.989   3.893 -0.6011 -0.4963 -1.1282
   73MOL   H23949343   3.916   6.144   4.091 -0.8227 -0.2177  0.3594
   73MOL   C24049344   3.277   5.466   3.601  0.5144 -0.5182 -0.0961
   73MOL   C24149345   3.401   5.482   3.665  0.2593 -0.2905 -0.6012
   73MOL   C24249346   3.499   5.559   3.600  0.0066 -0.2785 -0.0845
   73MOL   O24349347   3.626   5.577   3.652 -0.4369  0.1947  0.3797
   73MOL   C24449348   3.480   5.605   3.469 -0.2635  0.6468 -0.2471
   73MOL   C24549349   3.360   5.586   3.405 -0.2011  0.3131  0.2188
   73MOL   C24649350   3.253   5.529   3.475  0.8718  0.5266 -0.5697
   73MOL   C24749351   3.114   5.520   3.416 -0.2990  0.2482  0.5197
   73MOL   O24849352   3.032   5.437   3.450 -0.4224 -0.2002 -0.1018
   73MOL   C24949353   3.082   5.608   3.304 -0.4062 -0.1568  0.0460
   73MOL   C25049354   2.996   5.564   3.202  0.1436  0.3627  0.1307
   73MOL   C25149355   2.940   5.654   3.103  0.2168  0.0588 -0.1160
   73MOL   C25249356   2.990   5.786   3.097 -0.5406 -0.8922  0.3346
   73MOL   O25349357   2.944   5.881   3.005 -0.2009  0.3309 -0.3153
   73MOL   C25449358   2.911   5.847   2.875 -0.0562  0.8024  0.2397
   73MOL   C25549359   2.975   5.745   2.801 -0.9435  0.1296  0.0492
   73MOL   C25649360   2.938   5.720   2.664 -0.1525  0.3657  0.7315
   73MOL   C25749361   2.831   5.794   2.606 -0.1287  0.0720  0.5004
   73MOL   C25849362   2.755   5.883   2.691  0.1596  0.2681  0.2184
   73MOL   C25949363   2.805   5.915   2.823 -0.1026  0.2991  0.2957
   73MOL   C26049364   3.085   5.833   3.201  0.3486  0.5226 -0.5494
   73MOL   C26149365   3.126   5.744   3.304 -0.6319  0.7471 -0.2576
   73MOL   H26249366   3.198   5.417   3.655  0.0836 -0.8734 -1.0356
   73MOL   H26349367   3.405   5.452   3.769  1.8493  0.2308 -0.4927
   73MOL   H26449368   3.564   5.648   3.417 -0.1548  0.0931 -0.5398
   73MOL   H26549369   3.363   5.633   3.308 -0.7408  1.1038  0.5691
   73MOL   H26649370   2.966   5.460   3.209 -2.0593  1.1085  2.9678
   73MOL   H26749371   2.880   5.615   3.022  0.9653  1.3004 -1.2737
   73MOL   H26849372   3.060   5.687   2.833 -0.1800  0.2296 -1.7148
   73MOL   H26949373   2.992   5.650   2.602 -2.2239 -1.5901  1.0616
   73MOL   H27049374   2.655   5.914   2.668 -1.2409 -2.5497  2.1693
   73MOL   H27149375   2.752   5.991   2.879 -1.0982 -1.5811  1.9865
   73MOL   H27249376   3.134   5.930   3.199 -0.5456  1.0177  0.7134
   73MOL   H27349377   3.185   5.785   3.384 -0.5233  0.4524 -0.1868
   73MOL   C27449378   2.511   5.533   2.490  0.3279 -1.0036  0.6204
   73MOL   C27549379   2.639   5.589   2.502  0.7207  0.2114 -0.6146
   73MOL   C27649380   2.671   5.720   2.449 -0.3393  0.9152  0.0774
   73MOL   O27749381   2.797   5.777   2.469  0.4399 -0.1401 -0.1807
   73MOL   C27849382   2.570   5.798   2.387 -0.8509  0.4331  0.3278
   73MOL   C27949383   2.442   5.744   2.368 -0.2153  0.6550 -0.1590
   73MOL   C28049384   2.411   5.617   2.422  0.5262  0.5080 -0.0705
   73MOL   C28149385   2.272   5.570   2.420  0.2200 -0.3176 -1.0418
   73MOL   O28249386   2.203   5.551   2.320  0.3040  0.0912 -0.2651
   73MOL   C28349387   2.212   5.543   2.555 -0.4954  0.1017  0.5028
   73MOL   C28449388   2.264   5.593   2.676  0.0359 -0.0613  0.5103
   73MOL   C28549389   2.196   5.574   2.794  0.1254 -0.1475 -0.3019
   73MOL   C28649390   2.069   5.507   2.794 -0.2562  1.0432  0.6244
   73MOL   O28749391   1.986   5.498   2.903  0.9141 -0.4022 -0.3233
   73MOL   C28849392   1.929   5.617   2.935 -0.0148  0.3511 -0.3801
   73MOL   C28949393   1.824   5.682   2.866  0.0386  0.1732  0.3730
   73MOL   C29049394   1.769   5.791   2.924  0.3094  0.3316 -0.1884
   73MOL   C29149395   1.807   5.845   3.046  0.2904 -0.1768 -0.0327
   73MOL   C29249396   1.916   5.788   3.112 -0.0856  0.0763 -0.2888
   73MOL   C29349397   1.965   5.666   3.060 -0.3275 -0.1463 -0.2431
   73MOL   C29449398   2.021   5.457   2.673 -0.1803 -0.4703  0.3619
   73MOL   C29549399   2.093   5.469   2.557  0.1185 -0.5452  0.1596
   73MOL   H29649400   2.490   5.435   2.530 -2.5944 -0.7613 -0.2037
   73MOL   H29749401   2.724   5.539   2.544  0.3523  0.1558  0.0770
   73MOL   H29849402   2.596   5.891   2.337  1.7250 -0.0744  0.6431
   73MOL   H29949403   2.365   5.805   2.323 -1.5198  0.6876  2.0578
   73MOL   H30049404   2.357   5.647   2.668 -0.1803  0.4152  1.1964
   73MOL   H30149405   2.222   5.612   2.892 -1.2991 -2.6934  1.1386
   73MOL   H30249406   1.794   5.650   2.767  0.2008 -1.8876  0.9568
   73MOL   H30349407   1.691   5.834   2.864 -0.4051 -0.5006  0.1297
   73MOL   H30449408   1.958   5.820   3.206  0.2270  0.8074 -0.6758
   73MOL   H30549409   2.043   5.613   3.113 -0.4329  0.8108  0.9000
   73MOL   H30649410   1.927   5.403   2.665 -1.2022  1.2082  0.6965
   73MOL   H30749411   2.057   5.430   2.463 -1.5529  0.4996  0.3370
   73MOL   C30849412   1.849   6.244   2.894 -0.0629 -0.8835 -0.1280
   73MOL   C30949413   1.769   6.139   2.941 -0.2716  0.9518  0.0080
   73MOL   C31049414   1.805   6.077   3.062 -0.5348  0.1266 -0.3871
   73MOL   O31149415   1.743   5.955   3.099 -0.7406 -0.5262 -0.2724
   73MOL   C31249416   1.911   6.129   3.140  0.3032 -0.1162  0.5735
   73MOL   C31349417   1.976   6.250   3.104  0.1534  0.4647  0.2953
   73MOL   C31449418   1.952   6.300   2.976  0.2948  0.3750  0.8956
   73MOL   C31549419   2.023   6.419   2.925  0.2533  0.2791  0.4315
   73MOL   O31649420   2.069   6.426   2.811 -0.1304  0.4171 -0.2192
   73MOL   C31749421   2.068   6.528   3.016  0.0237  1.2900  0.2374
   73MOL   C31849422   2.008   6.549   3.137  0.3025 -0.2596  0.2164
   73MOL   C31949423   2.056   6.648   3.227  0.1454  0.0620 -0.4104
   73MOL   C32049424   2.161   6.732   3.197  0.6837  0.6313 -0.9037
   73MOL   O32149425   2.201   6.829   3.289 -0.0943 -0.1084  0.4650
   73MOL   C32249426   2.155   6.826   3.416  0.1624 -0.1718 -0.0559
   73MOL   C32349427   2.181   6.725   3.505 -0.3627 -0.0658 -0.1491
   73MOL   C32449428   2.147   6.723   3.639  0.1278 -0.0730 -0.1282
   73MOL   C32549429   2.064   6.831   3.683  0.7579 -0.0569  0.8666
   73MOL   C32649430   2.029   6.940   3.597 -0.5211  0.1064 -0.3122
   73MOL   C32749431   2.075   6.934   3.467 -0.2130  1.1404  0.8849
   73MOL   C32849432   2.225   6.717   3.075  0.7577 -0.4170  0.1675
   73MOL   C32949433   2.176   6.616   2.986 -0.1939  0.4839 -0.5036
   73MOL   H33049434   1.852   6.281   2.792 -2.3737 -1.3677 -0.4044
   73MOL   H33149435   1.690   6.097   2.882  0.4074 -1.6924  0.9420
   73MOL   H33249436   1.929   6.081   3.235  2.8661 -2.1173 -0.8527
   73MOL   H33349437   2.046   6.294   3.174  0.8397  1.7012 -1.1454
   73MOL   H33449438   1.921   6.490   3.165 -1.8580  2.1115 -1.2904
   73MOL   H33549439   2.013   6.651   3.326 -1.2975  0.1259 -1.0240
   73MOL   H33649440   2.251   6.647   3.476 -2.1836 -0.7338 -2.9858
   73MOL   H33749441   2.166   6.641   3.706 -0.3426  1.5860  2.1038
   73MOL   H33849442   1.973   7.026   3.632 -0.8416  0.0705 -0.7235
   73MOL   H33949443   2.049   7.017   3.404  2.0410  2.5810  1.8079
   73MOL   H34049444   2.312   6.778   3.054 -2.0036  2.8317 -2.2995
   73MOL   H34149445   2.228   6.586   2.896 -1.9057 -1.1095 -0.9817
   73MOL   C34249446   1.668   6.682   3.748 -0.2661 -0.0690 -0.0993
   73MOL   C34349447   1.809   6.696   3.753  0.5969 -0.7219  0.6576
   73MOL   C34449448   1.873   6.806   3.817  0.1354  0.7226 -0.5070
   73MOL   O34549449   2.005   6.831   3.807 -0.0787 -0.2969 -0.5128
   73MOL   C34649450   1.782   6.894   3.886 -0.4070 -0.8758  0.8470
   73MOL   C34749451   1.645   6.877   3.886  0.5736 -0.7078  0.3630
   73MOL   C34849452   1.587   6.771   3.812  0.3133  0.3844 -0.5020
   73MOL   C34949453   1.439   6.738   3.821 -0.2462  0.0033 -0.2014
   73MOL   O35049454   1.370   6.739   3.923  0.1551 -0.3047 -0.9596
   73MOL   C35149455   1.363   6.742   3.689 -0.0741  1.4340  0.2109
   73MOL   C35249456   1.421   6.784   3.567 -0.3596  0.6176 -0.0503
   73MOL   C35349457   1.343   6.796   3.451  0.8235  0.0216 -0.6022
   73MOL   C35449458   1.201   6.778   3.454 -0.5074 -0.2432  0.3429
   73MOL   O35549459   1.121   6.807   3.350 -0.4634  0.3900 -0.0974
   73MOL   C35649460   1.038   6.700   3.312  0.1926 -0.7845  0.4910
   73MOL   C35749461   0.902   6.706   3.332  0.1504 -0.3357  1.2072
   73MOL   C35849462   0.828   6.596   3.308  0.0681  0.0842  0.5271
   73MOL   C35949463   0.883   6.477   3.253  0.4181 -0.0413 -0.3159
   73MOL   C36049464   1.020   6.478   3.215  0.0778  0.1831  0.4663
   73MOL   C36149465   1.097   6.593   3.247 -0.0500 -0.4736  0.3337
   73MOL   C36249466   1.143   6.732   3.575  0.3700  0.9284 -0.5624
   73MOL   C36349467   1.220   6.713   3.691 -0.9230 -0.1633  0.0045
   73MOL   H36449468   1.621   6.606   3.686  1.1243 -0.4652 -0.7080
   73MOL   H36549469   1.866   6.627   3.694  0.1084  0.9544 -1.8783
   73MOL   H36649470   1.812   6.975   3.950 -1.9097  0.0580  0.4009
   73MOL   H36749471   1.581   6.951   3.931 -1.1329 -1.4121 -0.8715
   73MOL   H36849472   1.524   6.817   3.568  0.2529 -1.1986 -0.3034
   73MOL   H36949473   1.380   6.831   3.356 -1.5725 -0.1487 -1.6389
   73MOL   H37049474   0.864   6.798   3.375 -1.1420 -0.3358  0.0908
   73MOL   H37149475   0.721   6.610   3.315  0.2814  2.2162 -0.2309
   73MOL   H37249476   1.058   6.387   3.170  0.1510  0.4462 -0.0080
   73MOL   H37349477   1.204   6.592   3.233 -0.1854 -2.1283 -0.8676
   73MOL   H37449478   1.037   6.713   3.581  0.6360 -0.8490 -1.2338
   73MOL   H37549479   1.186   6.661   3.779 -0.3910 -0.5260  0.0040
   73MOL   C37649480   0.889   6.147   3.540 -0.8414  0.6867  0.4298
   73MOL   C37749481   0.882   6.268   3.459  0.1551 -0.4335 -0.5255
   73MOL   C37849482   0.806   6.262   3.336  0.0788 -0.4585  0.6675
   73MOL   O37949483   0.802   6.367   3.247 -1.0791 -0.0618  0.4152
   73MOL   C38049484   0.746   6.142   3.298 -0.2232  0.2675 -0.5705
   73MOL   C38149485   0.762   6.021   3.373  0.2041 -0.1070  0.1860
   73MOL   C38249486   0.830   6.027   3.491 -0.4768 -0.1175  0.2613
   73MOL   C38349487   0.827   5.909   3.572  0.5857  0.5071  0.5262
   73MOL   O38449488   0.827   5.797   3.525  0.6359  0.2555  0.3476
   73MOL   C38549489   0.822   5.922   3.719  0.0219  0.2514 -0.2801
   73MOL   C38649490   0.722   5.999   3.782 -0.2563  1.0418 -0.0297
   73MOL   C38749491   0.705   5.989   3.923  0.1642  0.6225  0.0328
   73MOL   C38849492   0.795   5.916   4.003 -0.5851  0.6651  0.4031
   73MOL   O38949493   0.783   5.904   4.141  0.0351 -0.4518  0.6439
   73MOL   C39049494   0.856   5.993   4.214 -0.6021 -0.2788 -0.1482
   73MOL   C39149495   0.945   5.942   4.311  0.0793  0.9952 -0.1493
   73MOL   C39249496   1.028   6.027   4.378  0.4024 -0.3812  0.4564
   73MOL   C39349497   1.010   6.164   4.373  0.6225 -0.8046 -0.6192
   73MOL   C39449498   0.927   6.218   4.279 -0.0241 -0.3254 -0.4024
   73MOL   C39549499   0.853   6.137   4.192  0.6912  0.4704 -0.1678
   73MOL   C39649500   0.907   5.852   3.941 -0.2174 -0.2611  0.2025
   73MOL   C39749501   0.917   5.860   3.795 -0.4178  0.4347  0.3895
   73MOL   H39849502   0.935   6.163   3.636 -0.4828 -0.0355  0.3825
   73MOL   H39949503   0.926   6.364   3.482 -0.2931  0.2261 -2.3661
   73MOL   H40049504   0.692   6.151   3.205  1.4926 -0.4632 -1.6827
   73MOL   H40149505   0.723   5.927   3.337 -1.5000  1.3673 -1.9721
   73MOL   H40249506   0.648   6.053   3.726  0.2521  0.3614 -1.3811
   73MOL   H40349507   0.624   6.042   3.972 -0.5218  0.6132 -1.0795
   73MOL   H40449508   0.961   5.835   4.322  0.9757  1.1430  0.0367
   73MOL   H40549509   1.100   5.985   4.447  0.8144 -0.6836 -0.1550
   73MOL   H40649510   0.912   6.325   4.270  1.6851  0.0353  0.8370
   73MOL   H40749511   0.785   6.177   4.118 -0.6721  0.4844  1.0602
   73MOL   H40849512   0.979   5.786   3.986  0.8030  1.3888  1.0634
   73MOL   H40949513   0.999   5.817   3.738 -0.1261  0.1815  1.0033
   73MOL   C41049514   1.449   6.231   4.516 -0.0025 -0.2202 -0.2430
   73MOL   C41149515   1.310   6.232   4.531  0.2403 -1.1285  0.0732
   73MOL   C41249516   1.221   6.249   4.423 -0.1592  0.8635 -0.4597
   73MOL   O41349517   1.093   6.238   4.452 -0.6304  0.0722 -0.1757
   73MOL   C41449518   1.280   6.250   4.292  0.2330  0.2742  0.5663
   73MOL   C41549519   1.417   6.242   4.272 -0.1083 -0.6670 -0.0548
   73MOL   C41649520   1.499   6.237   4.385  0.5992  0.0085  0.1374
   73MOL   C41749521   1.649   6.229   4.377  0.5419 -0.4438 -0.6846
   73MOL   O41849522   1.716   6.289   4.450 -0.8514 -0.1008  0.4283
   73MOL   C41949523   1.703   6.132   4.278 -0.1846  0.3931  0.5737
   73MOL   C42049524   1.624   6.024   4.224 -0.5772  0.0011  0.3965
   73MOL   C42149525   1.672   5.945   4.121 -0.3994  0.1757 -0.0639
   73MOL   C42249526   1.804   5.956   4.074 -0.9610 -0.2926  0.5109
   73MOL   O42349527   1.859   5.874   3.975 -0.2511  0.1532 -0.1265
   73MOL   C42449528   1.855   5.734   3.996  0.3644  0.4297 -0.2800
   73MOL   C42549529   1.814   5.645   3.899  0.4131 -0.1579 -0.2111
   73MOL   C42649530   1.797   5.510   3.925  0.9207  0.0384  0.2189
   73MOL   C42749531   1.813   5.466   4.055  0.0154 -0.3035 -0.4296
   73MOL   C42849532   1.875   5.544   4.154 -0.1378 -0.2749 -0.5110
   73MOL   C42949533   1.889   5.681   4.125  0.1544  0.0126 -0.1493
   73MOL   C43049534   1.890   6.057   4.129 -0.4567 -0.5227  0.4508
   73MOL   C43149535   1.834   6.148   4.229  0.3502 -0.2658 -0.1636
   73MOL   H43249536   1.512   6.230   4.604  1.4647  3.8959 -1.1039
   73MOL   H43349537   1.265   6.250   4.628  0.9639 -0.7542  0.3428
   73MOL   H43449538   1.215   6.244   4.206 -0.8587  0.2564  1.3778
   73MOL   H43549539   1.455   6.235   4.171 -0.7715  4.6612 -0.8481
   73MOL   H43649540   1.529   6.001   4.271 -0.7330  0.7039  0.4437
   73MOL   H43749541   1.605   5.864   4.095 -1.2246  1.0591 -0.6907
   73MOL   H43849542   1.782   5.677   3.801 -1.8931 -0.9118  0.2649
   73MOL   H43949543   1.765   5.444   3.845 -1.7247  0.8692  0.5511
   73MOL   H44049544   1.897   5.509   4.253 -2.0473  0.2090  0.1020
   73MOL   H44149545   1.923   5.748   4.202 -1.4416 -0.0666  0.6463
   73MOL   H44249546   1.991   6.078   4.097 -1.9524  2.0234 -2.8916
   73MOL   H44349547   1.888   6.235   4.263 -0.0143 -0.4734  0.9940
   73MOL   C44449548   1.811   5.114   4.365 -0.2801  0.5604 -0.0307
   73MOL   C44549549   1.754   5.197   4.274  0.0073  0.3091 -0.9306
   73MOL   C44649550   1.829   5.257   4.173  0.2326 -0.5283  0.2607
   73MOL   O44749551   1.759   5.338   4.082 -0.3686  0.1123  0.0801
   73MOL   C44849552   1.972   5.232   4.168 -0.4513 -0.0471 -0.1278
   73MOL   C44949553   2.033   5.149   4.264  1.2877 -0.1222 -0.4658
   73MOL   C45049554   1.954   5.082   4.362  0.2195  0.1893 -1.1845
   73MOL   C45149555   2.020   4.989   4.450  0.6998  0.7724 -0.0231
   73MOL   O45249556   2.113   5.022   4.525  0.6293 -0.1455  0.0090
   73MOL   C45349557   1.983   4.851   4.445 -0.4272  0.2931 -0.2057
   73MOL   C45449558   1.927   4.800   4.327 -0.2741  0.2244 -0.4363
   73MOL   C45549559   1.874   4.668   4.323  0.3784  0.5223 -0.3831
   73MOL   C45649560   1.892   4.576   4.429  0.2032  0.5181  0.3011
   73MOL   O45749561   1.836   4.450   4.428 -0.3442 -0.3262  0.0188
   73MOL   C45849562   1.807   4.396   4.311  0.8307 -0.0375  0.2142
   73MOL   C45949563   1.675   4.404   4.257 -0.7077 -0.2948  0.3587
   73MOL   C46049564   1.656   4.382   4.118  0.7379  0.1844 -0.4821
   73MOL   C46149565   1.760   4.335   4.035  0.5743 -0.0781 -0.1455
   73MOL   C46249566   1.884   4.312   4.090  0.1683 -1.1546  0.3885
   73MOL   C46349567   1.905   4.342   4.226  0.3343 -0.4505 -0.5672
   73MOL   C46449568   1.949   4.629   4.548 -0.7974  0.0396 -0.2350
   73MOL   C46549569   1.992   4.763   4.553  0.1715  0.7597 -1.1265
   73MOL   H46649570   1.739   5.070   4.432 -1.5639  1.6414 -0.6880
   73MOL   H46749571   1.647   5.208   4.270 -0.0123  0.5696  0.1980
   73MOL   H46849572   2.015   5.297   4.092 -0.4352 -0.2043 -0.2532
   73MOL   H46949573   2.137   5.119   4.255  1.1523  0.2541 -3.6124
   73MOL   H47049574   1.917   4.858   4.237 -0.2079  1.5372  0.3785
   73MOL   H47149575   1.816   4.638   4.237 -0.2593  0.6012  0.0196
   73MOL   H47249576   1.593   4.449   4.311 -2.9957 -2.3279 -1.3019
   73MOL   H47349577   1.562   4.395   4.066 -0.1737 -0.7643  0.8805
   73MOL   H47449578   1.970   4.274   4.037  0.8622  2.2693 -1.1528
   73MOL   H47549579   2.002   4.334   4.273 -0.4633 -1.1437  1.0191
   73MOL   H47649580   1.958   4.566   4.635 -1.1310 -1.4169 -1.2517
   73MOL   H47749581   2.039   4.789   4.646  1.0750 -2.0427 -0.7374
   73MOL   C47849582   1.450   4.274   3.691  0.0557 -0.3285  0.2161
   73MOL   C47949583   1.548   4.335   3.765  0.3087 -0.0381 -0.5745
   73MOL   C48049584   1.638   4.255   3.842  0.5753 -0.0409 -0.1258
   73MOL   O48149585   1.745   4.321   3.902 -0.5925 -0.6801  0.3901
   73MOL   C48249586   1.631   4.116   3.832  0.0215 -0.0878 -0.0837
   73MOL   C48349587   1.539   4.054   3.751  0.1206 -0.7590 -0.1425
   73MOL   C48449588   1.459   4.136   3.663 -0.2736 -0.2103 -0.2695
   73MOL   C48549589   1.365   4.071   3.564  0.0579 -0.0613  0.2279
   73MOL   O48649590   1.263   4.124   3.523  0.0214 -0.3583  0.3481
   73MOL   C48749591   1.405   3.937   3.511 -0.5030  0.3387  0.0982
   73MOL   C48849592   1.314   3.832   3.489  0.2526  1.0729 -0.2075
   73MOL   C48949593   1.356   3.702   3.447 -0.3216  0.2751 -0.4773
   73MOL   C49049594   1.493   3.676   3.415 -0.5277  0.2961 -0.2791
   73MOL   O49149595   1.543   3.552   3.378  0.7350 -0.0345  0.0338
   73MOL   C49249596   1.554   3.503   3.250 -0.2894 -0.2853 -0.2964
   73MOL   C49349597   1.456   3.423   3.200 -0.0986  0.3168  0.2155
   73MOL   C49449598   1.458   3.362   3.068 -0.2447 -0.5141  0.0802
   73MOL   C49549599   1.583   3.365   3.000  0.2617  0.4514  0.8071
   73MOL   C49649600   1.680   3.455   3.045  0.2692 -0.1484  0.4445
   73MOL   C49749601   1.667   3.521   3.171  0.0819 -0.0201  0.1501
   73MOL   C49849602   1.588   3.781   3.436  0.2498  0.6764  0.4183
   73MOL   C49949603   1.550   3.906   3.491  1.1957  0.3366 -0.1566
   73MOL   H50049604   1.383   4.339   3.637 -0.5087  0.3366  1.6801
   73MOL   H50149605   1.554   4.442   3.758  0.2437 -0.0588 -0.9467
   73MOL   H50249606   1.704   4.050   3.875  0.5586  0.6166  0.0969
   73MOL   H50349607   1.553   3.948   3.760  2.0525 -0.2445  3.6026
   73MOL   H50449608   1.207   3.840   3.491  0.0590 -1.3208  0.2613
   73MOL   H50549609   1.276   3.629   3.438  0.2941 -0.6237  1.1048
   73MOL   H50649610   1.372   3.413   3.266  0.1563 -2.2879  0.2049
   73MOL   H50749611   1.372   3.306   3.035 -0.5673  0.9081 -1.6490
   73MOL   H50849612   1.773   3.468   2.990 -0.2898  0.6832 -0.3255
   73MOL   H50949613   1.752   3.577   3.208  0.1091 -0.8624  1.4256
   73MOL   H51049614   1.692   3.754   3.425 -0.2241 -0.5514 -1.1686
   73MOL   H51149615   1.626   3.979   3.515  0.7529  0.4798  0.7877
   73MOL   C51249616   1.415   3.391   2.586 -0.3733 -0.6238 -0.6079
   73MOL   C51349617   1.449   3.334   2.714  0.1994 -0.0378 -0.1859
   73MOL   C51449618   1.581   3.338   2.765  0.4317  0.9370 -0.1959
   73MOL   O51549619   1.610   3.286   2.888 -0.6796  0.2207 -1.1089
   73MOL   C51649620   1.685   3.389   2.682  0.0091  0.6552 -0.6286
   73MOL   C51749621   1.648   3.450   2.561  0.4851 -0.7806  0.4020
   73MOL   C51849622   1.517   3.451   2.511  0.0403  0.1647 -0.3133
   73MOL   C51949623   1.482   3.526   2.392 -0.0292 -0.0195  0.5392
   73MOL   O52049624   1.439   3.468   2.291 -0.3351 -0.3368 -0.6534
   73MOL   C52149625   1.519   3.671   2.400 -0.4132 -0.4486  1.4246
   73MOL   C52249626   1.567   3.747   2.286  0.1032 -0.5528  0.6486
   73MOL   C52349627   1.626   3.873   2.306  0.2176 -0.0951  0.0899
   73MOL   C52449628   1.629   3.929   2.433 -0.1410  0.3790 -0.0608
   73MOL   O52549629   1.683   4.049   2.450  0.3586  0.6508  0.3518
   73MOL   C52649630   1.805   4.065   2.508  0.0948  0.5048 -0.2788
   73MOL   C52749631   1.847   4.194   2.541 -0.3505  0.2493  0.2001
   73MOL   C52849632   1.975   4.225   2.591 -0.4848  0.4140  0.0148
   73MOL   C52949633   2.062   4.116   2.615 -0.2723 -0.3805  0.5026
   73MOL   C53049634   2.024   3.980   2.589  0.0451  0.4910 -1.0080
   73MOL   C53149635   1.894   3.957   2.539 -0.5338 -0.3797 -0.3375
   73MOL   C53249636   1.579   3.860   2.551  0.0069 -0.3149 -0.1229
   73MOL   C53349637   1.515   3.738   2.530  0.4893 -0.1410  0.0727
   73MOL   H53449638   1.315   3.395   2.547 -1.2387  3.0965  1.7944
   73MOL   H53549639   1.371   3.297   2.778  0.4304  1.8742  1.2461
   73MOL   H53649640   1.787   3.397   2.715  0.5622 -2.9826 -1.1975
   73MOL   H53749641   1.732   3.496   2.510  1.5558 -0.8613  2.0690
   73MOL   H53849642   1.579   3.704   2.187  1.8480  0.5211  0.3747
   73MOL   H53949643   1.662   3.930   2.222 -0.9792 -0.3843 -0.6321
   73MOL   H54049644   1.769   4.265   2.518 -0.9336 -0.4152  0.1213
   73MOL   H54149645   2.002   4.326   2.616  0.5019  0.0376  0.4879
   73MOL   H54249646   2.091   3.900   2.617  0.8231  1.0199 -1.3377
   73MOL   H54349647   1.875   3.853   2.519  0.2259 -0.0562 -3.0274
   73MOL   H54449648   1.591   3.899   2.651 -1.0679  3.3237 -1.3375
   73MOL   H54549649   1.486   3.679   2.615 -1.0530 -2.0383 -1.7025
   73MOL   C54649650   2.187   4.288   2.996 -0.0568 -0.1304  0.2196
   73MOL   C54749651   2.177   4.191   2.895  0.3989 -0.0292  0.2795
   73MOL   C54849652   2.212   4.229   2.766  0.9359  0.1476  0.3569
   73MOL   O54949653   2.187   4.140   2.657 -0.1287  0.0341 -0.3344
   73MOL   C55049654   2.284   4.349   2.742  0.1587 -0.0176  0.0475
   73MOL   C55149655   2.299   4.442   2.849 -0.0271  0.1837 -0.2060
   73MOL   C55249656   2.252   4.411   2.977 -0.1321 -0.3589 -0.4436
   73MOL   C55349657   2.255   4.516   3.089 -0.1084 -0.3532 -0.2521
   73MOL   O55449658   2.323   4.620   3.080  0.0848 -0.4410 -0.5024
   73MOL   C55549659   2.173   4.496   3.213  0.1721  0.1495 -0.1489
   73MOL   C55649660   2.231   4.531   3.341  0.2480  0.5156 -0.6868
   73MOL   C55749661   2.167   4.512   3.462  0.4779  0.7730 -0.1526
   73MOL   C55849662   2.035   4.453   3.461  0.2208 -0.8482 -0.1156
   73MOL   O55949663   1.974   4.412   3.572  0.5169 -0.3754 -0.2098
   73MOL   C56049664   1.949   4.509   3.671 -0.3402 -0.2595 -0.5927
   73MOL   C56149665   1.889   4.629   3.636  0.1921 -0.1071  0.2713
   73MOL   C56249666   1.854   4.723   3.738 -0.4147 -0.7469  0.4177
   73MOL   C56349667   1.892   4.691   3.870 -0.1950 -0.7829 -0.9286
   73MOL   C56449668   1.964   4.574   3.906  0.5641  0.2134  0.2216
   73MOL   C56549669   1.988   4.475   3.803 -0.2894 -0.2879  0.1019
   73MOL   C56649670   1.976   4.423   3.338  0.4340 -0.1193  0.7038
   73MOL   C56749671   2.047   4.436   3.219 -0.0971 -0.0929  0.2256
   73MOL   H56849672   2.155   4.262   3.096  1.4835 -1.6312  0.3484
   73MOL   H56949673   2.115   4.104   2.912 -2.3416  1.2518 -2.6551
   73MOL   H57049674   2.334   4.364   2.647  0.3421  1.9745  0.4371
   73MOL   H57149675   2.348   4.534   2.823 -0.6940  1.0646  1.5718
   73MOL   H57249676   2.325   4.584   3.343 -0.5786  2.1457 -2.4891
   73MOL   H57349677   2.214   4.545   3.554  1.2597 -0.9150  0.0781
   73MOL   H57449678   1.863   4.654   3.535 -1.1608  0.1070  0.6511
   73MOL   H57549679   1.796   4.811   3.710  0.9477 -0.5640 -2.0025
   73MOL   H57649680   2.009   4.573   4.004  0.1708 -0.2961  0.3980
   73MOL   H57749681   2.047   4.390   3.832 -0.6605  0.0832  2.0601
   73MOL   H57849682   1.877   4.381   3.354  0.1170  0.6357  0.7335
   73MOL   H57949683   1.993   4.409   3.129  2.6126 -1.4091 -1.0486
   73MOL   C58049684   1.513   4.777   4.006  0.1302 -0.2311 -0.3096
   73MOL   C58149685   1.647   4.735   3.980 -0.3696  0.3499 -0.0217
   73MOL   C58249686   1.749   4.830   3.989 -0.0406  0.3529 -0.0069
   73MOL   O58349687   1.879   4.790   3.963  0.0686  0.4487 -0.0951
   73MOL   C58449688   1.715   4.967   4.017  0.6985 -0.0554 -0.4950
   73MOL   C58549689   1.582   5.008   4.041  0.5515  0.2992 -0.2524
   73MOL   C58649690   1.481   4.910   4.041  0.6649 -0.8600 -0.3432
   73MOL   C58749691   1.331   4.945   4.070 -0.1238  0.4248  0.2735
   73MOL   O58849692   1.247   4.854   4.060  0.5154 -0.3647  0.1374
   73MOL   C58949693   1.289   5.079   4.118 -0.5262 -0.0202  0.2695
   73MOL   C59049694   1.337   5.110   4.242 -0.0119 -0.3152  0.2936
   73MOL   C59149695   1.305   5.232   4.300  0.0559 -0.2307 -0.1066
   73MOL   C59249696   1.225   5.319   4.220  0.0981 -0.5775 -0.3316
   73MOL   O59349697   1.187   5.439   4.271 -0.3007 -0.2558  0.4584
   73MOL   C59449698   1.054   5.445   4.305  0.5534 -0.2824  0.0973
   73MOL   C59549699   0.997   5.365   4.403  0.0492 -0.0656  0.4613
   73MOL   C59649700   0.862   5.387   4.437  0.3205 -0.0651  0.2486
   73MOL   C59749701   0.783   5.478   4.361  0.0657  0.1406 -0.3666
   73MOL   C59849702   0.840   5.551   4.254 -0.4727 -0.5713 -0.4414
   73MOL   C59949703   0.974   5.534   4.229 -0.3801  0.8267 -0.1007
   73MOL   C60049704   1.187   5.291   4.090  0.0986 -0.6413  0.2827
   73MOL   C60149705   1.214   5.171   4.040 -0.9066 -0.0395  0.0291
   73MOL   H60249706   1.432   4.707   3.994 -0.0787 -0.0914  0.2611
   73MOL   H60349707   1.651   4.630   3.956  0.5735  0.2406  0.6100
   73MOL   H60449708   1.790   5.045   4.020 -1.7866  2.4142  0.1579
   73MOL   H60549709   1.558   5.111   4.061 -0.9936 -0.1573  0.3551
   73MOL   H60649710   1.396   5.034   4.291 -1.0835 -0.6853  1.0295
   73MOL   H60749711   1.335   5.257   4.400 -0.8645 -1.2584  0.4351
   73MOL   H60849712   1.052   5.288   4.456 -3.2156 -0.3648  3.6770
   73MOL   H60949713   0.818   5.330   4.517  1.0097  0.1618  0.7979
   73MOL   H61049714   0.788   5.620   4.189 -2.0335 -1.7450 -0.4721
   73MOL   H61149715   1.022   5.582   4.145 -2.3986 -0.3468 -1.9876
   73MOL   H61249716   1.140   5.375   4.040  3.3024  1.1911  0.2513
   73MOL   H61349717   1.168   5.139   3.947 -0.5632 -2.0062  0.5206
   73MOL   C61449718   0.319   5.411   4.244  0.6620 -0.4476 -0.5219
   73MOL   C61549719   0.429   5.487   4.294 -0.8524  0.3198 -0.4883
   73MOL   C61649720   0.550   5.423   4.336  0.1924  0.0758 -0.8954
   73MOL   O61749721   0.649   5.494   4.400 -0.5595  0.4871 -0.0089
   73MOL   C61849722   0.551   5.285   4.334 -0.4679  0.2583 -0.2913
   73MOL   C61949723   0.451   5.212   4.281  0.6567  0.0489  0.1893
   73MOL   C62049724   0.336   5.277   4.228 -0.4733 -0.0175  0.7530
   73MOL   C62149725   0.223   5.199   4.181  0.8700  0.0888  0.0466
   73MOL   O62249726   0.228   5.133   4.071  0.1635  0.4110 -0.0681
   73MOL   C62349727   0.103   5.202   4.277  0.0060 -0.3691  0.3792
   73MOL   C62449728   0.104   5.263   4.405  0.1285  0.2074 -0.1437
   73MOL   C62549729   8.294   5.282   4.475 -0.5765  1.1457 -0.1152
   73MOL   C62649730   8.171   5.234   4.424  0.2447 -0.0853 -0.1484
   73MOL   O62749731   8.052   5.246   4.493  0.7028  0.6236  0.6189
   73MOL   C62849732   8.035   5.198   4.620  0.3956  0.3789  0.2219
   73MOL   C62949733   7.966   5.279   4.710 -0.1433  0.1816 -0.5167
   73MOL   C63049734   7.937   5.228   4.842  0.0079 -0.4437 -0.0586
   73MOL   C63149735   7.984   5.106   4.893 -0.0165 -0.1666 -0.4244
   73MOL   C63249736   8.062   5.035   4.803 -0.6217 -0.7357  0.6298
   73MOL   C63349737   8.090   5.080   4.668 -0.5158 -0.1977 -0.2738
   73MOL   C63449738   8.166   5.183   4.292  0.2375  0.2504 -0.8486
   73MOL   C63549739   8.289   5.164   4.222  0.1852 -0.5191 -0.2861
   73MOL   H63649740   0.233   5.463   4.206 -0.1062 -0.5094  1.0781
   73MOL   H63749741   0.425   5.595   4.301 -3.3709  0.1697  1.2553
   73MOL   H63849742   0.643   5.235   4.358 -1.1560 -0.9420 -0.0858
   73MOL   H63949743   0.466   5.106   4.262 -2.8467 -0.6462  0.9526
   73MOL   H64049744   0.197   5.282   4.457  0.2200 -1.3201  0.2593
   73MOL   H64149745   8.298   5.322   4.575  1.3169  0.8493 -0.0451
   73MOL   H64249746   7.930   5.379   4.692  0.9641  1.0063  1.6460
   73MOL   H64349747   7.878   5.289   4.909 -2.0549  0.0442 -2.2652
   73MOL   H64449748   8.100   4.937   4.828  2.2697  0.1850  0.0530
   73MOL   H64549749   8.137   5.017   4.594  0.8480  0.9193 -0.3899
   73MOL   H64649750   8.073   5.152   4.247 -0.4314 -0.5282  1.0549
   73MOL   H64749751   8.287   5.118   4.124  0.3976  0.1025 -0.5854
   73MOL   C64849752   7.738   4.796   5.132  0.0989 -0.4372  0.3219
   73MOL   C64949753   7.850   4.874   5.102  0.5216 -0.0896  0.0788
   73MOL   C65049754   7.839   4.995   5.037 -0.7141  0.8119  0.2265
   73MOL   O65149755   7.956   5.067   5.019  0.0067 -0.0382 -0.4984
   73MOL   C65249756   7.712   5.054   5.021 -0.1727  0.0652  0.5143
   73MOL   C65349757   7.601   4.980   5.056  0.6945 -0.5545 -0.2980
   73MOL   C65449758   7.610   4.852   5.118  0.0140  0.3337  0.6718
   73MOL   C65549759   7.481   4.778   5.150  0.4232  0.0738 -0.0612
   73MOL   O65649760   7.386   4.774   5.067  0.1245 -0.2777 -0.6155
   73MOL   C65749761   7.456   4.739   5.289 -0.2282 -0.3051 -0.4183
   73MOL   C65849762   7.331   4.681   5.325 -0.3462  0.0443  0.1071
   73MOL   C65949763   7.293   4.657   5.460 -0.2125  0.6748  0.1167
   73MOL   C66049764   7.381   4.700   5.558 -0.8631 -0.1794  0.0172
   73MOL   O66149765   7.350   4.691   5.689 -0.3672 -0.4337  0.4080
   73MOL   C66249766   7.347   4.567   5.751  0.3585 -0.6218 -0.0569
   73MOL   C66349767   7.224   4.509   5.790  0.1990 -0.1547  0.5620
   73MOL   C66449768   7.233   4.379   5.857  0.2434 -0.6776 -0.6292
   73MOL   C66549769   7.358   4.319   5.889 -0.3326  0.2770 -0.3228
   73MOL   C66649770   7.482   4.372   5.838 -0.3173 -0.2778  0.3623
   73MOL   C66749771   7.471   4.491   5.763 -0.0652  0.0014  0.2045
   73MOL   C66849772   7.500   4.775   5.530  0.2787 -0.4666 -0.4212
   73MOL   C66949773   7.533   4.791   5.395  0.2577 -0.0648 -0.2067
   73MOL   H67049774   7.748   4.694   5.168  0.6660 -0.3793  0.3273
   73MOL   H67149775   7.946   4.828   5.117  0.6551 -0.3151 -1.3213
   73MOL   H67249776   7.706   5.158   4.991 -0.0511  0.1495  0.7803
   73MOL   H67349777   7.505   5.029   5.051  1.3953  0.9824  1.1474
   73MOL   H67449778   7.268   4.643   5.246 -0.6973  2.0875 -0.6175
   73MOL   H67549779   7.200   4.611   5.488 -0.6470  1.8115  0.5993
   73MOL   H67649780   7.130   4.562   5.776 -0.7807 -1.3737  2.3482
   73MOL   H67749781   7.146   4.324   5.890 -1.9385  1.6811 -2.2624
   73MOL   H67849782   7.573   4.315   5.851  1.8540  2.3392 -2.6931
   73MOL   H67949783   7.548   4.541   5.706  1.4059 -0.5402  1.7169
   73MOL   H68049784   7.548   4.833   5.607 -0.5325  0.5286 -0.6590
   73MOL   H68149785   7.613   4.857   5.365 -0.2933  0.5662 -0.3311
   73MOL   H68249786   7.357   4.228   5.948  0.5655  1.0150  0.8679
   8.31274   8.31274   8.31274
