;
; Gromacs include topology (itp) file.
; For Molecular Group XYZ
; Force field scheme: opls2005
; Produced from DL_FIELD v4.11
;


[ moleculetype ]
; name    nrexcl
XYZ    3

[ atoms ]
; nr   type   resnr   residu    atom    cgnr    charge    mass
    1       OAL    1  MOL      O1     1  -0.6830000   15.9994
    2        CT    1  MOL      C2     2   0.1450000   12.0115
    3        CT    1  MOL      C3     3  -0.1200000   12.0115
    4        CT    1  MOL      C4     4  -0.1200000   12.0115
    5        CT    1  MOL      C5     5  -0.1200000   12.0115
    6        CT    1  MOL      C6     6  -0.1200000   12.0115
    7        CT    1  MOL      C7     7  -0.1200000   12.0115
    8        CT    1  MOL      C8     8  -0.1200000   12.0115
    9        CT    1  MOL      C9     9  -0.1200000   12.0115
   10        CT    1  MOL     C10    10  -0.1200000   12.0115
   11        CT    1  MOL     C11    11   0.1900000   12.0115
   12       OES    1  MOL     O12    12  -0.3300000   15.9994
   13       CO4    1  MOL     C13    13   0.5100000   12.0115
   14         O    1  MOL     O14    14  -0.4300000   15.9994
   15        CT    1  MOL     C15    15  -0.1200000   12.0115
   16        CT    1  MOL     C16    16  -0.1200000   12.0115
   17        CT    1  MOL     C17    17  -0.1200000   12.0115
   18        CT    1  MOL     C18    18  -0.1200000   12.0115
   19       CO4    1  MOL     C19    19   0.5100000   12.0115
   20         O    1  MOL     O20    20  -0.4300000   15.9994
   21        HC    1  MOL     H21    21   0.0600000    1.0080
   22        HC    1  MOL     H22    22   0.0600000    1.0080
   23        HC    1  MOL     H23    23   0.0600000    1.0080
   24        HC    1  MOL     H24    24   0.0600000    1.0080
   25        HC    1  MOL     H25    25   0.0600000    1.0080
   26        HC    1  MOL     H26    26   0.0600000    1.0080
   27        HC    1  MOL     H27    27   0.0600000    1.0080
   28        HC    1  MOL     H28    28   0.0600000    1.0080
   29        HC    1  MOL     H29    29   0.0600000    1.0080
   30        HC    1  MOL     H30    30   0.0600000    1.0080
   31        HC    1  MOL     H31    31   0.0600000    1.0080
   32        HC    1  MOL     H32    32   0.0600000    1.0080
   33        HC    1  MOL     H33    33   0.0600000    1.0080
   34        HC    1  MOL     H34    34   0.0600000    1.0080
   35        HC    1  MOL     H35    35   0.0600000    1.0080
   36        HC    1  MOL     H36    36   0.0600000    1.0080
   37        HC    1  MOL     H37    37   0.0600000    1.0080
   38        HC    1  MOL     H38    38   0.0600000    1.0080
   39       HAE    1  MOL     H39    39   0.0300000    1.0080
   40       HAE    1  MOL     H40    40   0.0300000    1.0080
   41       HAE    1  MOL     H41    41   0.0600000    1.0080
   42       HAE    1  MOL     H42    42   0.0600000    1.0080
   43        HC    1  MOL     H43    43   0.0600000    1.0080
   44        HC    1  MOL     H44    44   0.0600000    1.0080
   45        HC    1  MOL     H45    45   0.0600000    1.0080
   46        HC    1  MOL     H46    46   0.0600000    1.0080
   47       HAE    1  MOL     H47    47   0.0600000    1.0080
   48       HAE    1  MOL     H48    48   0.0600000    1.0080
   49        HO    1  MOL     H49    49   0.4180000    1.0080
   50       OES    1  MOL     O50    50  -0.3300000   15.9994
   51        CT    1  MOL     C51    51   0.1900000   12.0115
   52        CT    1  MOL     C52    52  -0.1200000   12.0115
   53        CT    1  MOL     C53    53  -0.1200000   12.0115
   54        CT    1  MOL     C54    54  -0.1200000   12.0115
   55        CT    1  MOL     C55    55  -0.1200000   12.0115
   56        CT    1  MOL     C56    56  -0.1200000   12.0115
   57        CT    1  MOL     C57    57  -0.1200000   12.0115
   58        CT    1  MOL     C58    58  -0.1200000   12.0115
   59        CT    1  MOL     C59    59  -0.1200000   12.0115
   60        CT    1  MOL     C60    60   0.1900000   12.0115
   61       OES    1  MOL     O61    61  -0.3300000   15.9994
   62       CO4    1  MOL     C62    62   0.5100000   12.0115
   63         O    1  MOL     O63    63  -0.4300000   15.9994
   64        CT    1  MOL     C64    64  -0.1200000   12.0115
   65        CT    1  MOL     C65    65  -0.1200000   12.0115
   66        CT    1  MOL     C66    66  -0.1200000   12.0115
   67        CT    1  MOL     C67    67  -0.1200000   12.0115
   68       CO4    1  MOL     C68    68   0.5100000   12.0115
   69         O    1  MOL     O69    69  -0.4300000   15.9994
   70       HAE    1  MOL     H70    70   0.0300000    1.0080
   71       HAE    1  MOL     H71    71   0.0300000    1.0080
   72        HC    1  MOL     H72    72   0.0600000    1.0080
   73        HC    1  MOL     H73    73   0.0600000    1.0080
   74        HC    1  MOL     H74    74   0.0600000    1.0080
   75        HC    1  MOL     H75    75   0.0600000    1.0080
   76        HC    1  MOL     H76    76   0.0600000    1.0080
   77        HC    1  MOL     H77    77   0.0600000    1.0080
   78        HC    1  MOL     H78    78   0.0600000    1.0080
   79        HC    1  MOL     H79    79   0.0600000    1.0080
   80        HC    1  MOL     H80    80   0.0600000    1.0080
   81        HC    1  MOL     H81    81   0.0600000    1.0080
   82        HC    1  MOL     H82    82   0.0600000    1.0080
   83        HC    1  MOL     H83    83   0.0600000    1.0080
   84        HC    1  MOL     H84    84   0.0600000    1.0080
   85        HC    1  MOL     H85    85   0.0600000    1.0080
   86        HC    1  MOL     H86    86   0.0600000    1.0080
   87        HC    1  MOL     H87    87   0.0600000    1.0080
   88       HAE    1  MOL     H88    88   0.0300000    1.0080
   89       HAE    1  MOL     H89    89   0.0300000    1.0080
   90       HAE    1  MOL     H90    90   0.0600000    1.0080
   91       HAE    1  MOL     H91    91   0.0600000    1.0080
   92        HC    1  MOL     H92    92   0.0600000    1.0080
   93        HC    1  MOL     H93    93   0.0600000    1.0080
   94        HC    1  MOL     H94    94   0.0600000    1.0080
   95        HC    1  MOL     H95    95   0.0600000    1.0080
   96       HAE    1  MOL     H96    96   0.0600000    1.0080
   97       HAE    1  MOL     H97    97   0.0600000    1.0080
   98       OES    1  MOL     O98    98  -0.3300000   15.9994
   99        CT    1  MOL     C99    99   0.1900000   12.0115
  100        CT    1  MOL    C100   100  -0.1200000   12.0115
  101        CT    1  MOL    C101   101  -0.1200000   12.0115
  102        CT    1  MOL    C102   102  -0.1200000   12.0115
  103        CT    1  MOL    C103   103  -0.1200000   12.0115
  104        CT    1  MOL    C104   104  -0.1200000   12.0115
  105        CT    1  MOL    C105   105  -0.1200000   12.0115
  106        CT    1  MOL    C106   106  -0.1200000   12.0115
  107        CT    1  MOL    C107   107  -0.1200000   12.0115
  108        CT    1  MOL    C108   108   0.1900000   12.0115
  109       OES    1  MOL    O109   109  -0.3300000   15.9994
  110       CO4    1  MOL    C110   110   0.5100000   12.0115
  111         O    1  MOL    O111   111  -0.4300000   15.9994
  112        CT    1  MOL    C112   112  -0.1200000   12.0115
  113        CT    1  MOL    C113   113  -0.1200000   12.0115
  114        CT    1  MOL    C114   114  -0.1200000   12.0115
  115        CT    1  MOL    C115   115  -0.1200000   12.0115
  116       CO4    1  MOL    C116   116   0.5100000   12.0115
  117         O    1  MOL    O117   117  -0.4300000   15.9994
  118       HAE    1  MOL    H118   118   0.0300000    1.0080
  119       HAE    1  MOL    H119   119   0.0300000    1.0080
  120        HC    1  MOL    H120   120   0.0600000    1.0080
  121        HC    1  MOL    H121   121   0.0600000    1.0080
  122        HC    1  MOL    H122   122   0.0600000    1.0080
  123        HC    1  MOL    H123   123   0.0600000    1.0080
  124        HC    1  MOL    H124   124   0.0600000    1.0080
  125        HC    1  MOL    H125   125   0.0600000    1.0080
  126        HC    1  MOL    H126   126   0.0600000    1.0080
  127        HC    1  MOL    H127   127   0.0600000    1.0080
  128        HC    1  MOL    H128   128   0.0600000    1.0080
  129        HC    1  MOL    H129   129   0.0600000    1.0080
  130        HC    1  MOL    H130   130   0.0600000    1.0080
  131        HC    1  MOL    H131   131   0.0600000    1.0080
  132        HC    1  MOL    H132   132   0.0600000    1.0080
  133        HC    1  MOL    H133   133   0.0600000    1.0080
  134        HC    1  MOL    H134   134   0.0600000    1.0080
  135        HC    1  MOL    H135   135   0.0600000    1.0080
  136       HAE    1  MOL    H136   136   0.0300000    1.0080
  137       HAE    1  MOL    H137   137   0.0300000    1.0080
  138       HAE    1  MOL    H138   138   0.0600000    1.0080
  139       HAE    1  MOL    H139   139   0.0600000    1.0080
  140        HC    1  MOL    H140   140   0.0600000    1.0080
  141        HC    1  MOL    H141   141   0.0600000    1.0080
  142        HC    1  MOL    H142   142   0.0600000    1.0080
  143        HC    1  MOL    H143   143   0.0600000    1.0080
  144       HAE    1  MOL    H144   144   0.0600000    1.0080
  145       HAE    1  MOL    H145   145   0.0600000    1.0080
  146       OES    1  MOL    O146   146  -0.3300000   15.9994
  147        CT    1  MOL    C147   147   0.1900000   12.0115
  148        CT    1  MOL    C148   148  -0.1200000   12.0115
  149        CT    1  MOL    C149   149  -0.1200000   12.0115
  150        CT    1  MOL    C150   150  -0.1200000   12.0115
  151        CT    1  MOL    C151   151  -0.1200000   12.0115
  152        CT    1  MOL    C152   152  -0.1200000   12.0115
  153        CT    1  MOL    C153   153  -0.1200000   12.0115
  154        CT    1  MOL    C154   154  -0.1200000   12.0115
  155        CT    1  MOL    C155   155  -0.1200000   12.0115
  156        CT    1  MOL    C156   156   0.1900000   12.0115
  157       OES    1  MOL    O157   157  -0.3300000   15.9994
  158       CO4    1  MOL    C158   158   0.5100000   12.0115
  159         O    1  MOL    O159   159  -0.4300000   15.9994
  160        CT    1  MOL    C160   160  -0.1200000   12.0115
  161        CT    1  MOL    C161   161  -0.1200000   12.0115
  162        CT    1  MOL    C162   162  -0.1200000   12.0115
  163        CT    1  MOL    C163   163  -0.1200000   12.0115
  164       CO4    1  MOL    C164   164   0.5100000   12.0115
  165         O    1  MOL    O165   165  -0.4300000   15.9994
  166       HAE    1  MOL    H166   166   0.0300000    1.0080
  167       HAE    1  MOL    H167   167   0.0300000    1.0080
  168        HC    1  MOL    H168   168   0.0600000    1.0080
  169        HC    1  MOL    H169   169   0.0600000    1.0080
  170        HC    1  MOL    H170   170   0.0600000    1.0080
  171        HC    1  MOL    H171   171   0.0600000    1.0080
  172        HC    1  MOL    H172   172   0.0600000    1.0080
  173        HC    1  MOL    H173   173   0.0600000    1.0080
  174        HC    1  MOL    H174   174   0.0600000    1.0080
  175        HC    1  MOL    H175   175   0.0600000    1.0080
  176        HC    1  MOL    H176   176   0.0600000    1.0080
  177        HC    1  MOL    H177   177   0.0600000    1.0080
  178        HC    1  MOL    H178   178   0.0600000    1.0080
  179        HC    1  MOL    H179   179   0.0600000    1.0080
  180        HC    1  MOL    H180   180   0.0600000    1.0080
  181        HC    1  MOL    H181   181   0.0600000    1.0080
  182        HC    1  MOL    H182   182   0.0600000    1.0080
  183        HC    1  MOL    H183   183   0.0600000    1.0080
  184       HAE    1  MOL    H184   184   0.0300000    1.0080
  185       HAE    1  MOL    H185   185   0.0300000    1.0080
  186       HAE    1  MOL    H186   186   0.0600000    1.0080
  187       HAE    1  MOL    H187   187   0.0600000    1.0080
  188        HC    1  MOL    H188   188   0.0600000    1.0080
  189        HC    1  MOL    H189   189   0.0600000    1.0080
  190        HC    1  MOL    H190   190   0.0600000    1.0080
  191        HC    1  MOL    H191   191   0.0600000    1.0080
  192       HAE    1  MOL    H192   192   0.0600000    1.0080
  193       HAE    1  MOL    H193   193   0.0600000    1.0080
  194       OES    1  MOL    O194   194  -0.3300000   15.9994
  195        CT    1  MOL    C195   195   0.1900000   12.0115
  196        CT    1  MOL    C196   196  -0.1200000   12.0115
  197        CT    1  MOL    C197   197  -0.1200000   12.0115
  198        CT    1  MOL    C198   198  -0.1200000   12.0115
  199        CT    1  MOL    C199   199  -0.1200000   12.0115
  200        CT    1  MOL    C200   200  -0.1200000   12.0115
  201        CT    1  MOL    C201   201  -0.1200000   12.0115
  202        CT    1  MOL    C202   202  -0.1200000   12.0115
  203        CT    1  MOL    C203   203  -0.1200000   12.0115
  204        CT    1  MOL    C204   204   0.1900000   12.0115
  205       OES    1  MOL    O205   205  -0.3300000   15.9994
  206       CO4    1  MOL    C206   206   0.5100000   12.0115
  207         O    1  MOL    O207   207  -0.4300000   15.9994
  208        CT    1  MOL    C208   208  -0.1200000   12.0115
  209        CT    1  MOL    C209   209  -0.1200000   12.0115
  210        CT    1  MOL    C210   210  -0.1200000   12.0115
  211        CT    1  MOL    C211   211  -0.1200000   12.0115
  212       CO4    1  MOL    C212   212   0.5100000   12.0115
  213         O    1  MOL    O213   213  -0.4300000   15.9994
  214       HAE    1  MOL    H214   214   0.0300000    1.0080
  215       HAE    1  MOL    H215   215   0.0300000    1.0080
  216        HC    1  MOL    H216   216   0.0600000    1.0080
  217        HC    1  MOL    H217   217   0.0600000    1.0080
  218        HC    1  MOL    H218   218   0.0600000    1.0080
  219        HC    1  MOL    H219   219   0.0600000    1.0080
  220        HC    1  MOL    H220   220   0.0600000    1.0080
  221        HC    1  MOL    H221   221   0.0600000    1.0080
  222        HC    1  MOL    H222   222   0.0600000    1.0080
  223        HC    1  MOL    H223   223   0.0600000    1.0080
  224        HC    1  MOL    H224   224   0.0600000    1.0080
  225        HC    1  MOL    H225   225   0.0600000    1.0080
  226        HC    1  MOL    H226   226   0.0600000    1.0080
  227        HC    1  MOL    H227   227   0.0600000    1.0080
  228        HC    1  MOL    H228   228   0.0600000    1.0080
  229        HC    1  MOL    H229   229   0.0600000    1.0080
  230        HC    1  MOL    H230   230   0.0600000    1.0080
  231        HC    1  MOL    H231   231   0.0600000    1.0080
  232       HAE    1  MOL    H232   232   0.0300000    1.0080
  233       HAE    1  MOL    H233   233   0.0300000    1.0080
  234       HAE    1  MOL    H234   234   0.0600000    1.0080
  235       HAE    1  MOL    H235   235   0.0600000    1.0080
  236        HC    1  MOL    H236   236   0.0600000    1.0080
  237        HC    1  MOL    H237   237   0.0600000    1.0080
  238        HC    1  MOL    H238   238   0.0600000    1.0080
  239        HC    1  MOL    H239   239   0.0600000    1.0080
  240       HAE    1  MOL    H240   240   0.0600000    1.0080
  241       HAE    1  MOL    H241   241   0.0600000    1.0080
  242       OES    1  MOL    O242   242  -0.3300000   15.9994
  243        CT    1  MOL    C243   243   0.1900000   12.0115
  244        CT    1  MOL    C244   244  -0.1200000   12.0115
  245        CT    1  MOL    C245   245  -0.1200000   12.0115
  246        CT    1  MOL    C246   246  -0.1200000   12.0115
  247        CT    1  MOL    C247   247  -0.1200000   12.0115
  248        CT    1  MOL    C248   248  -0.1200000   12.0115
  249        CT    1  MOL    C249   249  -0.1200000   12.0115
  250        CT    1  MOL    C250   250  -0.1200000   12.0115
  251        CT    1  MOL    C251   251  -0.1200000   12.0115
  252        CT    1  MOL    C252   252   0.1900000   12.0115
  253       OES    1  MOL    O253   253  -0.3300000   15.9994
  254       CO4    1  MOL    C254   254   0.5100000   12.0115
  255         O    1  MOL    O255   255  -0.4300000   15.9994
  256        CT    1  MOL    C256   256  -0.1200000   12.0115
  257        CT    1  MOL    C257   257  -0.1200000   12.0115
  258        CT    1  MOL    C258   258  -0.1200000   12.0115
  259        CT    1  MOL    C259   259  -0.1200000   12.0115
  260       CO4    1  MOL    C260   260   0.5100000   12.0115
  261         O    1  MOL    O261   261  -0.4300000   15.9994
  262       HAE    1  MOL    H262   262   0.0300000    1.0080
  263       HAE    1  MOL    H263   263   0.0300000    1.0080
  264        HC    1  MOL    H264   264   0.0600000    1.0080
  265        HC    1  MOL    H265   265   0.0600000    1.0080
  266        HC    1  MOL    H266   266   0.0600000    1.0080
  267        HC    1  MOL    H267   267   0.0600000    1.0080
  268        HC    1  MOL    H268   268   0.0600000    1.0080
  269        HC    1  MOL    H269   269   0.0600000    1.0080
  270        HC    1  MOL    H270   270   0.0600000    1.0080
  271        HC    1  MOL    H271   271   0.0600000    1.0080
  272        HC    1  MOL    H272   272   0.0600000    1.0080
  273        HC    1  MOL    H273   273   0.0600000    1.0080
  274        HC    1  MOL    H274   274   0.0600000    1.0080
  275        HC    1  MOL    H275   275   0.0600000    1.0080
  276        HC    1  MOL    H276   276   0.0600000    1.0080
  277        HC    1  MOL    H277   277   0.0600000    1.0080
  278        HC    1  MOL    H278   278   0.0600000    1.0080
  279        HC    1  MOL    H279   279   0.0600000    1.0080
  280       HAE    1  MOL    H280   280   0.0300000    1.0080
  281       HAE    1  MOL    H281   281   0.0300000    1.0080
  282       HAE    1  MOL    H282   282   0.0600000    1.0080
  283       HAE    1  MOL    H283   283   0.0600000    1.0080
  284        HC    1  MOL    H284   284   0.0600000    1.0080
  285        HC    1  MOL    H285   285   0.0600000    1.0080
  286        HC    1  MOL    H286   286   0.0600000    1.0080
  287        HC    1  MOL    H287   287   0.0600000    1.0080
  288       HAE    1  MOL    H288   288   0.0600000    1.0080
  289       HAE    1  MOL    H289   289   0.0600000    1.0080
  290       OES    1  MOL    O290   290  -0.3300000   15.9994
  291        CT    1  MOL    C291   291   0.1900000   12.0115
  292        CT    1  MOL    C292   292  -0.1200000   12.0115
  293        CT    1  MOL    C293   293  -0.1200000   12.0115
  294        CT    1  MOL    C294   294  -0.1200000   12.0115
  295        CT    1  MOL    C295   295  -0.1200000   12.0115
  296        CT    1  MOL    C296   296  -0.1200000   12.0115
  297        CT    1  MOL    C297   297  -0.1200000   12.0115
  298        CT    1  MOL    C298   298  -0.1200000   12.0115
  299        CT    1  MOL    C299   299  -0.1200000   12.0115
  300        CT    1  MOL    C300   300   0.1900000   12.0115
  301       OES    1  MOL    O301   301  -0.3300000   15.9994
  302       CO4    1  MOL    C302   302   0.5100000   12.0115
  303         O    1  MOL    O303   303  -0.4300000   15.9994
  304        CT    1  MOL    C304   304  -0.1200000   12.0115
  305        CT    1  MOL    C305   305  -0.1200000   12.0115
  306        CT    1  MOL    C306   306  -0.1200000   12.0115
  307        CT    1  MOL    C307   307  -0.1200000   12.0115
  308       CO4    1  MOL    C308   308   0.5100000   12.0115
  309         O    1  MOL    O309   309  -0.4300000   15.9994
  310       HAE    1  MOL    H310   310   0.0300000    1.0080
  311       HAE    1  MOL    H311   311   0.0300000    1.0080
  312        HC    1  MOL    H312   312   0.0600000    1.0080
  313        HC    1  MOL    H313   313   0.0600000    1.0080
  314        HC    1  MOL    H314   314   0.0600000    1.0080
  315        HC    1  MOL    H315   315   0.0600000    1.0080
  316        HC    1  MOL    H316   316   0.0600000    1.0080
  317        HC    1  MOL    H317   317   0.0600000    1.0080
  318        HC    1  MOL    H318   318   0.0600000    1.0080
  319        HC    1  MOL    H319   319   0.0600000    1.0080
  320        HC    1  MOL    H320   320   0.0600000    1.0080
  321        HC    1  MOL    H321   321   0.0600000    1.0080
  322        HC    1  MOL    H322   322   0.0600000    1.0080
  323        HC    1  MOL    H323   323   0.0600000    1.0080
  324        HC    1  MOL    H324   324   0.0600000    1.0080
  325        HC    1  MOL    H325   325   0.0600000    1.0080
  326        HC    1  MOL    H326   326   0.0600000    1.0080
  327        HC    1  MOL    H327   327   0.0600000    1.0080
  328       HAE    1  MOL    H328   328   0.0300000    1.0080
  329       HAE    1  MOL    H329   329   0.0300000    1.0080
  330       HAE    1  MOL    H330   330   0.0600000    1.0080
  331       HAE    1  MOL    H331   331   0.0600000    1.0080
  332        HC    1  MOL    H332   332   0.0600000    1.0080
  333        HC    1  MOL    H333   333   0.0600000    1.0080
  334        HC    1  MOL    H334   334   0.0600000    1.0080
  335        HC    1  MOL    H335   335   0.0600000    1.0080
  336       HAE    1  MOL    H336   336   0.0600000    1.0080
  337       HAE    1  MOL    H337   337   0.0600000    1.0080
  338       OES    1  MOL    O338   338  -0.3300000   15.9994
  339        CT    1  MOL    C339   339   0.1900000   12.0115
  340        CT    1  MOL    C340   340  -0.1200000   12.0115
  341        CT    1  MOL    C341   341  -0.1200000   12.0115
  342        CT    1  MOL    C342   342  -0.1200000   12.0115
  343        CT    1  MOL    C343   343  -0.1200000   12.0115
  344        CT    1  MOL    C344   344  -0.1200000   12.0115
  345        CT    1  MOL    C345   345  -0.1200000   12.0115
  346        CT    1  MOL    C346   346  -0.1200000   12.0115
  347        CT    1  MOL    C347   347  -0.1200000   12.0115
  348        CT    1  MOL    C348   348   0.1900000   12.0115
  349       OES    1  MOL    O349   349  -0.3300000   15.9994
  350       CO4    1  MOL    C350   350   0.5100000   12.0115
  351         O    1  MOL    O351   351  -0.4300000   15.9994
  352        CT    1  MOL    C352   352  -0.1200000   12.0115
  353        CT    1  MOL    C353   353  -0.1200000   12.0115
  354        CT    1  MOL    C354   354  -0.1200000   12.0115
  355        CT    1  MOL    C355   355  -0.1200000   12.0115
  356       CO4    1  MOL    C356   356   0.5100000   12.0115
  357         O    1  MOL    O357   357  -0.4300000   15.9994
  358       HAE    1  MOL    H358   358   0.0300000    1.0080
  359       HAE    1  MOL    H359   359   0.0300000    1.0080
  360        HC    1  MOL    H360   360   0.0600000    1.0080
  361        HC    1  MOL    H361   361   0.0600000    1.0080
  362        HC    1  MOL    H362   362   0.0600000    1.0080
  363        HC    1  MOL    H363   363   0.0600000    1.0080
  364        HC    1  MOL    H364   364   0.0600000    1.0080
  365        HC    1  MOL    H365   365   0.0600000    1.0080
  366        HC    1  MOL    H366   366   0.0600000    1.0080
  367        HC    1  MOL    H367   367   0.0600000    1.0080
  368        HC    1  MOL    H368   368   0.0600000    1.0080
  369        HC    1  MOL    H369   369   0.0600000    1.0080
  370        HC    1  MOL    H370   370   0.0600000    1.0080
  371        HC    1  MOL    H371   371   0.0600000    1.0080
  372        HC    1  MOL    H372   372   0.0600000    1.0080
  373        HC    1  MOL    H373   373   0.0600000    1.0080
  374        HC    1  MOL    H374   374   0.0600000    1.0080
  375        HC    1  MOL    H375   375   0.0600000    1.0080
  376       HAE    1  MOL    H376   376   0.0300000    1.0080
  377       HAE    1  MOL    H377   377   0.0300000    1.0080
  378       HAE    1  MOL    H378   378   0.0600000    1.0080
  379       HAE    1  MOL    H379   379   0.0600000    1.0080
  380        HC    1  MOL    H380   380   0.0600000    1.0080
  381        HC    1  MOL    H381   381   0.0600000    1.0080
  382        HC    1  MOL    H382   382   0.0600000    1.0080
  383        HC    1  MOL    H383   383   0.0600000    1.0080
  384       HAE    1  MOL    H384   384   0.0600000    1.0080
  385       HAE    1  MOL    H385   385   0.0600000    1.0080
  386       OES    1  MOL    O386   386  -0.3300000   15.9994
  387        CT    1  MOL    C387   387   0.1900000   12.0115
  388        CT    1  MOL    C388   388  -0.1200000   12.0115
  389        CT    1  MOL    C389   389  -0.1200000   12.0115
  390        CT    1  MOL    C390   390  -0.1200000   12.0115
  391        CT    1  MOL    C391   391  -0.1200000   12.0115
  392        CT    1  MOL    C392   392  -0.1200000   12.0115
  393        CT    1  MOL    C393   393  -0.1200000   12.0115
  394        CT    1  MOL    C394   394  -0.1200000   12.0115
  395        CT    1  MOL    C395   395  -0.1200000   12.0115
  396        CT    1  MOL    C396   396   0.1900000   12.0115
  397       OES    1  MOL    O397   397  -0.3300000   15.9994
  398       CO4    1  MOL    C398   398   0.5100000   12.0115
  399         O    1  MOL    O399   399  -0.4300000   15.9994
  400        CT    1  MOL    C400   400  -0.1200000   12.0115
  401        CT    1  MOL    C401   401  -0.1200000   12.0115
  402        CT    1  MOL    C402   402  -0.1200000   12.0115
  403        CT    1  MOL    C403   403  -0.1200000   12.0115
  404       CO4    1  MOL    C404   404   0.5100000   12.0115
  405         O    1  MOL    O405   405  -0.4300000   15.9994
  406       HAE    1  MOL    H406   406   0.0300000    1.0080
  407       HAE    1  MOL    H407   407   0.0300000    1.0080
  408        HC    1  MOL    H408   408   0.0600000    1.0080
  409        HC    1  MOL    H409   409   0.0600000    1.0080
  410        HC    1  MOL    H410   410   0.0600000    1.0080
  411        HC    1  MOL    H411   411   0.0600000    1.0080
  412        HC    1  MOL    H412   412   0.0600000    1.0080
  413        HC    1  MOL    H413   413   0.0600000    1.0080
  414        HC    1  MOL    H414   414   0.0600000    1.0080
  415        HC    1  MOL    H415   415   0.0600000    1.0080
  416        HC    1  MOL    H416   416   0.0600000    1.0080
  417        HC    1  MOL    H417   417   0.0600000    1.0080
  418        HC    1  MOL    H418   418   0.0600000    1.0080
  419        HC    1  MOL    H419   419   0.0600000    1.0080
  420        HC    1  MOL    H420   420   0.0600000    1.0080
  421        HC    1  MOL    H421   421   0.0600000    1.0080
  422        HC    1  MOL    H422   422   0.0600000    1.0080
  423        HC    1  MOL    H423   423   0.0600000    1.0080
  424       HAE    1  MOL    H424   424   0.0300000    1.0080
  425       HAE    1  MOL    H425   425   0.0300000    1.0080
  426       HAE    1  MOL    H426   426   0.0600000    1.0080
  427       HAE    1  MOL    H427   427   0.0600000    1.0080
  428        HC    1  MOL    H428   428   0.0600000    1.0080
  429        HC    1  MOL    H429   429   0.0600000    1.0080
  430        HC    1  MOL    H430   430   0.0600000    1.0080
  431        HC    1  MOL    H431   431   0.0600000    1.0080
  432       HAE    1  MOL    H432   432   0.0600000    1.0080
  433       HAE    1  MOL    H433   433   0.0600000    1.0080
  434       OES    1  MOL    O434   434  -0.3300000   15.9994
  435        CT    1  MOL    C435   435   0.1900000   12.0115
  436        CT    1  MOL    C436   436  -0.1200000   12.0115
  437        CT    1  MOL    C437   437  -0.1200000   12.0115
  438        CT    1  MOL    C438   438  -0.1200000   12.0115
  439        CT    1  MOL    C439   439  -0.1200000   12.0115
  440        CT    1  MOL    C440   440  -0.1200000   12.0115
  441        CT    1  MOL    C441   441  -0.1200000   12.0115
  442        CT    1  MOL    C442   442  -0.1200000   12.0115
  443        CT    1  MOL    C443   443  -0.1200000   12.0115
  444        CT    1  MOL    C444   444   0.1900000   12.0115
  445       OES    1  MOL    O445   445  -0.3300000   15.9994
  446       CO4    1  MOL    C446   446   0.5100000   12.0115
  447         O    1  MOL    O447   447  -0.4300000   15.9994
  448        CT    1  MOL    C448   448  -0.1200000   12.0115
  449        CT    1  MOL    C449   449  -0.1200000   12.0115
  450        CT    1  MOL    C450   450  -0.1200000   12.0115
  451        CT    1  MOL    C451   451  -0.1200000   12.0115
  452       CO4    1  MOL    C452   452   0.5100000   12.0115
  453         O    1  MOL    O453   453  -0.4300000   15.9994
  454       HAE    1  MOL    H454   454   0.0300000    1.0080
  455       HAE    1  MOL    H455   455   0.0300000    1.0080
  456        HC    1  MOL    H456   456   0.0600000    1.0080
  457        HC    1  MOL    H457   457   0.0600000    1.0080
  458        HC    1  MOL    H458   458   0.0600000    1.0080
  459        HC    1  MOL    H459   459   0.0600000    1.0080
  460        HC    1  MOL    H460   460   0.0600000    1.0080
  461        HC    1  MOL    H461   461   0.0600000    1.0080
  462        HC    1  MOL    H462   462   0.0600000    1.0080
  463        HC    1  MOL    H463   463   0.0600000    1.0080
  464        HC    1  MOL    H464   464   0.0600000    1.0080
  465        HC    1  MOL    H465   465   0.0600000    1.0080
  466        HC    1  MOL    H466   466   0.0600000    1.0080
  467        HC    1  MOL    H467   467   0.0600000    1.0080
  468        HC    1  MOL    H468   468   0.0600000    1.0080
  469        HC    1  MOL    H469   469   0.0600000    1.0080
  470        HC    1  MOL    H470   470   0.0600000    1.0080
  471        HC    1  MOL    H471   471   0.0600000    1.0080
  472       HAE    1  MOL    H472   472   0.0300000    1.0080
  473       HAE    1  MOL    H473   473   0.0300000    1.0080
  474       HAE    1  MOL    H474   474   0.0600000    1.0080
  475       HAE    1  MOL    H475   475   0.0600000    1.0080
  476        HC    1  MOL    H476   476   0.0600000    1.0080
  477        HC    1  MOL    H477   477   0.0600000    1.0080
  478        HC    1  MOL    H478   478   0.0600000    1.0080
  479        HC    1  MOL    H479   479   0.0600000    1.0080
  480       HAE    1  MOL    H480   480   0.0600000    1.0080
  481       HAE    1  MOL    H481   481   0.0600000    1.0080
  482       OES    1  MOL    O482   482  -0.3300000   15.9994
  483        CT    1  MOL    C483   483   0.1900000   12.0115
  484        CT    1  MOL    C484   484  -0.1200000   12.0115
  485        CT    1  MOL    C485   485  -0.1200000   12.0115
  486        CT    1  MOL    C486   486  -0.1200000   12.0115
  487        CT    1  MOL    C487   487  -0.1200000   12.0115
  488        CT    1  MOL    C488   488  -0.1200000   12.0115
  489        CT    1  MOL    C489   489  -0.1200000   12.0115
  490        CT    1  MOL    C490   490  -0.1200000   12.0115
  491        CT    1  MOL    C491   491  -0.1200000   12.0115
  492        CT    1  MOL    C492   492   0.1900000   12.0115
  493       OES    1  MOL    O493   493  -0.3300000   15.9994
  494       CO4    1  MOL    C494   494   0.5100000   12.0115
  495         O    1  MOL    O495   495  -0.4300000   15.9994
  496        CT    1  MOL    C496   496  -0.1200000   12.0115
  497        CT    1  MOL    C497   497  -0.1200000   12.0115
  498        CT    1  MOL    C498   498  -0.1200000   12.0115
  499        CT    1  MOL    C499   499  -0.1200000   12.0115
  500       CO4    1  MOL    C500   500   0.5100000   12.0115
  501         O    1  MOL    O501   501  -0.4300000   15.9994
  502       HAE    1  MOL    H502   502   0.0300000    1.0080
  503       HAE    1  MOL    H503   503   0.0300000    1.0080
  504        HC    1  MOL    H504   504   0.0600000    1.0080
  505        HC    1  MOL    H505   505   0.0600000    1.0080
  506        HC    1  MOL    H506   506   0.0600000    1.0080
  507        HC    1  MOL    H507   507   0.0600000    1.0080
  508        HC    1  MOL    H508   508   0.0600000    1.0080
  509        HC    1  MOL    H509   509   0.0600000    1.0080
  510        HC    1  MOL    H510   510   0.0600000    1.0080
  511        HC    1  MOL    H511   511   0.0600000    1.0080
  512        HC    1  MOL    H512   512   0.0600000    1.0080
  513        HC    1  MOL    H513   513   0.0600000    1.0080
  514        HC    1  MOL    H514   514   0.0600000    1.0080
  515        HC    1  MOL    H515   515   0.0600000    1.0080
  516        HC    1  MOL    H516   516   0.0600000    1.0080
  517        HC    1  MOL    H517   517   0.0600000    1.0080
  518        HC    1  MOL    H518   518   0.0600000    1.0080
  519        HC    1  MOL    H519   519   0.0600000    1.0080
  520       HAE    1  MOL    H520   520   0.0300000    1.0080
  521       HAE    1  MOL    H521   521   0.0300000    1.0080
  522       HAE    1  MOL    H522   522   0.0600000    1.0080
  523       HAE    1  MOL    H523   523   0.0600000    1.0080
  524        HC    1  MOL    H524   524   0.0600000    1.0080
  525        HC    1  MOL    H525   525   0.0600000    1.0080
  526        HC    1  MOL    H526   526   0.0600000    1.0080
  527        HC    1  MOL    H527   527   0.0600000    1.0080
  528       HAE    1  MOL    H528   528   0.0600000    1.0080
  529       HAE    1  MOL    H529   529   0.0600000    1.0080
  530       OES    1  MOL    O530   530  -0.3300000   15.9994
  531        CT    1  MOL    C531   531   0.1900000   12.0115
  532        CT    1  MOL    C532   532  -0.1200000   12.0115
  533        CT    1  MOL    C533   533  -0.1200000   12.0115
  534        CT    1  MOL    C534   534  -0.1200000   12.0115
  535        CT    1  MOL    C535   535  -0.1200000   12.0115
  536        CT    1  MOL    C536   536  -0.1200000   12.0115
  537        CT    1  MOL    C537   537  -0.1200000   12.0115
  538        CT    1  MOL    C538   538  -0.1200000   12.0115
  539        CT    1  MOL    C539   539  -0.1200000   12.0115
  540        CT    1  MOL    C540   540   0.1900000   12.0115
  541       OES    1  MOL    O541   541  -0.3300000   15.9994
  542       CO4    1  MOL    C542   542   0.5100000   12.0115
  543         O    1  MOL    O543   543  -0.4300000   15.9994
  544        CT    1  MOL    C544   544  -0.1200000   12.0115
  545        CT    1  MOL    C545   545  -0.1200000   12.0115
  546        CT    1  MOL    C546   546  -0.1200000   12.0115
  547        CT    1  MOL    C547   547  -0.1200000   12.0115
  548       CO4    1  MOL    C548   548   0.5100000   12.0115
  549         O    1  MOL    O549   549  -0.4300000   15.9994
  550       HAE    1  MOL    H550   550   0.0300000    1.0080
  551       HAE    1  MOL    H551   551   0.0300000    1.0080
  552        HC    1  MOL    H552   552   0.0600000    1.0080
  553        HC    1  MOL    H553   553   0.0600000    1.0080
  554        HC    1  MOL    H554   554   0.0600000    1.0080
  555        HC    1  MOL    H555   555   0.0600000    1.0080
  556        HC    1  MOL    H556   556   0.0600000    1.0080
  557        HC    1  MOL    H557   557   0.0600000    1.0080
  558        HC    1  MOL    H558   558   0.0600000    1.0080
  559        HC    1  MOL    H559   559   0.0600000    1.0080
  560        HC    1  MOL    H560   560   0.0600000    1.0080
  561        HC    1  MOL    H561   561   0.0600000    1.0080
  562        HC    1  MOL    H562   562   0.0600000    1.0080
  563        HC    1  MOL    H563   563   0.0600000    1.0080
  564        HC    1  MOL    H564   564   0.0600000    1.0080
  565        HC    1  MOL    H565   565   0.0600000    1.0080
  566        HC    1  MOL    H566   566   0.0600000    1.0080
  567        HC    1  MOL    H567   567   0.0600000    1.0080
  568       HAE    1  MOL    H568   568   0.0300000    1.0080
  569       HAE    1  MOL    H569   569   0.0300000    1.0080
  570       HAE    1  MOL    H570   570   0.0600000    1.0080
  571       HAE    1  MOL    H571   571   0.0600000    1.0080
  572        HC    1  MOL    H572   572   0.0600000    1.0080
  573        HC    1  MOL    H573   573   0.0600000    1.0080
  574        HC    1  MOL    H574   574   0.0600000    1.0080
  575        HC    1  MOL    H575   575   0.0600000    1.0080
  576       HAE    1  MOL    H576   576   0.0600000    1.0080
  577       HAE    1  MOL    H577   577   0.0600000    1.0080
  578       OES    1  MOL    O578   578  -0.3300000   15.9994
  579        CT    1  MOL    C579   579   0.1900000   12.0115
  580        CT    1  MOL    C580   580  -0.1200000   12.0115
  581        CT    1  MOL    C581   581  -0.1200000   12.0115
  582        CT    1  MOL    C582   582  -0.1200000   12.0115
  583        CT    1  MOL    C583   583  -0.1200000   12.0115
  584        CT    1  MOL    C584   584  -0.1200000   12.0115
  585        CT    1  MOL    C585   585  -0.1200000   12.0115
  586        CT    1  MOL    C586   586  -0.1200000   12.0115
  587        CT    1  MOL    C587   587  -0.1200000   12.0115
  588        CT    1  MOL    C588   588   0.1900000   12.0115
  589       OES    1  MOL    O589   589  -0.3300000   15.9994
  590       CO4    1  MOL    C590   590   0.5100000   12.0115
  591         O    1  MOL    O591   591  -0.4300000   15.9994
  592        CT    1  MOL    C592   592  -0.1200000   12.0115
  593        CT    1  MOL    C593   593  -0.1200000   12.0115
  594        CT    1  MOL    C594   594  -0.1200000   12.0115
  595        CT    1  MOL    C595   595  -0.1200000   12.0115
  596       CO4    1  MOL    C596   596   0.5100000   12.0115
  597         O    1  MOL    O597   597  -0.4300000   15.9994
  598       HAE    1  MOL    H598   598   0.0300000    1.0080
  599       HAE    1  MOL    H599   599   0.0300000    1.0080
  600        HC    1  MOL    H600   600   0.0600000    1.0080
  601        HC    1  MOL    H601   601   0.0600000    1.0080
  602        HC    1  MOL    H602   602   0.0600000    1.0080
  603        HC    1  MOL    H603   603   0.0600000    1.0080
  604        HC    1  MOL    H604   604   0.0600000    1.0080
  605        HC    1  MOL    H605   605   0.0600000    1.0080
  606        HC    1  MOL    H606   606   0.0600000    1.0080
  607        HC    1  MOL    H607   607   0.0600000    1.0080
  608        HC    1  MOL    H608   608   0.0600000    1.0080
  609        HC    1  MOL    H609   609   0.0600000    1.0080
  610        HC    1  MOL    H610   610   0.0600000    1.0080
  611        HC    1  MOL    H611   611   0.0600000    1.0080
  612        HC    1  MOL    H612   612   0.0600000    1.0080
  613        HC    1  MOL    H613   613   0.0600000    1.0080
  614        HC    1  MOL    H614   614   0.0600000    1.0080
  615        HC    1  MOL    H615   615   0.0600000    1.0080
  616       HAE    1  MOL    H616   616   0.0300000    1.0080
  617       HAE    1  MOL    H617   617   0.0300000    1.0080
  618       HAE    1  MOL    H618   618   0.0600000    1.0080
  619       HAE    1  MOL    H619   619   0.0600000    1.0080
  620        HC    1  MOL    H620   620   0.0600000    1.0080
  621        HC    1  MOL    H621   621   0.0600000    1.0080
  622        HC    1  MOL    H622   622   0.0600000    1.0080
  623        HC    1  MOL    H623   623   0.0600000    1.0080
  624       HAE    1  MOL    H624   624   0.0600000    1.0080
  625       HAE    1  MOL    H625   625   0.0600000    1.0080
  626       OES    1  MOL    O626   626  -0.3300000   15.9994
  627        CT    1  MOL    C627   627   0.1900000   12.0115
  628        CT    1  MOL    C628   628  -0.1200000   12.0115
  629        CT    1  MOL    C629   629  -0.1200000   12.0115
  630        CT    1  MOL    C630   630  -0.1200000   12.0115
  631        CT    1  MOL    C631   631  -0.1200000   12.0115
  632        CT    1  MOL    C632   632  -0.1200000   12.0115
  633        CT    1  MOL    C633   633  -0.1200000   12.0115
  634        CT    1  MOL    C634   634  -0.1200000   12.0115
  635        CT    1  MOL    C635   635  -0.1200000   12.0115
  636        CT    1  MOL    C636   636   0.1900000   12.0115
  637       OES    1  MOL    O637   637  -0.3300000   15.9994
  638       CO4    1  MOL    C638   638   0.5100000   12.0115
  639         O    1  MOL    O639   639  -0.4300000   15.9994
  640        CT    1  MOL    C640   640  -0.1200000   12.0115
  641        CT    1  MOL    C641   641  -0.1200000   12.0115
  642        CT    1  MOL    C642   642  -0.1200000   12.0115
  643        CT    1  MOL    C643   643  -0.1200000   12.0115
  644       CO4    1  MOL    C644   644   0.5100000   12.0115
  645         O    1  MOL    O645   645  -0.4300000   15.9994
  646       HAE    1  MOL    H646   646   0.0300000    1.0080
  647       HAE    1  MOL    H647   647   0.0300000    1.0080
  648        HC    1  MOL    H648   648   0.0600000    1.0080
  649        HC    1  MOL    H649   649   0.0600000    1.0080
  650        HC    1  MOL    H650   650   0.0600000    1.0080
  651        HC    1  MOL    H651   651   0.0600000    1.0080
  652        HC    1  MOL    H652   652   0.0600000    1.0080
  653        HC    1  MOL    H653   653   0.0600000    1.0080
  654        HC    1  MOL    H654   654   0.0600000    1.0080
  655        HC    1  MOL    H655   655   0.0600000    1.0080
  656        HC    1  MOL    H656   656   0.0600000    1.0080
  657        HC    1  MOL    H657   657   0.0600000    1.0080
  658        HC    1  MOL    H658   658   0.0600000    1.0080
  659        HC    1  MOL    H659   659   0.0600000    1.0080
  660        HC    1  MOL    H660   660   0.0600000    1.0080
  661        HC    1  MOL    H661   661   0.0600000    1.0080
  662        HC    1  MOL    H662   662   0.0600000    1.0080
  663        HC    1  MOL    H663   663   0.0600000    1.0080
  664       HAE    1  MOL    H664   664   0.0300000    1.0080
  665       HAE    1  MOL    H665   665   0.0300000    1.0080
  666       HAE    1  MOL    H666   666   0.0600000    1.0080
  667       HAE    1  MOL    H667   667   0.0600000    1.0080
  668        HC    1  MOL    H668   668   0.0600000    1.0080
  669        HC    1  MOL    H669   669   0.0600000    1.0080
  670        HC    1  MOL    H670   670   0.0600000    1.0080
  671        HC    1  MOL    H671   671   0.0600000    1.0080
  672       HAE    1  MOL    H672   672   0.0600000    1.0080
  673       HAE    1  MOL    H673   673   0.0600000    1.0080
  674       OES    1  MOL    O674   674  -0.3300000   15.9994
  675        CT    1  MOL    C675   675   0.1900000   12.0115
  676        CT    1  MOL    C676   676  -0.1200000   12.0115
  677        CT    1  MOL    C677   677  -0.1200000   12.0115
  678        CT    1  MOL    C678   678  -0.1200000   12.0115
  679        CT    1  MOL    C679   679  -0.1200000   12.0115
  680        CT    1  MOL    C680   680  -0.1200000   12.0115
  681        CT    1  MOL    C681   681  -0.1200000   12.0115
  682        CT    1  MOL    C682   682  -0.1200000   12.0115
  683        CT    1  MOL    C683   683  -0.1200000   12.0115
  684        CT    1  MOL    C684   684   0.1900000   12.0115
  685       OES    1  MOL    O685   685  -0.3300000   15.9994
  686       CO4    1  MOL    C686   686   0.5100000   12.0115
  687         O    1  MOL    O687   687  -0.4300000   15.9994
  688        CT    1  MOL    C688   688  -0.1200000   12.0115
  689        CT    1  MOL    C689   689  -0.1200000   12.0115
  690        CT    1  MOL    C690   690  -0.1200000   12.0115
  691        CT    1  MOL    C691   691  -0.1200000   12.0115
  692       CO4    1  MOL    C692   692   0.5100000   12.0115
  693         O    1  MOL    O693   693  -0.4300000   15.9994
  694       HAE    1  MOL    H694   694   0.0300000    1.0080
  695       HAE    1  MOL    H695   695   0.0300000    1.0080
  696        HC    1  MOL    H696   696   0.0600000    1.0080
  697        HC    1  MOL    H697   697   0.0600000    1.0080
  698        HC    1  MOL    H698   698   0.0600000    1.0080
  699        HC    1  MOL    H699   699   0.0600000    1.0080
  700        HC    1  MOL    H700   700   0.0600000    1.0080
  701        HC    1  MOL    H701   701   0.0600000    1.0080
  702        HC    1  MOL    H702   702   0.0600000    1.0080
  703        HC    1  MOL    H703   703   0.0600000    1.0080
  704        HC    1  MOL    H704   704   0.0600000    1.0080
  705        HC    1  MOL    H705   705   0.0600000    1.0080
  706        HC    1  MOL    H706   706   0.0600000    1.0080
  707        HC    1  MOL    H707   707   0.0600000    1.0080
  708        HC    1  MOL    H708   708   0.0600000    1.0080
  709        HC    1  MOL    H709   709   0.0600000    1.0080
  710        HC    1  MOL    H710   710   0.0600000    1.0080
  711        HC    1  MOL    H711   711   0.0600000    1.0080
  712       HAE    1  MOL    H712   712   0.0300000    1.0080
  713       HAE    1  MOL    H713   713   0.0300000    1.0080
  714       HAE    1  MOL    H714   714   0.0600000    1.0080
  715       HAE    1  MOL    H715   715   0.0600000    1.0080
  716        HC    1  MOL    H716   716   0.0600000    1.0080
  717        HC    1  MOL    H717   717   0.0600000    1.0080
  718        HC    1  MOL    H718   718   0.0600000    1.0080
  719        HC    1  MOL    H719   719   0.0600000    1.0080
  720       HAE    1  MOL    H720   720   0.0600000    1.0080
  721       HAE    1  MOL    H721   721   0.0600000    1.0080
  722       OES    1  MOL    O722   722  -0.3300000   15.9994
  723        CT    1  MOL    C723   723   0.1900000   12.0115
  724        CT    1  MOL    C724   724  -0.1200000   12.0115
  725        CT    1  MOL    C725   725  -0.1200000   12.0115
  726        CT    1  MOL    C726   726  -0.1200000   12.0115
  727        CT    1  MOL    C727   727  -0.1200000   12.0115
  728        CT    1  MOL    C728   728  -0.1200000   12.0115
  729        CT    1  MOL    C729   729  -0.1200000   12.0115
  730        CT    1  MOL    C730   730  -0.1200000   12.0115
  731        CT    1  MOL    C731   731  -0.1200000   12.0115
  732        CT    1  MOL    C732   732   0.1900000   12.0115
  733       OES    1  MOL    O733   733  -0.3300000   15.9994
  734       CO4    1  MOL    C734   734   0.5100000   12.0115
  735         O    1  MOL    O735   735  -0.4300000   15.9994
  736        CT    1  MOL    C736   736  -0.1200000   12.0115
  737        CT    1  MOL    C737   737  -0.1200000   12.0115
  738        CT    1  MOL    C738   738  -0.1200000   12.0115
  739        CT    1  MOL    C739   739  -0.1200000   12.0115
  740       CO4    1  MOL    C740   740   0.5100000   12.0115
  741         O    1  MOL    O741   741  -0.4300000   15.9994
  742       HAE    1  MOL    H742   742   0.0300000    1.0080
  743       HAE    1  MOL    H743   743   0.0300000    1.0080
  744        HC    1  MOL    H744   744   0.0600000    1.0080
  745        HC    1  MOL    H745   745   0.0600000    1.0080
  746        HC    1  MOL    H746   746   0.0600000    1.0080
  747        HC    1  MOL    H747   747   0.0600000    1.0080
  748        HC    1  MOL    H748   748   0.0600000    1.0080
  749        HC    1  MOL    H749   749   0.0600000    1.0080
  750        HC    1  MOL    H750   750   0.0600000    1.0080
  751        HC    1  MOL    H751   751   0.0600000    1.0080
  752        HC    1  MOL    H752   752   0.0600000    1.0080
  753        HC    1  MOL    H753   753   0.0600000    1.0080
  754        HC    1  MOL    H754   754   0.0600000    1.0080
  755        HC    1  MOL    H755   755   0.0600000    1.0080
  756        HC    1  MOL    H756   756   0.0600000    1.0080
  757        HC    1  MOL    H757   757   0.0600000    1.0080
  758        HC    1  MOL    H758   758   0.0600000    1.0080
  759        HC    1  MOL    H759   759   0.0600000    1.0080
  760       HAE    1  MOL    H760   760   0.0300000    1.0080
  761       HAE    1  MOL    H761   761   0.0300000    1.0080
  762       HAE    1  MOL    H762   762   0.0600000    1.0080
  763       HAE    1  MOL    H763   763   0.0600000    1.0080
  764        HC    1  MOL    H764   764   0.0600000    1.0080
  765        HC    1  MOL    H765   765   0.0600000    1.0080
  766        HC    1  MOL    H766   766   0.0600000    1.0080
  767        HC    1  MOL    H767   767   0.0600000    1.0080
  768       HAE    1  MOL    H768   768   0.0600000    1.0080
  769       HAE    1  MOL    H769   769   0.0600000    1.0080
  770       OES    1  MOL    O770   770  -0.3300000   15.9994
  771        CT    1  MOL    C771   771   0.1900000   12.0115
  772        CT    1  MOL    C772   772  -0.1200000   12.0115
  773        CT    1  MOL    C773   773  -0.1200000   12.0115
  774        CT    1  MOL    C774   774  -0.1200000   12.0115
  775        CT    1  MOL    C775   775  -0.1200000   12.0115
  776        CT    1  MOL    C776   776  -0.1200000   12.0115
  777        CT    1  MOL    C777   777  -0.1200000   12.0115
  778        CT    1  MOL    C778   778  -0.1200000   12.0115
  779        CT    1  MOL    C779   779  -0.1200000   12.0115
  780        CT    1  MOL    C780   780   0.1900000   12.0115
  781       OES    1  MOL    O781   781  -0.3300000   15.9994
  782       CO4    1  MOL    C782   782   0.5100000   12.0115
  783         O    1  MOL    O783   783  -0.4300000   15.9994
  784        CT    1  MOL    C784   784  -0.1200000   12.0115
  785        CT    1  MOL    C785   785  -0.1200000   12.0115
  786        CT    1  MOL    C786   786  -0.1200000   12.0115
  787        CT    1  MOL    C787   787  -0.1200000   12.0115
  788       CO4    1  MOL    C788   788   0.5100000   12.0115
  789         O    1  MOL    O789   789  -0.4300000   15.9994
  790       HAE    1  MOL    H790   790   0.0300000    1.0080
  791       HAE    1  MOL    H791   791   0.0300000    1.0080
  792        HC    1  MOL    H792   792   0.0600000    1.0080
  793        HC    1  MOL    H793   793   0.0600000    1.0080
  794        HC    1  MOL    H794   794   0.0600000    1.0080
  795        HC    1  MOL    H795   795   0.0600000    1.0080
  796        HC    1  MOL    H796   796   0.0600000    1.0080
  797        HC    1  MOL    H797   797   0.0600000    1.0080
  798        HC    1  MOL    H798   798   0.0600000    1.0080
  799        HC    1  MOL    H799   799   0.0600000    1.0080
  800        HC    1  MOL    H800   800   0.0600000    1.0080
  801        HC    1  MOL    H801   801   0.0600000    1.0080
  802        HC    1  MOL    H802   802   0.0600000    1.0080
  803        HC    1  MOL    H803   803   0.0600000    1.0080
  804        HC    1  MOL    H804   804   0.0600000    1.0080
  805        HC    1  MOL    H805   805   0.0600000    1.0080
  806        HC    1  MOL    H806   806   0.0600000    1.0080
  807        HC    1  MOL    H807   807   0.0600000    1.0080
  808       HAE    1  MOL    H808   808   0.0300000    1.0080
  809       HAE    1  MOL    H809   809   0.0300000    1.0080
  810       HAE    1  MOL    H810   810   0.0600000    1.0080
  811       HAE    1  MOL    H811   811   0.0600000    1.0080
  812        HC    1  MOL    H812   812   0.0600000    1.0080
  813        HC    1  MOL    H813   813   0.0600000    1.0080
  814        HC    1  MOL    H814   814   0.0600000    1.0080
  815        HC    1  MOL    H815   815   0.0600000    1.0080
  816       HAE    1  MOL    H816   816   0.0600000    1.0080
  817       HAE    1  MOL    H817   817   0.0600000    1.0080
  818       OES    1  MOL    O818   818  -0.3300000   15.9994
  819        CT    1  MOL    C819   819   0.1900000   12.0115
  820        CT    1  MOL    C820   820  -0.1200000   12.0115
  821        CT    1  MOL    C821   821  -0.1200000   12.0115
  822        CT    1  MOL    C822   822  -0.1200000   12.0115
  823        CT    1  MOL    C823   823  -0.1200000   12.0115
  824        CT    1  MOL    C824   824  -0.1200000   12.0115
  825        CT    1  MOL    C825   825  -0.1200000   12.0115
  826        CT    1  MOL    C826   826  -0.1200000   12.0115
  827        CT    1  MOL    C827   827  -0.1200000   12.0115
  828        CT    1  MOL    C828   828   0.1900000   12.0115
  829       OES    1  MOL    O829   829  -0.3300000   15.9994
  830       CO4    1  MOL    C830   830   0.5100000   12.0115
  831         O    1  MOL    O831   831  -0.4300000   15.9994
  832        CT    1  MOL    C832   832  -0.1200000   12.0115
  833        CT    1  MOL    C833   833  -0.1200000   12.0115
  834        CT    1  MOL    C834   834  -0.1200000   12.0115
  835        CT    1  MOL    C835   835  -0.1200000   12.0115
  836       CO4    1  MOL    C836   836   0.5100000   12.0115
  837         O    1  MOL    O837   837  -0.4300000   15.9994
  838       HAE    1  MOL    H838   838   0.0300000    1.0080
  839       HAE    1  MOL    H839   839   0.0300000    1.0080
  840        HC    1  MOL    H840   840   0.0600000    1.0080
  841        HC    1  MOL    H841   841   0.0600000    1.0080
  842        HC    1  MOL    H842   842   0.0600000    1.0080
  843        HC    1  MOL    H843   843   0.0600000    1.0080
  844        HC    1  MOL    H844   844   0.0600000    1.0080
  845        HC    1  MOL    H845   845   0.0600000    1.0080
  846        HC    1  MOL    H846   846   0.0600000    1.0080
  847        HC    1  MOL    H847   847   0.0600000    1.0080
  848        HC    1  MOL    H848   848   0.0600000    1.0080
  849        HC    1  MOL    H849   849   0.0600000    1.0080
  850        HC    1  MOL    H850   850   0.0600000    1.0080
  851        HC    1  MOL    H851   851   0.0600000    1.0080
  852        HC    1  MOL    H852   852   0.0600000    1.0080
  853        HC    1  MOL    H853   853   0.0600000    1.0080
  854        HC    1  MOL    H854   854   0.0600000    1.0080
  855        HC    1  MOL    H855   855   0.0600000    1.0080
  856       HAE    1  MOL    H856   856   0.0300000    1.0080
  857       HAE    1  MOL    H857   857   0.0300000    1.0080
  858       HAE    1  MOL    H858   858   0.0600000    1.0080
  859       HAE    1  MOL    H859   859   0.0600000    1.0080
  860        HC    1  MOL    H860   860   0.0600000    1.0080
  861        HC    1  MOL    H861   861   0.0600000    1.0080
  862        HC    1  MOL    H862   862   0.0600000    1.0080
  863        HC    1  MOL    H863   863   0.0600000    1.0080
  864       HAE    1  MOL    H864   864   0.0600000    1.0080
  865       HAE    1  MOL    H865   865   0.0600000    1.0080
  866       OES    1  MOL    O866   866  -0.3300000   15.9994
  867        CT    1  MOL    C867   867   0.1900000   12.0115
  868        CT    1  MOL    C868   868  -0.1200000   12.0115
  869        CT    1  MOL    C869   869  -0.1200000   12.0115
  870        CT    1  MOL    C870   870  -0.1200000   12.0115
  871        CT    1  MOL    C871   871  -0.1200000   12.0115
  872        CT    1  MOL    C872   872  -0.1200000   12.0115
  873        CT    1  MOL    C873   873  -0.1200000   12.0115
  874        CT    1  MOL    C874   874  -0.1200000   12.0115
  875        CT    1  MOL    C875   875  -0.1200000   12.0115
  876        CT    1  MOL    C876   876   0.1900000   12.0115
  877       OES    1  MOL    O877   877  -0.3300000   15.9994
  878       CO4    1  MOL    C878   878   0.5100000   12.0115
  879         O    1  MOL    O879   879  -0.4300000   15.9994
  880        CT    1  MOL    C880   880  -0.1200000   12.0115
  881        CT    1  MOL    C881   881  -0.1200000   12.0115
  882        CT    1  MOL    C882   882  -0.1200000   12.0115
  883        CT    1  MOL    C883   883  -0.1200000   12.0115
  884       CO4    1  MOL    C884   884   0.5100000   12.0115
  885         O    1  MOL    O885   885  -0.4300000   15.9994
  886       HAE    1  MOL    H886   886   0.0300000    1.0080
  887       HAE    1  MOL    H887   887   0.0300000    1.0080
  888        HC    1  MOL    H888   888   0.0600000    1.0080
  889        HC    1  MOL    H889   889   0.0600000    1.0080
  890        HC    1  MOL    H890   890   0.0600000    1.0080
  891        HC    1  MOL    H891   891   0.0600000    1.0080
  892        HC    1  MOL    H892   892   0.0600000    1.0080
  893        HC    1  MOL    H893   893   0.0600000    1.0080
  894        HC    1  MOL    H894   894   0.0600000    1.0080
  895        HC    1  MOL    H895   895   0.0600000    1.0080
  896        HC    1  MOL    H896   896   0.0600000    1.0080
  897        HC    1  MOL    H897   897   0.0600000    1.0080
  898        HC    1  MOL    H898   898   0.0600000    1.0080
  899        HC    1  MOL    H899   899   0.0600000    1.0080
  900        HC    1  MOL    H900   900   0.0600000    1.0080
  901        HC    1  MOL    H901   901   0.0600000    1.0080
  902        HC    1  MOL    H902   902   0.0600000    1.0080
  903        HC    1  MOL    H903   903   0.0600000    1.0080
  904       HAE    1  MOL    H904   904   0.0300000    1.0080
  905       HAE    1  MOL    H905   905   0.0300000    1.0080
  906       HAE    1  MOL    H906   906   0.0600000    1.0080
  907       HAE    1  MOL    H907   907   0.0600000    1.0080
  908        HC    1  MOL    H908   908   0.0600000    1.0080
  909        HC    1  MOL    H909   909   0.0600000    1.0080
  910        HC    1  MOL    H910   910   0.0600000    1.0080
  911        HC    1  MOL    H911   911   0.0600000    1.0080
  912       HAE    1  MOL    H912   912   0.0600000    1.0080
  913       HAE    1  MOL    H913   913   0.0600000    1.0080
  914       OES    1  MOL    O914   914  -0.3300000   15.9994
  915        CT    1  MOL    C915   915   0.1900000   12.0115
  916        CT    1  MOL    C916   916  -0.1200000   12.0115
  917        CT    1  MOL    C917   917  -0.1200000   12.0115
  918        CT    1  MOL    C918   918  -0.1200000   12.0115
  919        CT    1  MOL    C919   919  -0.1200000   12.0115
  920        CT    1  MOL    C920   920  -0.1200000   12.0115
  921        CT    1  MOL    C921   921  -0.1200000   12.0115
  922        CT    1  MOL    C922   922  -0.1200000   12.0115
  923        CT    1  MOL    C923   923  -0.1200000   12.0115
  924        CT    1  MOL    C924   924   0.1900000   12.0115
  925       OES    1  MOL    O925   925  -0.3300000   15.9994
  926       CO4    1  MOL    C926   926   0.5100000   12.0115
  927         O    1  MOL    O927   927  -0.4300000   15.9994
  928        CT    1  MOL    C928   928  -0.1200000   12.0115
  929        CT    1  MOL    C929   929  -0.1200000   12.0115
  930        CT    1  MOL    C930   930  -0.1200000   12.0115
  931        CT    1  MOL    C931   931  -0.1200000   12.0115
  932       CO4    1  MOL    C932   932   0.4500000   12.0115
  933         O    1  MOL    O933   933  -0.4500000   15.9994
  934       HAE    1  MOL    H934   934   0.0300000    1.0080
  935       HAE    1  MOL    H935   935   0.0300000    1.0080
  936        HC    1  MOL    H936   936   0.0600000    1.0080
  937        HC    1  MOL    H937   937   0.0600000    1.0080
  938        HC    1  MOL    H938   938   0.0600000    1.0080
  939        HC    1  MOL    H939   939   0.0600000    1.0080
  940        HC    1  MOL    H940   940   0.0600000    1.0080
  941        HC    1  MOL    H941   941   0.0600000    1.0080
  942        HC    1  MOL    H942   942   0.0600000    1.0080
  943        HC    1  MOL    H943   943   0.0600000    1.0080
  944        HC    1  MOL    H944   944   0.0600000    1.0080
  945        HC    1  MOL    H945   945   0.0600000    1.0080
  946        HC    1  MOL    H946   946   0.0600000    1.0080
  947        HC    1  MOL    H947   947   0.0600000    1.0080
  948        HC    1  MOL    H948   948   0.0600000    1.0080
  949        HC    1  MOL    H949   949   0.0600000    1.0080
  950        HC    1  MOL    H950   950   0.0600000    1.0080
  951        HC    1  MOL    H951   951   0.0600000    1.0080
  952       HAE    1  MOL    H952   952   0.0300000    1.0080
  953       HAE    1  MOL    H953   953   0.0300000    1.0080
  954       HAE    1  MOL    H954   954   0.0600000    1.0080
  955       HAE    1  MOL    H955   955   0.0600000    1.0080
  956        HC    1  MOL    H956   956   0.0600000    1.0080
  957        HC    1  MOL    H957   957   0.0600000    1.0080
  958        HC    1  MOL    H958   958   0.0600000    1.0080
  959        HC    1  MOL    H959   959   0.0600000    1.0080
  960       HAE    1  MOL    H960   960   0.0600000    1.0080
  961       HAE    1  MOL    H961   961   0.0600000    1.0080
  962       HAE    1  MOL    H962   962   0.0000000    1.0080

[ bonds ]
      1      2   1      0.1410 267776.0000
      1     49   1      0.0945 462750.4000
      2      3   1      0.1529 224262.4000
      2     21   1      0.1090 284512.0000
      2     22   1      0.1090 284512.0000
      3      4   1      0.1529 224262.4000
      3     23   1      0.1090 284512.0000
      3     24   1      0.1090 284512.0000
      4      5   1      0.1529 224262.4000
      4     25   1      0.1090 284512.0000
      4     26   1      0.1090 284512.0000
      5      6   1      0.1529 224262.4000
      5     27   1      0.1090 284512.0000
      5     28   1      0.1090 284512.0000
      6      7   1      0.1529 224262.4000
      6     29   1      0.1090 284512.0000
      6     30   1      0.1090 284512.0000
      7      8   1      0.1529 224262.4000
      7     31   1      0.1090 284512.0000
      7     32   1      0.1090 284512.0000
      8      9   1      0.1529 224262.4000
      8     33   1      0.1090 284512.0000
      8     34   1      0.1090 284512.0000
      9     10   1      0.1529 224262.4000
      9     35   1      0.1090 284512.0000
      9     36   1      0.1090 284512.0000
     10     11   1      0.1529 224262.4000
     10     37   1      0.1090 284512.0000
     10     38   1      0.1090 284512.0000
     11     12   1      0.1410 267776.0000
     11     39   1      0.1090 284512.0000
     11     40   1      0.1090 284512.0000
     12     13   1      0.1327 179075.2000
     13     14   1      0.1229 476976.0000
     13     15   1      0.1522 265265.6000
     15     16   1      0.1529 224262.4000
     15     41   1      0.1090 284512.0000
     15     42   1      0.1090 284512.0000
     16     17   1      0.1529 224262.4000
     16     43   1      0.1090 284512.0000
     16     44   1      0.1090 284512.0000
     17     18   1      0.1529 224262.4000
     17     45   1      0.1090 284512.0000
     17     46   1      0.1090 284512.0000
     18     19   1      0.1522 265265.6000
     18     47   1      0.1090 284512.0000
     18     48   1      0.1090 284512.0000
     19     20   1      0.1229 476976.0000
     19     50   1      0.1327 179075.2000
     50     51   1      0.1410 267776.0000
     51     52   1      0.1529 224262.4000
     51     70   1      0.1090 284512.0000
     51     71   1      0.1090 284512.0000
     52     53   1      0.1529 224262.4000
     52     72   1      0.1090 284512.0000
     52     73   1      0.1090 284512.0000
     53     54   1      0.1529 224262.4000
     53     74   1      0.1090 284512.0000
     53     75   1      0.1090 284512.0000
     54     55   1      0.1529 224262.4000
     54     76   1      0.1090 284512.0000
     54     77   1      0.1090 284512.0000
     55     56   1      0.1529 224262.4000
     55     78   1      0.1090 284512.0000
     55     79   1      0.1090 284512.0000
     56     57   1      0.1529 224262.4000
     56     80   1      0.1090 284512.0000
     56     81   1      0.1090 284512.0000
     57     58   1      0.1529 224262.4000
     57     82   1      0.1090 284512.0000
     57     83   1      0.1090 284512.0000
     58     59   1      0.1529 224262.4000
     58     84   1      0.1090 284512.0000
     58     85   1      0.1090 284512.0000
     59     60   1      0.1529 224262.4000
     59     86   1      0.1090 284512.0000
     59     87   1      0.1090 284512.0000
     60     61   1      0.1410 267776.0000
     60     88   1      0.1090 284512.0000
     60     89   1      0.1090 284512.0000
     61     62   1      0.1327 179075.2000
     62     63   1      0.1229 476976.0000
     62     64   1      0.1522 265265.6000
     64     65   1      0.1529 224262.4000
     64     90   1      0.1090 284512.0000
     64     91   1      0.1090 284512.0000
     65     66   1      0.1529 224262.4000
     65     92   1      0.1090 284512.0000
     65     93   1      0.1090 284512.0000
     66     67   1      0.1529 224262.4000
     66     94   1      0.1090 284512.0000
     66     95   1      0.1090 284512.0000
     67     68   1      0.1522 265265.6000
     67     96   1      0.1090 284512.0000
     67     97   1      0.1090 284512.0000
     68     69   1      0.1229 476976.0000
     68     98   1      0.1327 179075.2000
     98     99   1      0.1410 267776.0000
     99    100   1      0.1529 224262.4000
     99    118   1      0.1090 284512.0000
     99    119   1      0.1090 284512.0000
    100    101   1      0.1529 224262.4000
    100    120   1      0.1090 284512.0000
    100    121   1      0.1090 284512.0000
    101    102   1      0.1529 224262.4000
    101    122   1      0.1090 284512.0000
    101    123   1      0.1090 284512.0000
    102    103   1      0.1529 224262.4000
    102    124   1      0.1090 284512.0000
    102    125   1      0.1090 284512.0000
    103    104   1      0.1529 224262.4000
    103    126   1      0.1090 284512.0000
    103    127   1      0.1090 284512.0000
    104    105   1      0.1529 224262.4000
    104    128   1      0.1090 284512.0000
    104    129   1      0.1090 284512.0000
    105    106   1      0.1529 224262.4000
    105    130   1      0.1090 284512.0000
    105    131   1      0.1090 284512.0000
    106    107   1      0.1529 224262.4000
    106    132   1      0.1090 284512.0000
    106    133   1      0.1090 284512.0000
    107    108   1      0.1529 224262.4000
    107    134   1      0.1090 284512.0000
    107    135   1      0.1090 284512.0000
    108    109   1      0.1410 267776.0000
    108    136   1      0.1090 284512.0000
    108    137   1      0.1090 284512.0000
    109    110   1      0.1327 179075.2000
    110    111   1      0.1229 476976.0000
    110    112   1      0.1522 265265.6000
    112    113   1      0.1529 224262.4000
    112    138   1      0.1090 284512.0000
    112    139   1      0.1090 284512.0000
    113    114   1      0.1529 224262.4000
    113    140   1      0.1090 284512.0000
    113    141   1      0.1090 284512.0000
    114    115   1      0.1529 224262.4000
    114    142   1      0.1090 284512.0000
    114    143   1      0.1090 284512.0000
    115    116   1      0.1522 265265.6000
    115    144   1      0.1090 284512.0000
    115    145   1      0.1090 284512.0000
    116    117   1      0.1229 476976.0000
    116    146   1      0.1327 179075.2000
    146    147   1      0.1410 267776.0000
    147    148   1      0.1529 224262.4000
    147    166   1      0.1090 284512.0000
    147    167   1      0.1090 284512.0000
    148    149   1      0.1529 224262.4000
    148    168   1      0.1090 284512.0000
    148    169   1      0.1090 284512.0000
    149    150   1      0.1529 224262.4000
    149    170   1      0.1090 284512.0000
    149    171   1      0.1090 284512.0000
    150    151   1      0.1529 224262.4000
    150    172   1      0.1090 284512.0000
    150    173   1      0.1090 284512.0000
    151    152   1      0.1529 224262.4000
    151    174   1      0.1090 284512.0000
    151    175   1      0.1090 284512.0000
    152    153   1      0.1529 224262.4000
    152    176   1      0.1090 284512.0000
    152    177   1      0.1090 284512.0000
    153    154   1      0.1529 224262.4000
    153    178   1      0.1090 284512.0000
    153    179   1      0.1090 284512.0000
    154    155   1      0.1529 224262.4000
    154    180   1      0.1090 284512.0000
    154    181   1      0.1090 284512.0000
    155    156   1      0.1529 224262.4000
    155    182   1      0.1090 284512.0000
    155    183   1      0.1090 284512.0000
    156    157   1      0.1410 267776.0000
    156    184   1      0.1090 284512.0000
    156    185   1      0.1090 284512.0000
    157    158   1      0.1327 179075.2000
    158    159   1      0.1229 476976.0000
    158    160   1      0.1522 265265.6000
    160    161   1      0.1529 224262.4000
    160    186   1      0.1090 284512.0000
    160    187   1      0.1090 284512.0000
    161    162   1      0.1529 224262.4000
    161    188   1      0.1090 284512.0000
    161    189   1      0.1090 284512.0000
    162    163   1      0.1529 224262.4000
    162    190   1      0.1090 284512.0000
    162    191   1      0.1090 284512.0000
    163    164   1      0.1522 265265.6000
    163    192   1      0.1090 284512.0000
    163    193   1      0.1090 284512.0000
    164    165   1      0.1229 476976.0000
    164    194   1      0.1327 179075.2000
    194    195   1      0.1410 267776.0000
    195    196   1      0.1529 224262.4000
    195    214   1      0.1090 284512.0000
    195    215   1      0.1090 284512.0000
    196    197   1      0.1529 224262.4000
    196    216   1      0.1090 284512.0000
    196    217   1      0.1090 284512.0000
    197    198   1      0.1529 224262.4000
    197    218   1      0.1090 284512.0000
    197    219   1      0.1090 284512.0000
    198    199   1      0.1529 224262.4000
    198    220   1      0.1090 284512.0000
    198    221   1      0.1090 284512.0000
    199    200   1      0.1529 224262.4000
    199    222   1      0.1090 284512.0000
    199    223   1      0.1090 284512.0000
    200    201   1      0.1529 224262.4000
    200    224   1      0.1090 284512.0000
    200    225   1      0.1090 284512.0000
    201    202   1      0.1529 224262.4000
    201    226   1      0.1090 284512.0000
    201    227   1      0.1090 284512.0000
    202    203   1      0.1529 224262.4000
    202    228   1      0.1090 284512.0000
    202    229   1      0.1090 284512.0000
    203    204   1      0.1529 224262.4000
    203    230   1      0.1090 284512.0000
    203    231   1      0.1090 284512.0000
    204    205   1      0.1410 267776.0000
    204    232   1      0.1090 284512.0000
    204    233   1      0.1090 284512.0000
    205    206   1      0.1327 179075.2000
    206    207   1      0.1229 476976.0000
    206    208   1      0.1522 265265.6000
    208    209   1      0.1529 224262.4000
    208    234   1      0.1090 284512.0000
    208    235   1      0.1090 284512.0000
    209    210   1      0.1529 224262.4000
    209    236   1      0.1090 284512.0000
    209    237   1      0.1090 284512.0000
    210    211   1      0.1529 224262.4000
    210    238   1      0.1090 284512.0000
    210    239   1      0.1090 284512.0000
    211    212   1      0.1522 265265.6000
    211    240   1      0.1090 284512.0000
    211    241   1      0.1090 284512.0000
    212    213   1      0.1229 476976.0000
    212    242   1      0.1327 179075.2000
    242    243   1      0.1410 267776.0000
    243    244   1      0.1529 224262.4000
    243    262   1      0.1090 284512.0000
    243    263   1      0.1090 284512.0000
    244    245   1      0.1529 224262.4000
    244    264   1      0.1090 284512.0000
    244    265   1      0.1090 284512.0000
    245    246   1      0.1529 224262.4000
    245    266   1      0.1090 284512.0000
    245    267   1      0.1090 284512.0000
    246    247   1      0.1529 224262.4000
    246    268   1      0.1090 284512.0000
    246    269   1      0.1090 284512.0000
    247    248   1      0.1529 224262.4000
    247    270   1      0.1090 284512.0000
    247    271   1      0.1090 284512.0000
    248    249   1      0.1529 224262.4000
    248    272   1      0.1090 284512.0000
    248    273   1      0.1090 284512.0000
    249    250   1      0.1529 224262.4000
    249    274   1      0.1090 284512.0000
    249    275   1      0.1090 284512.0000
    250    251   1      0.1529 224262.4000
    250    276   1      0.1090 284512.0000
    250    277   1      0.1090 284512.0000
    251    252   1      0.1529 224262.4000
    251    278   1      0.1090 284512.0000
    251    279   1      0.1090 284512.0000
    252    253   1      0.1410 267776.0000
    252    280   1      0.1090 284512.0000
    252    281   1      0.1090 284512.0000
    253    254   1      0.1327 179075.2000
    254    255   1      0.1229 476976.0000
    254    256   1      0.1522 265265.6000
    256    257   1      0.1529 224262.4000
    256    282   1      0.1090 284512.0000
    256    283   1      0.1090 284512.0000
    257    258   1      0.1529 224262.4000
    257    284   1      0.1090 284512.0000
    257    285   1      0.1090 284512.0000
    258    259   1      0.1529 224262.4000
    258    286   1      0.1090 284512.0000
    258    287   1      0.1090 284512.0000
    259    260   1      0.1522 265265.6000
    259    288   1      0.1090 284512.0000
    259    289   1      0.1090 284512.0000
    260    261   1      0.1229 476976.0000
    260    290   1      0.1327 179075.2000
    290    291   1      0.1410 267776.0000
    291    292   1      0.1529 224262.4000
    291    310   1      0.1090 284512.0000
    291    311   1      0.1090 284512.0000
    292    293   1      0.1529 224262.4000
    292    312   1      0.1090 284512.0000
    292    313   1      0.1090 284512.0000
    293    294   1      0.1529 224262.4000
    293    314   1      0.1090 284512.0000
    293    315   1      0.1090 284512.0000
    294    295   1      0.1529 224262.4000
    294    316   1      0.1090 284512.0000
    294    317   1      0.1090 284512.0000
    295    296   1      0.1529 224262.4000
    295    318   1      0.1090 284512.0000
    295    319   1      0.1090 284512.0000
    296    297   1      0.1529 224262.4000
    296    320   1      0.1090 284512.0000
    296    321   1      0.1090 284512.0000
    297    298   1      0.1529 224262.4000
    297    322   1      0.1090 284512.0000
    297    323   1      0.1090 284512.0000
    298    299   1      0.1529 224262.4000
    298    324   1      0.1090 284512.0000
    298    325   1      0.1090 284512.0000
    299    300   1      0.1529 224262.4000
    299    326   1      0.1090 284512.0000
    299    327   1      0.1090 284512.0000
    300    301   1      0.1410 267776.0000
    300    328   1      0.1090 284512.0000
    300    329   1      0.1090 284512.0000
    301    302   1      0.1327 179075.2000
    302    303   1      0.1229 476976.0000
    302    304   1      0.1522 265265.6000
    304    305   1      0.1529 224262.4000
    304    330   1      0.1090 284512.0000
    304    331   1      0.1090 284512.0000
    305    306   1      0.1529 224262.4000
    305    332   1      0.1090 284512.0000
    305    333   1      0.1090 284512.0000
    306    307   1      0.1529 224262.4000
    306    334   1      0.1090 284512.0000
    306    335   1      0.1090 284512.0000
    307    308   1      0.1522 265265.6000
    307    336   1      0.1090 284512.0000
    307    337   1      0.1090 284512.0000
    308    309   1      0.1229 476976.0000
    308    338   1      0.1327 179075.2000
    338    339   1      0.1410 267776.0000
    339    340   1      0.1529 224262.4000
    339    358   1      0.1090 284512.0000
    339    359   1      0.1090 284512.0000
    340    341   1      0.1529 224262.4000
    340    360   1      0.1090 284512.0000
    340    361   1      0.1090 284512.0000
    341    342   1      0.1529 224262.4000
    341    362   1      0.1090 284512.0000
    341    363   1      0.1090 284512.0000
    342    343   1      0.1529 224262.4000
    342    364   1      0.1090 284512.0000
    342    365   1      0.1090 284512.0000
    343    344   1      0.1529 224262.4000
    343    366   1      0.1090 284512.0000
    343    367   1      0.1090 284512.0000
    344    345   1      0.1529 224262.4000
    344    368   1      0.1090 284512.0000
    344    369   1      0.1090 284512.0000
    345    346   1      0.1529 224262.4000
    345    370   1      0.1090 284512.0000
    345    371   1      0.1090 284512.0000
    346    347   1      0.1529 224262.4000
    346    372   1      0.1090 284512.0000
    346    373   1      0.1090 284512.0000
    347    348   1      0.1529 224262.4000
    347    374   1      0.1090 284512.0000
    347    375   1      0.1090 284512.0000
    348    349   1      0.1410 267776.0000
    348    376   1      0.1090 284512.0000
    348    377   1      0.1090 284512.0000
    349    350   1      0.1327 179075.2000
    350    351   1      0.1229 476976.0000
    350    352   1      0.1522 265265.6000
    352    353   1      0.1529 224262.4000
    352    378   1      0.1090 284512.0000
    352    379   1      0.1090 284512.0000
    353    354   1      0.1529 224262.4000
    353    380   1      0.1090 284512.0000
    353    381   1      0.1090 284512.0000
    354    355   1      0.1529 224262.4000
    354    382   1      0.1090 284512.0000
    354    383   1      0.1090 284512.0000
    355    356   1      0.1522 265265.6000
    355    384   1      0.1090 284512.0000
    355    385   1      0.1090 284512.0000
    356    357   1      0.1229 476976.0000
    356    386   1      0.1327 179075.2000
    386    387   1      0.1410 267776.0000
    387    388   1      0.1529 224262.4000
    387    406   1      0.1090 284512.0000
    387    407   1      0.1090 284512.0000
    388    389   1      0.1529 224262.4000
    388    408   1      0.1090 284512.0000
    388    409   1      0.1090 284512.0000
    389    390   1      0.1529 224262.4000
    389    410   1      0.1090 284512.0000
    389    411   1      0.1090 284512.0000
    390    391   1      0.1529 224262.4000
    390    412   1      0.1090 284512.0000
    390    413   1      0.1090 284512.0000
    391    392   1      0.1529 224262.4000
    391    414   1      0.1090 284512.0000
    391    415   1      0.1090 284512.0000
    392    393   1      0.1529 224262.4000
    392    416   1      0.1090 284512.0000
    392    417   1      0.1090 284512.0000
    393    394   1      0.1529 224262.4000
    393    418   1      0.1090 284512.0000
    393    419   1      0.1090 284512.0000
    394    395   1      0.1529 224262.4000
    394    420   1      0.1090 284512.0000
    394    421   1      0.1090 284512.0000
    395    396   1      0.1529 224262.4000
    395    422   1      0.1090 284512.0000
    395    423   1      0.1090 284512.0000
    396    397   1      0.1410 267776.0000
    396    424   1      0.1090 284512.0000
    396    425   1      0.1090 284512.0000
    397    398   1      0.1327 179075.2000
    398    399   1      0.1229 476976.0000
    398    400   1      0.1522 265265.6000
    400    401   1      0.1529 224262.4000
    400    426   1      0.1090 284512.0000
    400    427   1      0.1090 284512.0000
    401    402   1      0.1529 224262.4000
    401    428   1      0.1090 284512.0000
    401    429   1      0.1090 284512.0000
    402    403   1      0.1529 224262.4000
    402    430   1      0.1090 284512.0000
    402    431   1      0.1090 284512.0000
    403    404   1      0.1522 265265.6000
    403    432   1      0.1090 284512.0000
    403    433   1      0.1090 284512.0000
    404    405   1      0.1229 476976.0000
    404    434   1      0.1327 179075.2000
    434    435   1      0.1410 267776.0000
    435    436   1      0.1529 224262.4000
    435    454   1      0.1090 284512.0000
    435    455   1      0.1090 284512.0000
    436    437   1      0.1529 224262.4000
    436    456   1      0.1090 284512.0000
    436    457   1      0.1090 284512.0000
    437    438   1      0.1529 224262.4000
    437    458   1      0.1090 284512.0000
    437    459   1      0.1090 284512.0000
    438    439   1      0.1529 224262.4000
    438    460   1      0.1090 284512.0000
    438    461   1      0.1090 284512.0000
    439    440   1      0.1529 224262.4000
    439    462   1      0.1090 284512.0000
    439    463   1      0.1090 284512.0000
    440    441   1      0.1529 224262.4000
    440    464   1      0.1090 284512.0000
    440    465   1      0.1090 284512.0000
    441    442   1      0.1529 224262.4000
    441    466   1      0.1090 284512.0000
    441    467   1      0.1090 284512.0000
    442    443   1      0.1529 224262.4000
    442    468   1      0.1090 284512.0000
    442    469   1      0.1090 284512.0000
    443    444   1      0.1529 224262.4000
    443    470   1      0.1090 284512.0000
    443    471   1      0.1090 284512.0000
    444    445   1      0.1410 267776.0000
    444    472   1      0.1090 284512.0000
    444    473   1      0.1090 284512.0000
    445    446   1      0.1327 179075.2000
    446    447   1      0.1229 476976.0000
    446    448   1      0.1522 265265.6000
    448    449   1      0.1529 224262.4000
    448    474   1      0.1090 284512.0000
    448    475   1      0.1090 284512.0000
    449    450   1      0.1529 224262.4000
    449    476   1      0.1090 284512.0000
    449    477   1      0.1090 284512.0000
    450    451   1      0.1529 224262.4000
    450    478   1      0.1090 284512.0000
    450    479   1      0.1090 284512.0000
    451    452   1      0.1522 265265.6000
    451    480   1      0.1090 284512.0000
    451    481   1      0.1090 284512.0000
    452    453   1      0.1229 476976.0000
    452    482   1      0.1327 179075.2000
    482    483   1      0.1410 267776.0000
    483    484   1      0.1529 224262.4000
    483    502   1      0.1090 284512.0000
    483    503   1      0.1090 284512.0000
    484    485   1      0.1529 224262.4000
    484    504   1      0.1090 284512.0000
    484    505   1      0.1090 284512.0000
    485    486   1      0.1529 224262.4000
    485    506   1      0.1090 284512.0000
    485    507   1      0.1090 284512.0000
    486    487   1      0.1529 224262.4000
    486    508   1      0.1090 284512.0000
    486    509   1      0.1090 284512.0000
    487    488   1      0.1529 224262.4000
    487    510   1      0.1090 284512.0000
    487    511   1      0.1090 284512.0000
    488    489   1      0.1529 224262.4000
    488    512   1      0.1090 284512.0000
    488    513   1      0.1090 284512.0000
    489    490   1      0.1529 224262.4000
    489    514   1      0.1090 284512.0000
    489    515   1      0.1090 284512.0000
    490    491   1      0.1529 224262.4000
    490    516   1      0.1090 284512.0000
    490    517   1      0.1090 284512.0000
    491    492   1      0.1529 224262.4000
    491    518   1      0.1090 284512.0000
    491    519   1      0.1090 284512.0000
    492    493   1      0.1410 267776.0000
    492    520   1      0.1090 284512.0000
    492    521   1      0.1090 284512.0000
    493    494   1      0.1327 179075.2000
    494    495   1      0.1229 476976.0000
    494    496   1      0.1522 265265.6000
    496    497   1      0.1529 224262.4000
    496    522   1      0.1090 284512.0000
    496    523   1      0.1090 284512.0000
    497    498   1      0.1529 224262.4000
    497    524   1      0.1090 284512.0000
    497    525   1      0.1090 284512.0000
    498    499   1      0.1529 224262.4000
    498    526   1      0.1090 284512.0000
    498    527   1      0.1090 284512.0000
    499    500   1      0.1522 265265.6000
    499    528   1      0.1090 284512.0000
    499    529   1      0.1090 284512.0000
    500    501   1      0.1229 476976.0000
    500    530   1      0.1327 179075.2000
    530    531   1      0.1410 267776.0000
    531    532   1      0.1529 224262.4000
    531    550   1      0.1090 284512.0000
    531    551   1      0.1090 284512.0000
    532    533   1      0.1529 224262.4000
    532    552   1      0.1090 284512.0000
    532    553   1      0.1090 284512.0000
    533    534   1      0.1529 224262.4000
    533    554   1      0.1090 284512.0000
    533    555   1      0.1090 284512.0000
    534    535   1      0.1529 224262.4000
    534    556   1      0.1090 284512.0000
    534    557   1      0.1090 284512.0000
    535    536   1      0.1529 224262.4000
    535    558   1      0.1090 284512.0000
    535    559   1      0.1090 284512.0000
    536    537   1      0.1529 224262.4000
    536    560   1      0.1090 284512.0000
    536    561   1      0.1090 284512.0000
    537    538   1      0.1529 224262.4000
    537    562   1      0.1090 284512.0000
    537    563   1      0.1090 284512.0000
    538    539   1      0.1529 224262.4000
    538    564   1      0.1090 284512.0000
    538    565   1      0.1090 284512.0000
    539    540   1      0.1529 224262.4000
    539    566   1      0.1090 284512.0000
    539    567   1      0.1090 284512.0000
    540    541   1      0.1410 267776.0000
    540    568   1      0.1090 284512.0000
    540    569   1      0.1090 284512.0000
    541    542   1      0.1327 179075.2000
    542    543   1      0.1229 476976.0000
    542    544   1      0.1522 265265.6000
    544    545   1      0.1529 224262.4000
    544    570   1      0.1090 284512.0000
    544    571   1      0.1090 284512.0000
    545    546   1      0.1529 224262.4000
    545    572   1      0.1090 284512.0000
    545    573   1      0.1090 284512.0000
    546    547   1      0.1529 224262.4000
    546    574   1      0.1090 284512.0000
    546    575   1      0.1090 284512.0000
    547    548   1      0.1522 265265.6000
    547    576   1      0.1090 284512.0000
    547    577   1      0.1090 284512.0000
    548    549   1      0.1229 476976.0000
    548    578   1      0.1327 179075.2000
    578    579   1      0.1410 267776.0000
    579    580   1      0.1529 224262.4000
    579    598   1      0.1090 284512.0000
    579    599   1      0.1090 284512.0000
    580    581   1      0.1529 224262.4000
    580    600   1      0.1090 284512.0000
    580    601   1      0.1090 284512.0000
    581    582   1      0.1529 224262.4000
    581    602   1      0.1090 284512.0000
    581    603   1      0.1090 284512.0000
    582    583   1      0.1529 224262.4000
    582    604   1      0.1090 284512.0000
    582    605   1      0.1090 284512.0000
    583    584   1      0.1529 224262.4000
    583    606   1      0.1090 284512.0000
    583    607   1      0.1090 284512.0000
    584    585   1      0.1529 224262.4000
    584    608   1      0.1090 284512.0000
    584    609   1      0.1090 284512.0000
    585    586   1      0.1529 224262.4000
    585    610   1      0.1090 284512.0000
    585    611   1      0.1090 284512.0000
    586    587   1      0.1529 224262.4000
    586    612   1      0.1090 284512.0000
    586    613   1      0.1090 284512.0000
    587    588   1      0.1529 224262.4000
    587    614   1      0.1090 284512.0000
    587    615   1      0.1090 284512.0000
    588    589   1      0.1410 267776.0000
    588    616   1      0.1090 284512.0000
    588    617   1      0.1090 284512.0000
    589    590   1      0.1327 179075.2000
    590    591   1      0.1229 476976.0000
    590    592   1      0.1522 265265.6000
    592    593   1      0.1529 224262.4000
    592    618   1      0.1090 284512.0000
    592    619   1      0.1090 284512.0000
    593    594   1      0.1529 224262.4000
    593    620   1      0.1090 284512.0000
    593    621   1      0.1090 284512.0000
    594    595   1      0.1529 224262.4000
    594    622   1      0.1090 284512.0000
    594    623   1      0.1090 284512.0000
    595    596   1      0.1522 265265.6000
    595    624   1      0.1090 284512.0000
    595    625   1      0.1090 284512.0000
    596    597   1      0.1229 476976.0000
    596    626   1      0.1327 179075.2000
    626    627   1      0.1410 267776.0000
    627    628   1      0.1529 224262.4000
    627    646   1      0.1090 284512.0000
    627    647   1      0.1090 284512.0000
    628    629   1      0.1529 224262.4000
    628    648   1      0.1090 284512.0000
    628    649   1      0.1090 284512.0000
    629    630   1      0.1529 224262.4000
    629    650   1      0.1090 284512.0000
    629    651   1      0.1090 284512.0000
    630    631   1      0.1529 224262.4000
    630    652   1      0.1090 284512.0000
    630    653   1      0.1090 284512.0000
    631    632   1      0.1529 224262.4000
    631    654   1      0.1090 284512.0000
    631    655   1      0.1090 284512.0000
    632    633   1      0.1529 224262.4000
    632    656   1      0.1090 284512.0000
    632    657   1      0.1090 284512.0000
    633    634   1      0.1529 224262.4000
    633    658   1      0.1090 284512.0000
    633    659   1      0.1090 284512.0000
    634    635   1      0.1529 224262.4000
    634    660   1      0.1090 284512.0000
    634    661   1      0.1090 284512.0000
    635    636   1      0.1529 224262.4000
    635    662   1      0.1090 284512.0000
    635    663   1      0.1090 284512.0000
    636    637   1      0.1410 267776.0000
    636    664   1      0.1090 284512.0000
    636    665   1      0.1090 284512.0000
    637    638   1      0.1327 179075.2000
    638    639   1      0.1229 476976.0000
    638    640   1      0.1522 265265.6000
    640    641   1      0.1529 224262.4000
    640    666   1      0.1090 284512.0000
    640    667   1      0.1090 284512.0000
    641    642   1      0.1529 224262.4000
    641    668   1      0.1090 284512.0000
    641    669   1      0.1090 284512.0000
    642    643   1      0.1529 224262.4000
    642    670   1      0.1090 284512.0000
    642    671   1      0.1090 284512.0000
    643    644   1      0.1522 265265.6000
    643    672   1      0.1090 284512.0000
    643    673   1      0.1090 284512.0000
    644    645   1      0.1229 476976.0000
    644    674   1      0.1327 179075.2000
    674    675   1      0.1410 267776.0000
    675    676   1      0.1529 224262.4000
    675    694   1      0.1090 284512.0000
    675    695   1      0.1090 284512.0000
    676    677   1      0.1529 224262.4000
    676    696   1      0.1090 284512.0000
    676    697   1      0.1090 284512.0000
    677    678   1      0.1529 224262.4000
    677    698   1      0.1090 284512.0000
    677    699   1      0.1090 284512.0000
    678    679   1      0.1529 224262.4000
    678    700   1      0.1090 284512.0000
    678    701   1      0.1090 284512.0000
    679    680   1      0.1529 224262.4000
    679    702   1      0.1090 284512.0000
    679    703   1      0.1090 284512.0000
    680    681   1      0.1529 224262.4000
    680    704   1      0.1090 284512.0000
    680    705   1      0.1090 284512.0000
    681    682   1      0.1529 224262.4000
    681    706   1      0.1090 284512.0000
    681    707   1      0.1090 284512.0000
    682    683   1      0.1529 224262.4000
    682    708   1      0.1090 284512.0000
    682    709   1      0.1090 284512.0000
    683    684   1      0.1529 224262.4000
    683    710   1      0.1090 284512.0000
    683    711   1      0.1090 284512.0000
    684    685   1      0.1410 267776.0000
    684    712   1      0.1090 284512.0000
    684    713   1      0.1090 284512.0000
    685    686   1      0.1327 179075.2000
    686    687   1      0.1229 476976.0000
    686    688   1      0.1522 265265.6000
    688    689   1      0.1529 224262.4000
    688    714   1      0.1090 284512.0000
    688    715   1      0.1090 284512.0000
    689    690   1      0.1529 224262.4000
    689    716   1      0.1090 284512.0000
    689    717   1      0.1090 284512.0000
    690    691   1      0.1529 224262.4000
    690    718   1      0.1090 284512.0000
    690    719   1      0.1090 284512.0000
    691    692   1      0.1522 265265.6000
    691    720   1      0.1090 284512.0000
    691    721   1      0.1090 284512.0000
    692    693   1      0.1229 476976.0000
    692    722   1      0.1327 179075.2000
    722    723   1      0.1410 267776.0000
    723    724   1      0.1529 224262.4000
    723    742   1      0.1090 284512.0000
    723    743   1      0.1090 284512.0000
    724    725   1      0.1529 224262.4000
    724    744   1      0.1090 284512.0000
    724    745   1      0.1090 284512.0000
    725    726   1      0.1529 224262.4000
    725    746   1      0.1090 284512.0000
    725    747   1      0.1090 284512.0000
    726    727   1      0.1529 224262.4000
    726    748   1      0.1090 284512.0000
    726    749   1      0.1090 284512.0000
    727    728   1      0.1529 224262.4000
    727    750   1      0.1090 284512.0000
    727    751   1      0.1090 284512.0000
    728    729   1      0.1529 224262.4000
    728    752   1      0.1090 284512.0000
    728    753   1      0.1090 284512.0000
    729    730   1      0.1529 224262.4000
    729    754   1      0.1090 284512.0000
    729    755   1      0.1090 284512.0000
    730    731   1      0.1529 224262.4000
    730    756   1      0.1090 284512.0000
    730    757   1      0.1090 284512.0000
    731    732   1      0.1529 224262.4000
    731    758   1      0.1090 284512.0000
    731    759   1      0.1090 284512.0000
    732    733   1      0.1410 267776.0000
    732    760   1      0.1090 284512.0000
    732    761   1      0.1090 284512.0000
    733    734   1      0.1327 179075.2000
    734    735   1      0.1229 476976.0000
    734    736   1      0.1522 265265.6000
    736    737   1      0.1529 224262.4000
    736    762   1      0.1090 284512.0000
    736    763   1      0.1090 284512.0000
    737    738   1      0.1529 224262.4000
    737    764   1      0.1090 284512.0000
    737    765   1      0.1090 284512.0000
    738    739   1      0.1529 224262.4000
    738    766   1      0.1090 284512.0000
    738    767   1      0.1090 284512.0000
    739    740   1      0.1522 265265.6000
    739    768   1      0.1090 284512.0000
    739    769   1      0.1090 284512.0000
    740    741   1      0.1229 476976.0000
    740    770   1      0.1327 179075.2000
    770    771   1      0.1410 267776.0000
    771    772   1      0.1529 224262.4000
    771    790   1      0.1090 284512.0000
    771    791   1      0.1090 284512.0000
    772    773   1      0.1529 224262.4000
    772    792   1      0.1090 284512.0000
    772    793   1      0.1090 284512.0000
    773    774   1      0.1529 224262.4000
    773    794   1      0.1090 284512.0000
    773    795   1      0.1090 284512.0000
    774    775   1      0.1529 224262.4000
    774    796   1      0.1090 284512.0000
    774    797   1      0.1090 284512.0000
    775    776   1      0.1529 224262.4000
    775    798   1      0.1090 284512.0000
    775    799   1      0.1090 284512.0000
    776    777   1      0.1529 224262.4000
    776    800   1      0.1090 284512.0000
    776    801   1      0.1090 284512.0000
    777    778   1      0.1529 224262.4000
    777    802   1      0.1090 284512.0000
    777    803   1      0.1090 284512.0000
    778    779   1      0.1529 224262.4000
    778    804   1      0.1090 284512.0000
    778    805   1      0.1090 284512.0000
    779    780   1      0.1529 224262.4000
    779    806   1      0.1090 284512.0000
    779    807   1      0.1090 284512.0000
    780    781   1      0.1410 267776.0000
    780    808   1      0.1090 284512.0000
    780    809   1      0.1090 284512.0000
    781    782   1      0.1327 179075.2000
    782    783   1      0.1229 476976.0000
    782    784   1      0.1522 265265.6000
    784    785   1      0.1529 224262.4000
    784    810   1      0.1090 284512.0000
    784    811   1      0.1090 284512.0000
    785    786   1      0.1529 224262.4000
    785    812   1      0.1090 284512.0000
    785    813   1      0.1090 284512.0000
    786    787   1      0.1529 224262.4000
    786    814   1      0.1090 284512.0000
    786    815   1      0.1090 284512.0000
    787    788   1      0.1522 265265.6000
    787    816   1      0.1090 284512.0000
    787    817   1      0.1090 284512.0000
    788    789   1      0.1229 476976.0000
    788    818   1      0.1327 179075.2000
    818    819   1      0.1410 267776.0000
    819    820   1      0.1529 224262.4000
    819    838   1      0.1090 284512.0000
    819    839   1      0.1090 284512.0000
    820    821   1      0.1529 224262.4000
    820    840   1      0.1090 284512.0000
    820    841   1      0.1090 284512.0000
    821    822   1      0.1529 224262.4000
    821    842   1      0.1090 284512.0000
    821    843   1      0.1090 284512.0000
    822    823   1      0.1529 224262.4000
    822    844   1      0.1090 284512.0000
    822    845   1      0.1090 284512.0000
    823    824   1      0.1529 224262.4000
    823    846   1      0.1090 284512.0000
    823    847   1      0.1090 284512.0000
    824    825   1      0.1529 224262.4000
    824    848   1      0.1090 284512.0000
    824    849   1      0.1090 284512.0000
    825    826   1      0.1529 224262.4000
    825    850   1      0.1090 284512.0000
    825    851   1      0.1090 284512.0000
    826    827   1      0.1529 224262.4000
    826    852   1      0.1090 284512.0000
    826    853   1      0.1090 284512.0000
    827    828   1      0.1529 224262.4000
    827    854   1      0.1090 284512.0000
    827    855   1      0.1090 284512.0000
    828    829   1      0.1410 267776.0000
    828    856   1      0.1090 284512.0000
    828    857   1      0.1090 284512.0000
    829    830   1      0.1327 179075.2000
    830    831   1      0.1229 476976.0000
    830    832   1      0.1522 265265.6000
    832    833   1      0.1529 224262.4000
    832    858   1      0.1090 284512.0000
    832    859   1      0.1090 284512.0000
    833    834   1      0.1529 224262.4000
    833    860   1      0.1090 284512.0000
    833    861   1      0.1090 284512.0000
    834    835   1      0.1529 224262.4000
    834    862   1      0.1090 284512.0000
    834    863   1      0.1090 284512.0000
    835    836   1      0.1522 265265.6000
    835    864   1      0.1090 284512.0000
    835    865   1      0.1090 284512.0000
    836    837   1      0.1229 476976.0000
    836    866   1      0.1327 179075.2000
    866    867   1      0.1410 267776.0000
    867    868   1      0.1529 224262.4000
    867    886   1      0.1090 284512.0000
    867    887   1      0.1090 284512.0000
    868    869   1      0.1529 224262.4000
    868    888   1      0.1090 284512.0000
    868    889   1      0.1090 284512.0000
    869    870   1      0.1529 224262.4000
    869    890   1      0.1090 284512.0000
    869    891   1      0.1090 284512.0000
    870    871   1      0.1529 224262.4000
    870    892   1      0.1090 284512.0000
    870    893   1      0.1090 284512.0000
    871    872   1      0.1529 224262.4000
    871    894   1      0.1090 284512.0000
    871    895   1      0.1090 284512.0000
    872    873   1      0.1529 224262.4000
    872    896   1      0.1090 284512.0000
    872    897   1      0.1090 284512.0000
    873    874   1      0.1529 224262.4000
    873    898   1      0.1090 284512.0000
    873    899   1      0.1090 284512.0000
    874    875   1      0.1529 224262.4000
    874    900   1      0.1090 284512.0000
    874    901   1      0.1090 284512.0000
    875    876   1      0.1529 224262.4000
    875    902   1      0.1090 284512.0000
    875    903   1      0.1090 284512.0000
    876    877   1      0.1410 267776.0000
    876    904   1      0.1090 284512.0000
    876    905   1      0.1090 284512.0000
    877    878   1      0.1327 179075.2000
    878    879   1      0.1229 476976.0000
    878    880   1      0.1522 265265.6000
    880    881   1      0.1529 224262.4000
    880    906   1      0.1090 284512.0000
    880    907   1      0.1090 284512.0000
    881    882   1      0.1529 224262.4000
    881    908   1      0.1090 284512.0000
    881    909   1      0.1090 284512.0000
    882    883   1      0.1529 224262.4000
    882    910   1      0.1090 284512.0000
    882    911   1      0.1090 284512.0000
    883    884   1      0.1522 265265.6000
    883    912   1      0.1090 284512.0000
    883    913   1      0.1090 284512.0000
    884    885   1      0.1229 476976.0000
    884    914   1      0.1327 179075.2000
    914    915   1      0.1410 267776.0000
    915    916   1      0.1529 224262.4000
    915    934   1      0.1090 284512.0000
    915    935   1      0.1090 284512.0000
    916    917   1      0.1529 224262.4000
    916    936   1      0.1090 284512.0000
    916    937   1      0.1090 284512.0000
    917    918   1      0.1529 224262.4000
    917    938   1      0.1090 284512.0000
    917    939   1      0.1090 284512.0000
    918    919   1      0.1529 224262.4000
    918    940   1      0.1090 284512.0000
    918    941   1      0.1090 284512.0000
    919    920   1      0.1529 224262.4000
    919    942   1      0.1090 284512.0000
    919    943   1      0.1090 284512.0000
    920    921   1      0.1529 224262.4000
    920    944   1      0.1090 284512.0000
    920    945   1      0.1090 284512.0000
    921    922   1      0.1529 224262.4000
    921    946   1      0.1090 284512.0000
    921    947   1      0.1090 284512.0000
    922    923   1      0.1529 224262.4000
    922    948   1      0.1090 284512.0000
    922    949   1      0.1090 284512.0000
    923    924   1      0.1529 224262.4000
    923    950   1      0.1090 284512.0000
    923    951   1      0.1090 284512.0000
    924    925   1      0.1410 267776.0000
    924    952   1      0.1090 284512.0000
    924    953   1      0.1090 284512.0000
    925    926   1      0.1327 179075.2000
    926    927   1      0.1229 476976.0000
    926    928   1      0.1522 265265.6000
    928    929   1      0.1529 224262.4000
    928    954   1      0.1090 284512.0000
    928    955   1      0.1090 284512.0000
    929    930   1      0.1529 224262.4000
    929    956   1      0.1090 284512.0000
    929    957   1      0.1090 284512.0000
    930    931   1      0.1529 224262.4000
    930    958   1      0.1090 284512.0000
    930    959   1      0.1090 284512.0000
    931    932   1      0.1522 265265.6000
    931    960   1      0.1090 284512.0000
    931    961   1      0.1090 284512.0000
    932    933   1      0.1229 476976.0000
    932    962   1      0.1090 284512.0000

[ pairs ]
; ai   aj   funct   fudge_QQ  charge_i   charge_j   c6    c12
     49      3   2   0.50000     0.4180000   -0.1200000   1.995577e-06  1.069504e-11
     49     21   2   0.50000     0.4180000    0.0600000   4.903125e-07  9.576416e-13
     49     22   2   0.50000     0.4180000    0.0600000   4.903125e-07  9.576416e-13
      1      4   2   0.50000    -0.6830000   -0.1200000   1.154213e-03  1.502983e-06
      1     23   2   0.50000    -0.6830000    0.0600000   2.835898e-04  1.345781e-07
      1     24   2   0.50000    -0.6830000    0.0600000   2.835898e-04  1.345781e-07
     21      4   2   0.50000     0.0600000   -0.1200000   2.494471e-04  1.671101e-07
     21     23   2   0.50000     0.0600000    0.0600000   6.128906e-05  1.496315e-08
     21     24   2   0.50000     0.0600000    0.0600000   6.128906e-05  1.496315e-08
     22      4   2   0.50000     0.0600000   -0.1200000   2.494471e-04  1.671101e-07
     22     23   2   0.50000     0.0600000    0.0600000   6.128906e-05  1.496315e-08
     22     24   2   0.50000     0.0600000    0.0600000   6.128906e-05  1.496315e-08
      2      5   2   0.50000     0.1450000   -0.1200000   1.015252e-03  1.866303e-06
      2     25   2   0.50000     0.1450000    0.0600000   2.494471e-04  1.671101e-07
      2     26   2   0.50000     0.1450000    0.0600000   2.494471e-04  1.671101e-07
     23      5   2   0.50000     0.0600000   -0.1200000   2.494471e-04  1.671101e-07
     23     25   2   0.50000     0.0600000    0.0600000   6.128906e-05  1.496315e-08
     23     26   2   0.50000     0.0600000    0.0600000   6.128906e-05  1.496315e-08
     24      5   2   0.50000     0.0600000   -0.1200000   2.494471e-04  1.671101e-07
     24     25   2   0.50000     0.0600000    0.0600000   6.128906e-05  1.496315e-08
     24     26   2   0.50000     0.0600000    0.0600000   6.128906e-05  1.496315e-08
      3      6   2   0.50000    -0.1200000   -0.1200000   1.015252e-03  1.866303e-06
      3     27   2   0.50000    -0.1200000    0.0600000   2.494471e-04  1.671101e-07
      3     28   2   0.50000    -0.1200000    0.0600000   2.494471e-04  1.671101e-07
     25      6   2   0.50000     0.0600000   -0.1200000   2.494471e-04  1.671101e-07
     25     27   2   0.50000     0.0600000    0.0600000   6.128906e-05  1.496315e-08
     25     28   2   0.50000     0.0600000    0.0600000   6.128906e-05  1.496315e-08
     26      6   2   0.50000     0.0600000   -0.1200000   2.494471e-04  1.671101e-07
     26     27   2   0.50000     0.0600000    0.0600000   6.128906e-05  1.496315e-08
     26     28   2   0.50000     0.0600000    0.0600000   6.128906e-05  1.496315e-08
      4      7   2   0.50000    -0.1200000   -0.1200000   1.015252e-03  1.866303e-06
      4     29   2   0.50000    -0.1200000    0.0600000   2.494471e-04  1.671101e-07
      4     30   2   0.50000    -0.1200000    0.0600000   2.494471e-04  1.671101e-07
     27      7   2   0.50000     0.0600000   -0.1200000   2.494471e-04  1.671101e-07
     27     29   2   0.50000     0.0600000    0.0600000   6.128906e-05  1.496315e-08
     27     30   2   0.50000     0.0600000    0.0600000   6.128906e-05  1.496315e-08
     28      7   2   0.50000     0.0600000   -0.1200000   2.494471e-04  1.671101e-07
     28     29   2   0.50000     0.0600000    0.0600000   6.128906e-05  1.496315e-08
     28     30   2   0.50000     0.0600000    0.0600000   6.128906e-05  1.496315e-08
      5      8   2   0.50000    -0.1200000   -0.1200000   1.015252e-03  1.866303e-06
      5     31   2   0.50000    -0.1200000    0.0600000   2.494471e-04  1.671101e-07
      5     32   2   0.50000    -0.1200000    0.0600000   2.494471e-04  1.671101e-07
     29      8   2   0.50000     0.0600000   -0.1200000   2.494471e-04  1.671101e-07
     29     31   2   0.50000     0.0600000    0.0600000   6.128906e-05  1.496315e-08
     29     32   2   0.50000     0.0600000    0.0600000   6.128906e-05  1.496315e-08
     30      8   2   0.50000     0.0600000   -0.1200000   2.494471e-04  1.671101e-07
     30     31   2   0.50000     0.0600000    0.0600000   6.128906e-05  1.496315e-08
     30     32   2   0.50000     0.0600000    0.0600000   6.128906e-05  1.496315e-08
      6      9   2   0.50000    -0.1200000   -0.1200000   1.015252e-03  1.866303e-06
      6     33   2   0.50000    -0.1200000    0.0600000   2.494471e-04  1.671101e-07
      6     34   2   0.50000    -0.1200000    0.0600000   2.494471e-04  1.671101e-07
     31      9   2   0.50000     0.0600000   -0.1200000   2.494471e-04  1.671101e-07
     31     33   2   0.50000     0.0600000    0.0600000   6.128906e-05  1.496315e-08
     31     34   2   0.50000     0.0600000    0.0600000   6.128906e-05  1.496315e-08
     32      9   2   0.50000     0.0600000   -0.1200000   2.494471e-04  1.671101e-07
     32     33   2   0.50000     0.0600000    0.0600000   6.128906e-05  1.496315e-08
     32     34   2   0.50000     0.0600000    0.0600000   6.128906e-05  1.496315e-08
      7     10   2   0.50000    -0.1200000   -0.1200000   1.015252e-03  1.866303e-06
      7     35   2   0.50000    -0.1200000    0.0600000   2.494471e-04  1.671101e-07
      7     36   2   0.50000    -0.1200000    0.0600000   2.494471e-04  1.671101e-07
     33     10   2   0.50000     0.0600000   -0.1200000   2.494471e-04  1.671101e-07
     33     35   2   0.50000     0.0600000    0.0600000   6.128906e-05  1.496315e-08
     33     36   2   0.50000     0.0600000    0.0600000   6.128906e-05  1.496315e-08
     34     10   2   0.50000     0.0600000   -0.1200000   2.494471e-04  1.671101e-07
     34     35   2   0.50000     0.0600000    0.0600000   6.128906e-05  1.496315e-08
     34     36   2   0.50000     0.0600000    0.0600000   6.128906e-05  1.496315e-08
      8     11   2   0.50000    -0.1200000    0.1900000   1.015252e-03  1.866303e-06
      8     37   2   0.50000    -0.1200000    0.0600000   2.494471e-04  1.671101e-07
      8     38   2   0.50000    -0.1200000    0.0600000   2.494471e-04  1.671101e-07
     35     11   2   0.50000     0.0600000    0.1900000   2.494471e-04  1.671101e-07
     35     37   2   0.50000     0.0600000    0.0600000   6.128906e-05  1.496315e-08
     35     38   2   0.50000     0.0600000    0.0600000   6.128906e-05  1.496315e-08
     36     11   2   0.50000     0.0600000    0.1900000   2.494471e-04  1.671101e-07
     36     37   2   0.50000     0.0600000    0.0600000   6.128906e-05  1.496315e-08
     36     38   2   0.50000     0.0600000    0.0600000   6.128906e-05  1.496315e-08
      9     12   2   0.50000    -0.1200000   -0.3300000   1.026091e-03  1.187829e-06
      9     39   2   0.50000    -0.1200000    0.0300000   1.599888e-04  9.721644e-08
      9     40   2   0.50000    -0.1200000    0.0300000   1.599888e-04  9.721644e-08
     37     12   2   0.50000     0.0600000   -0.3300000   2.521103e-04  1.063590e-07
     37     39   2   0.50000     0.0600000    0.0300000   3.930919e-05  8.704828e-09
     37     40   2   0.50000     0.0600000    0.0300000   3.930919e-05  8.704828e-09
     38     12   2   0.50000     0.0600000   -0.3300000   2.521103e-04  1.063590e-07
     38     39   2   0.50000     0.0600000    0.0300000   3.930919e-05  8.704828e-09
     38     40   2   0.50000     0.0600000    0.0300000   3.930919e-05  8.704828e-09
     10     13   2   0.50000    -0.1200000    0.5100000   1.575021e-03  3.561100e-06
     39     13   2   0.50000     0.0300000    0.5100000   2.482000e-04  1.854991e-07
     40     13   2   0.50000     0.0300000    0.5100000   2.482000e-04  1.854991e-07
     11     14   2   0.50000     0.1900000   -0.4300000   1.095425e-03  1.218041e-06
     11     15   2   0.50000     0.1900000   -0.1200000   1.015252e-03  1.866303e-06
     12     16   2   0.50000    -0.3300000   -0.1200000   1.026091e-03  1.187829e-06
     12     41   2   0.50000    -0.3300000    0.0600000   1.616969e-04  6.187447e-08
     12     42   2   0.50000    -0.3300000    0.0600000   1.616969e-04  6.187447e-08
     14     16   2   0.50000    -0.4300000   -0.1200000   1.095425e-03  1.218041e-06
     14     41   2   0.50000    -0.4300000    0.0600000   1.726228e-04  6.344822e-08
     14     42   2   0.50000    -0.4300000    0.0600000   1.726228e-04  6.344822e-08
     13     17   2   0.50000     0.5100000   -0.1200000   1.575021e-03  3.561100e-06
     13     43   2   0.50000     0.5100000    0.0600000   3.869820e-04  3.188634e-07
     13     44   2   0.50000     0.5100000    0.0600000   3.869820e-04  3.188634e-07
     41     17   2   0.50000     0.0600000   -0.1200000   1.599888e-04  9.721644e-08
     41     43   2   0.50000     0.0600000    0.0600000   3.930919e-05  8.704828e-09
     41     44   2   0.50000     0.0600000    0.0600000   3.930919e-05  8.704828e-09
     42     17   2   0.50000     0.0600000   -0.1200000   1.599888e-04  9.721644e-08
     42     43   2   0.50000     0.0600000    0.0600000   3.930919e-05  8.704828e-09
     42     44   2   0.50000     0.0600000    0.0600000   3.930919e-05  8.704828e-09
     15     18   2   0.50000    -0.1200000   -0.1200000   1.015252e-03  1.866303e-06
     15     45   2   0.50000    -0.1200000    0.0600000   2.494471e-04  1.671101e-07
     15     46   2   0.50000    -0.1200000    0.0600000   2.494471e-04  1.671101e-07
     43     18   2   0.50000     0.0600000   -0.1200000   2.494471e-04  1.671101e-07
     43     45   2   0.50000     0.0600000    0.0600000   6.128906e-05  1.496315e-08
     43     46   2   0.50000     0.0600000    0.0600000   6.128906e-05  1.496315e-08
     44     18   2   0.50000     0.0600000   -0.1200000   2.494471e-04  1.671101e-07
     44     45   2   0.50000     0.0600000    0.0600000   6.128906e-05  1.496315e-08
     44     46   2   0.50000     0.0600000    0.0600000   6.128906e-05  1.496315e-08
     16     19   2   0.50000    -0.1200000    0.5100000   1.575021e-03  3.561100e-06
     16     47   2   0.50000    -0.1200000    0.0600000   1.599888e-04  9.721644e-08
     16     48   2   0.50000    -0.1200000    0.0600000   1.599888e-04  9.721644e-08
     45     19   2   0.50000     0.0600000    0.5100000   3.869820e-04  3.188634e-07
     45     47   2   0.50000     0.0600000    0.0600000   3.930919e-05  8.704828e-09
     45     48   2   0.50000     0.0600000    0.0600000   3.930919e-05  8.704828e-09
     46     19   2   0.50000     0.0600000    0.5100000   3.869820e-04  3.188634e-07
     46     47   2   0.50000     0.0600000    0.0600000   3.930919e-05  8.704828e-09
     46     48   2   0.50000     0.0600000    0.0600000   3.930919e-05  8.704828e-09
     17     20   2   0.50000    -0.1200000   -0.4300000   1.095425e-03  1.218041e-06
     17     50   2   0.50000    -0.1200000   -0.3300000   1.026091e-03  1.187829e-06
     47     20   2   0.50000     0.0600000   -0.4300000   1.726228e-04  6.344822e-08
     47     50   2   0.50000     0.0600000   -0.3300000   1.616969e-04  6.187447e-08
     48     20   2   0.50000     0.0600000   -0.4300000   1.726228e-04  6.344822e-08
     48     50   2   0.50000     0.0600000   -0.3300000   1.616969e-04  6.187447e-08
     18     51   2   0.50000    -0.1200000    0.1900000   1.015252e-03  1.866303e-06
     20     51   2   0.50000    -0.4300000    0.1900000   1.095425e-03  1.218041e-06
     19     52   2   0.50000     0.5100000   -0.1200000   1.575021e-03  3.561100e-06
     19     70   2   0.50000     0.5100000    0.0300000   2.482000e-04  1.854991e-07
     19     71   2   0.50000     0.5100000    0.0300000   2.482000e-04  1.854991e-07
     50     53   2   0.50000    -0.3300000   -0.1200000   1.026091e-03  1.187829e-06
     50     72   2   0.50000    -0.3300000    0.0600000   2.521103e-04  1.063590e-07
     50     73   2   0.50000    -0.3300000    0.0600000   2.521103e-04  1.063590e-07
     70     53   2   0.50000     0.0300000   -0.1200000   1.599888e-04  9.721644e-08
     70     72   2   0.50000     0.0300000    0.0600000   3.930919e-05  8.704828e-09
     70     73   2   0.50000     0.0300000    0.0600000   3.930919e-05  8.704828e-09
     71     53   2   0.50000     0.0300000   -0.1200000   1.599888e-04  9.721644e-08
     71     72   2   0.50000     0.0300000    0.0600000   3.930919e-05  8.704828e-09
     71     73   2   0.50000     0.0300000    0.0600000   3.930919e-05  8.704828e-09
     51     54   2   0.50000     0.1900000   -0.1200000   1.015252e-03  1.866303e-06
     51     74   2   0.50000     0.1900000    0.0600000   2.494471e-04  1.671101e-07
     51     75   2   0.50000     0.1900000    0.0600000   2.494471e-04  1.671101e-07
     72     54   2   0.50000     0.0600000   -0.1200000   2.494471e-04  1.671101e-07
     72     74   2   0.50000     0.0600000    0.0600000   6.128906e-05  1.496315e-08
     72     75   2   0.50000     0.0600000    0.0600000   6.128906e-05  1.496315e-08
     73     54   2   0.50000     0.0600000   -0.1200000   2.494471e-04  1.671101e-07
     73     74   2   0.50000     0.0600000    0.0600000   6.128906e-05  1.496315e-08
     73     75   2   0.50000     0.0600000    0.0600000   6.128906e-05  1.496315e-08
     52     55   2   0.50000    -0.1200000   -0.1200000   1.015252e-03  1.866303e-06
     52     76   2   0.50000    -0.1200000    0.0600000   2.494471e-04  1.671101e-07
     52     77   2   0.50000    -0.1200000    0.0600000   2.494471e-04  1.671101e-07
     74     55   2   0.50000     0.0600000   -0.1200000   2.494471e-04  1.671101e-07
     74     76   2   0.50000     0.0600000    0.0600000   6.128906e-05  1.496315e-08
     74     77   2   0.50000     0.0600000    0.0600000   6.128906e-05  1.496315e-08
     75     55   2   0.50000     0.0600000   -0.1200000   2.494471e-04  1.671101e-07
     75     76   2   0.50000     0.0600000    0.0600000   6.128906e-05  1.496315e-08
     75     77   2   0.50000     0.0600000    0.0600000   6.128906e-05  1.496315e-08
     53     56   2   0.50000    -0.1200000   -0.1200000   1.015252e-03  1.866303e-06
     53     78   2   0.50000    -0.1200000    0.0600000   2.494471e-04  1.671101e-07
     53     79   2   0.50000    -0.1200000    0.0600000   2.494471e-04  1.671101e-07
     76     56   2   0.50000     0.0600000   -0.1200000   2.494471e-04  1.671101e-07
     76     78   2   0.50000     0.0600000    0.0600000   6.128906e-05  1.496315e-08
     76     79   2   0.50000     0.0600000    0.0600000   6.128906e-05  1.496315e-08
     77     56   2   0.50000     0.0600000   -0.1200000   2.494471e-04  1.671101e-07
     77     78   2   0.50000     0.0600000    0.0600000   6.128906e-05  1.496315e-08
     77     79   2   0.50000     0.0600000    0.0600000   6.128906e-05  1.496315e-08
     54     57   2   0.50000    -0.1200000   -0.1200000   1.015252e-03  1.866303e-06
     54     80   2   0.50000    -0.1200000    0.0600000   2.494471e-04  1.671101e-07
     54     81   2   0.50000    -0.1200000    0.0600000   2.494471e-04  1.671101e-07
     78     57   2   0.50000     0.0600000   -0.1200000   2.494471e-04  1.671101e-07
     78     80   2   0.50000     0.0600000    0.0600000   6.128906e-05  1.496315e-08
     78     81   2   0.50000     0.0600000    0.0600000   6.128906e-05  1.496315e-08
     79     57   2   0.50000     0.0600000   -0.1200000   2.494471e-04  1.671101e-07
     79     80   2   0.50000     0.0600000    0.0600000   6.128906e-05  1.496315e-08
     79     81   2   0.50000     0.0600000    0.0600000   6.128906e-05  1.496315e-08
     55     58   2   0.50000    -0.1200000   -0.1200000   1.015252e-03  1.866303e-06
     55     82   2   0.50000    -0.1200000    0.0600000   2.494471e-04  1.671101e-07
     55     83   2   0.50000    -0.1200000    0.0600000   2.494471e-04  1.671101e-07
     80     58   2   0.50000     0.0600000   -0.1200000   2.494471e-04  1.671101e-07
     80     82   2   0.50000     0.0600000    0.0600000   6.128906e-05  1.496315e-08
     80     83   2   0.50000     0.0600000    0.0600000   6.128906e-05  1.496315e-08
     81     58   2   0.50000     0.0600000   -0.1200000   2.494471e-04  1.671101e-07
     81     82   2   0.50000     0.0600000    0.0600000   6.128906e-05  1.496315e-08
     81     83   2   0.50000     0.0600000    0.0600000   6.128906e-05  1.496315e-08
     56     59   2   0.50000    -0.1200000   -0.1200000   1.015252e-03  1.866303e-06
     56     84   2   0.50000    -0.1200000    0.0600000   2.494471e-04  1.671101e-07
     56     85   2   0.50000    -0.1200000    0.0600000   2.494471e-04  1.671101e-07
     82     59   2   0.50000     0.0600000   -0.1200000   2.494471e-04  1.671101e-07
     82     84   2   0.50000     0.0600000    0.0600000   6.128906e-05  1.496315e-08
     82     85   2   0.50000     0.0600000    0.0600000   6.128906e-05  1.496315e-08
     83     59   2   0.50000     0.0600000   -0.1200000   2.494471e-04  1.671101e-07
     83     84   2   0.50000     0.0600000    0.0600000   6.128906e-05  1.496315e-08
     83     85   2   0.50000     0.0600000    0.0600000   6.128906e-05  1.496315e-08
     57     60   2   0.50000    -0.1200000    0.1900000   1.015252e-03  1.866303e-06
     57     86   2   0.50000    -0.1200000    0.0600000   2.494471e-04  1.671101e-07
     57     87   2   0.50000    -0.1200000    0.0600000   2.494471e-04  1.671101e-07
     84     60   2   0.50000     0.0600000    0.1900000   2.494471e-04  1.671101e-07
     84     86   2   0.50000     0.0600000    0.0600000   6.128906e-05  1.496315e-08
     84     87   2   0.50000     0.0600000    0.0600000   6.128906e-05  1.496315e-08
     85     60   2   0.50000     0.0600000    0.1900000   2.494471e-04  1.671101e-07
     85     86   2   0.50000     0.0600000    0.0600000   6.128906e-05  1.496315e-08
     85     87   2   0.50000     0.0600000    0.0600000   6.128906e-05  1.496315e-08
     58     61   2   0.50000    -0.1200000   -0.3300000   1.026091e-03  1.187829e-06
     58     88   2   0.50000    -0.1200000    0.0300000   1.599888e-04  9.721644e-08
     58     89   2   0.50000    -0.1200000    0.0300000   1.599888e-04  9.721644e-08
     86     61   2   0.50000     0.0600000   -0.3300000   2.521103e-04  1.063590e-07
     86     88   2   0.50000     0.0600000    0.0300000   3.930919e-05  8.704828e-09
     86     89   2   0.50000     0.0600000    0.0300000   3.930919e-05  8.704828e-09
     87     61   2   0.50000     0.0600000   -0.3300000   2.521103e-04  1.063590e-07
     87     88   2   0.50000     0.0600000    0.0300000   3.930919e-05  8.704828e-09
     87     89   2   0.50000     0.0600000    0.0300000   3.930919e-05  8.704828e-09
     59     62   2   0.50000    -0.1200000    0.5100000   1.575021e-03  3.561100e-06
     88     62   2   0.50000     0.0300000    0.5100000   2.482000e-04  1.854991e-07
     89     62   2   0.50000     0.0300000    0.5100000   2.482000e-04  1.854991e-07
     60     63   2   0.50000     0.1900000   -0.4300000   1.095425e-03  1.218041e-06
     60     64   2   0.50000     0.1900000   -0.1200000   1.015252e-03  1.866303e-06
     61     65   2   0.50000    -0.3300000   -0.1200000   1.026091e-03  1.187829e-06
     61     90   2   0.50000    -0.3300000    0.0600000   1.616969e-04  6.187447e-08
     61     91   2   0.50000    -0.3300000    0.0600000   1.616969e-04  6.187447e-08
     63     65   2   0.50000    -0.4300000   -0.1200000   1.095425e-03  1.218041e-06
     63     90   2   0.50000    -0.4300000    0.0600000   1.726228e-04  6.344822e-08
     63     91   2   0.50000    -0.4300000    0.0600000   1.726228e-04  6.344822e-08
     62     66   2   0.50000     0.5100000   -0.1200000   1.575021e-03  3.561100e-06
     62     92   2   0.50000     0.5100000    0.0600000   3.869820e-04  3.188634e-07
     62     93   2   0.50000     0.5100000    0.0600000   3.869820e-04  3.188634e-07
     90     66   2   0.50000     0.0600000   -0.1200000   1.599888e-04  9.721644e-08
     90     92   2   0.50000     0.0600000    0.0600000   3.930919e-05  8.704828e-09
     90     93   2   0.50000     0.0600000    0.0600000   3.930919e-05  8.704828e-09
     91     66   2   0.50000     0.0600000   -0.1200000   1.599888e-04  9.721644e-08
     91     92   2   0.50000     0.0600000    0.0600000   3.930919e-05  8.704828e-09
     91     93   2   0.50000     0.0600000    0.0600000   3.930919e-05  8.704828e-09
     64     67   2   0.50000    -0.1200000   -0.1200000   1.015252e-03  1.866303e-06
     64     94   2   0.50000    -0.1200000    0.0600000   2.494471e-04  1.671101e-07
     64     95   2   0.50000    -0.1200000    0.0600000   2.494471e-04  1.671101e-07
     92     67   2   0.50000     0.0600000   -0.1200000   2.494471e-04  1.671101e-07
     92     94   2   0.50000     0.0600000    0.0600000   6.128906e-05  1.496315e-08
     92     95   2   0.50000     0.0600000    0.0600000   6.128906e-05  1.496315e-08
     93     67   2   0.50000     0.0600000   -0.1200000   2.494471e-04  1.671101e-07
     93     94   2   0.50000     0.0600000    0.0600000   6.128906e-05  1.496315e-08
     93     95   2   0.50000     0.0600000    0.0600000   6.128906e-05  1.496315e-08
     65     68   2   0.50000    -0.1200000    0.5100000   1.575021e-03  3.561100e-06
     65     96   2   0.50000    -0.1200000    0.0600000   1.599888e-04  9.721644e-08
     65     97   2   0.50000    -0.1200000    0.0600000   1.599888e-04  9.721644e-08
     94     68   2   0.50000     0.0600000    0.5100000   3.869820e-04  3.188634e-07
     94     96   2   0.50000     0.0600000    0.0600000   3.930919e-05  8.704828e-09
     94     97   2   0.50000     0.0600000    0.0600000   3.930919e-05  8.704828e-09
     95     68   2   0.50000     0.0600000    0.5100000   3.869820e-04  3.188634e-07
     95     96   2   0.50000     0.0600000    0.0600000   3.930919e-05  8.704828e-09
     95     97   2   0.50000     0.0600000    0.0600000   3.930919e-05  8.704828e-09
     66     69   2   0.50000    -0.1200000   -0.4300000   1.095425e-03  1.218041e-06
     66     98   2   0.50000    -0.1200000   -0.3300000   1.026091e-03  1.187829e-06
     96     69   2   0.50000     0.0600000   -0.4300000   1.726228e-04  6.344822e-08
     96     98   2   0.50000     0.0600000   -0.3300000   1.616969e-04  6.187447e-08
     97     69   2   0.50000     0.0600000   -0.4300000   1.726228e-04  6.344822e-08
     97     98   2   0.50000     0.0600000   -0.3300000   1.616969e-04  6.187447e-08
     67     99   2   0.50000    -0.1200000    0.1900000   1.015252e-03  1.866303e-06
     69     99   2   0.50000    -0.4300000    0.1900000   1.095425e-03  1.218041e-06
     68    100   2   0.50000     0.5100000   -0.1200000   1.575021e-03  3.561100e-06
     68    118   2   0.50000     0.5100000    0.0300000   2.482000e-04  1.854991e-07
     68    119   2   0.50000     0.5100000    0.0300000   2.482000e-04  1.854991e-07
     98    101   2   0.50000    -0.3300000   -0.1200000   1.026091e-03  1.187829e-06
     98    120   2   0.50000    -0.3300000    0.0600000   2.521103e-04  1.063590e-07
     98    121   2   0.50000    -0.3300000    0.0600000   2.521103e-04  1.063590e-07
    118    101   2   0.50000     0.0300000   -0.1200000   1.599888e-04  9.721644e-08
    118    120   2   0.50000     0.0300000    0.0600000   3.930919e-05  8.704828e-09
    118    121   2   0.50000     0.0300000    0.0600000   3.930919e-05  8.704828e-09
    119    101   2   0.50000     0.0300000   -0.1200000   1.599888e-04  9.721644e-08
    119    120   2   0.50000     0.0300000    0.0600000   3.930919e-05  8.704828e-09
    119    121   2   0.50000     0.0300000    0.0600000   3.930919e-05  8.704828e-09
     99    102   2   0.50000     0.1900000   -0.1200000   1.015252e-03  1.866303e-06
     99    122   2   0.50000     0.1900000    0.0600000   2.494471e-04  1.671101e-07
     99    123   2   0.50000     0.1900000    0.0600000   2.494471e-04  1.671101e-07
    120    102   2   0.50000     0.0600000   -0.1200000   2.494471e-04  1.671101e-07
    120    122   2   0.50000     0.0600000    0.0600000   6.128906e-05  1.496315e-08
    120    123   2   0.50000     0.0600000    0.0600000   6.128906e-05  1.496315e-08
    121    102   2   0.50000     0.0600000   -0.1200000   2.494471e-04  1.671101e-07
    121    122   2   0.50000     0.0600000    0.0600000   6.128906e-05  1.496315e-08
    121    123   2   0.50000     0.0600000    0.0600000   6.128906e-05  1.496315e-08
    100    103   2   0.50000    -0.1200000   -0.1200000   1.015252e-03  1.866303e-06
    100    124   2   0.50000    -0.1200000    0.0600000   2.494471e-04  1.671101e-07
    100    125   2   0.50000    -0.1200000    0.0600000   2.494471e-04  1.671101e-07
    122    103   2   0.50000     0.0600000   -0.1200000   2.494471e-04  1.671101e-07
    122    124   2   0.50000     0.0600000    0.0600000   6.128906e-05  1.496315e-08
    122    125   2   0.50000     0.0600000    0.0600000   6.128906e-05  1.496315e-08
    123    103   2   0.50000     0.0600000   -0.1200000   2.494471e-04  1.671101e-07
    123    124   2   0.50000     0.0600000    0.0600000   6.128906e-05  1.496315e-08
    123    125   2   0.50000     0.0600000    0.0600000   6.128906e-05  1.496315e-08
    101    104   2   0.50000    -0.1200000   -0.1200000   1.015252e-03  1.866303e-06
    101    126   2   0.50000    -0.1200000    0.0600000   2.494471e-04  1.671101e-07
    101    127   2   0.50000    -0.1200000    0.0600000   2.494471e-04  1.671101e-07
    124    104   2   0.50000     0.0600000   -0.1200000   2.494471e-04  1.671101e-07
    124    126   2   0.50000     0.0600000    0.0600000   6.128906e-05  1.496315e-08
    124    127   2   0.50000     0.0600000    0.0600000   6.128906e-05  1.496315e-08
    125    104   2   0.50000     0.0600000   -0.1200000   2.494471e-04  1.671101e-07
    125    126   2   0.50000     0.0600000    0.0600000   6.128906e-05  1.496315e-08
    125    127   2   0.50000     0.0600000    0.0600000   6.128906e-05  1.496315e-08
    102    105   2   0.50000    -0.1200000   -0.1200000   1.015252e-03  1.866303e-06
    102    128   2   0.50000    -0.1200000    0.0600000   2.494471e-04  1.671101e-07
    102    129   2   0.50000    -0.1200000    0.0600000   2.494471e-04  1.671101e-07
    126    105   2   0.50000     0.0600000   -0.1200000   2.494471e-04  1.671101e-07
    126    128   2   0.50000     0.0600000    0.0600000   6.128906e-05  1.496315e-08
    126    129   2   0.50000     0.0600000    0.0600000   6.128906e-05  1.496315e-08
    127    105   2   0.50000     0.0600000   -0.1200000   2.494471e-04  1.671101e-07
    127    128   2   0.50000     0.0600000    0.0600000   6.128906e-05  1.496315e-08
    127    129   2   0.50000     0.0600000    0.0600000   6.128906e-05  1.496315e-08
    103    106   2   0.50000    -0.1200000   -0.1200000   1.015252e-03  1.866303e-06
    103    130   2   0.50000    -0.1200000    0.0600000   2.494471e-04  1.671101e-07
    103    131   2   0.50000    -0.1200000    0.0600000   2.494471e-04  1.671101e-07
    128    106   2   0.50000     0.0600000   -0.1200000   2.494471e-04  1.671101e-07
    128    130   2   0.50000     0.0600000    0.0600000   6.128906e-05  1.496315e-08
    128    131   2   0.50000     0.0600000    0.0600000   6.128906e-05  1.496315e-08
    129    106   2   0.50000     0.0600000   -0.1200000   2.494471e-04  1.671101e-07
    129    130   2   0.50000     0.0600000    0.0600000   6.128906e-05  1.496315e-08
    129    131   2   0.50000     0.0600000    0.0600000   6.128906e-05  1.496315e-08
    104    107   2   0.50000    -0.1200000   -0.1200000   1.015252e-03  1.866303e-06
    104    132   2   0.50000    -0.1200000    0.0600000   2.494471e-04  1.671101e-07
    104    133   2   0.50000    -0.1200000    0.0600000   2.494471e-04  1.671101e-07
    130    107   2   0.50000     0.0600000   -0.1200000   2.494471e-04  1.671101e-07
    130    132   2   0.50000     0.0600000    0.0600000   6.128906e-05  1.496315e-08
    130    133   2   0.50000     0.0600000    0.0600000   6.128906e-05  1.496315e-08
    131    107   2   0.50000     0.0600000   -0.1200000   2.494471e-04  1.671101e-07
    131    132   2   0.50000     0.0600000    0.0600000   6.128906e-05  1.496315e-08
    131    133   2   0.50000     0.0600000    0.0600000   6.128906e-05  1.496315e-08
    105    108   2   0.50000    -0.1200000    0.1900000   1.015252e-03  1.866303e-06
    105    134   2   0.50000    -0.1200000    0.0600000   2.494471e-04  1.671101e-07
    105    135   2   0.50000    -0.1200000    0.0600000   2.494471e-04  1.671101e-07
    132    108   2   0.50000     0.0600000    0.1900000   2.494471e-04  1.671101e-07
    132    134   2   0.50000     0.0600000    0.0600000   6.128906e-05  1.496315e-08
    132    135   2   0.50000     0.0600000    0.0600000   6.128906e-05  1.496315e-08
    133    108   2   0.50000     0.0600000    0.1900000   2.494471e-04  1.671101e-07
    133    134   2   0.50000     0.0600000    0.0600000   6.128906e-05  1.496315e-08
    133    135   2   0.50000     0.0600000    0.0600000   6.128906e-05  1.496315e-08
    106    109   2   0.50000    -0.1200000   -0.3300000   1.026091e-03  1.187829e-06
    106    136   2   0.50000    -0.1200000    0.0300000   1.599888e-04  9.721644e-08
    106    137   2   0.50000    -0.1200000    0.0300000   1.599888e-04  9.721644e-08
    134    109   2   0.50000     0.0600000   -0.3300000   2.521103e-04  1.063590e-07
    134    136   2   0.50000     0.0600000    0.0300000   3.930919e-05  8.704828e-09
    134    137   2   0.50000     0.0600000    0.0300000   3.930919e-05  8.704828e-09
    135    109   2   0.50000     0.0600000   -0.3300000   2.521103e-04  1.063590e-07
    135    136   2   0.50000     0.0600000    0.0300000   3.930919e-05  8.704828e-09
    135    137   2   0.50000     0.0600000    0.0300000   3.930919e-05  8.704828e-09
    107    110   2   0.50000    -0.1200000    0.5100000   1.575021e-03  3.561100e-06
    136    110   2   0.50000     0.0300000    0.5100000   2.482000e-04  1.854991e-07
    137    110   2   0.50000     0.0300000    0.5100000   2.482000e-04  1.854991e-07
    108    111   2   0.50000     0.1900000   -0.4300000   1.095425e-03  1.218041e-06
    108    112   2   0.50000     0.1900000   -0.1200000   1.015252e-03  1.866303e-06
    109    113   2   0.50000    -0.3300000   -0.1200000   1.026091e-03  1.187829e-06
    109    138   2   0.50000    -0.3300000    0.0600000   1.616969e-04  6.187447e-08
    109    139   2   0.50000    -0.3300000    0.0600000   1.616969e-04  6.187447e-08
    111    113   2   0.50000    -0.4300000   -0.1200000   1.095425e-03  1.218041e-06
    111    138   2   0.50000    -0.4300000    0.0600000   1.726228e-04  6.344822e-08
    111    139   2   0.50000    -0.4300000    0.0600000   1.726228e-04  6.344822e-08
    110    114   2   0.50000     0.5100000   -0.1200000   1.575021e-03  3.561100e-06
    110    140   2   0.50000     0.5100000    0.0600000   3.869820e-04  3.188634e-07
    110    141   2   0.50000     0.5100000    0.0600000   3.869820e-04  3.188634e-07
    138    114   2   0.50000     0.0600000   -0.1200000   1.599888e-04  9.721644e-08
    138    140   2   0.50000     0.0600000    0.0600000   3.930919e-05  8.704828e-09
    138    141   2   0.50000     0.0600000    0.0600000   3.930919e-05  8.704828e-09
    139    114   2   0.50000     0.0600000   -0.1200000   1.599888e-04  9.721644e-08
    139    140   2   0.50000     0.0600000    0.0600000   3.930919e-05  8.704828e-09
    139    141   2   0.50000     0.0600000    0.0600000   3.930919e-05  8.704828e-09
    112    115   2   0.50000    -0.1200000   -0.1200000   1.015252e-03  1.866303e-06
    112    142   2   0.50000    -0.1200000    0.0600000   2.494471e-04  1.671101e-07
    112    143   2   0.50000    -0.1200000    0.0600000   2.494471e-04  1.671101e-07
    140    115   2   0.50000     0.0600000   -0.1200000   2.494471e-04  1.671101e-07
    140    142   2   0.50000     0.0600000    0.0600000   6.128906e-05  1.496315e-08
    140    143   2   0.50000     0.0600000    0.0600000   6.128906e-05  1.496315e-08
    141    115   2   0.50000     0.0600000   -0.1200000   2.494471e-04  1.671101e-07
    141    142   2   0.50000     0.0600000    0.0600000   6.128906e-05  1.496315e-08
    141    143   2   0.50000     0.0600000    0.0600000   6.128906e-05  1.496315e-08
    113    116   2   0.50000    -0.1200000    0.5100000   1.575021e-03  3.561100e-06
    113    144   2   0.50000    -0.1200000    0.0600000   1.599888e-04  9.721644e-08
    113    145   2   0.50000    -0.1200000    0.0600000   1.599888e-04  9.721644e-08
    142    116   2   0.50000     0.0600000    0.5100000   3.869820e-04  3.188634e-07
    142    144   2   0.50000     0.0600000    0.0600000   3.930919e-05  8.704828e-09
    142    145   2   0.50000     0.0600000    0.0600000   3.930919e-05  8.704828e-09
    143    116   2   0.50000     0.0600000    0.5100000   3.869820e-04  3.188634e-07
    143    144   2   0.50000     0.0600000    0.0600000   3.930919e-05  8.704828e-09
    143    145   2   0.50000     0.0600000    0.0600000   3.930919e-05  8.704828e-09
    114    117   2   0.50000    -0.1200000   -0.4300000   1.095425e-03  1.218041e-06
    114    146   2   0.50000    -0.1200000   -0.3300000   1.026091e-03  1.187829e-06
    144    117   2   0.50000     0.0600000   -0.4300000   1.726228e-04  6.344822e-08
    144    146   2   0.50000     0.0600000   -0.3300000   1.616969e-04  6.187447e-08
    145    117   2   0.50000     0.0600000   -0.4300000   1.726228e-04  6.344822e-08
    145    146   2   0.50000     0.0600000   -0.3300000   1.616969e-04  6.187447e-08
    115    147   2   0.50000    -0.1200000    0.1900000   1.015252e-03  1.866303e-06
    117    147   2   0.50000    -0.4300000    0.1900000   1.095425e-03  1.218041e-06
    116    148   2   0.50000     0.5100000   -0.1200000   1.575021e-03  3.561100e-06
    116    166   2   0.50000     0.5100000    0.0300000   2.482000e-04  1.854991e-07
    116    167   2   0.50000     0.5100000    0.0300000   2.482000e-04  1.854991e-07
    146    149   2   0.50000    -0.3300000   -0.1200000   1.026091e-03  1.187829e-06
    146    168   2   0.50000    -0.3300000    0.0600000   2.521103e-04  1.063590e-07
    146    169   2   0.50000    -0.3300000    0.0600000   2.521103e-04  1.063590e-07
    166    149   2   0.50000     0.0300000   -0.1200000   1.599888e-04  9.721644e-08
    166    168   2   0.50000     0.0300000    0.0600000   3.930919e-05  8.704828e-09
    166    169   2   0.50000     0.0300000    0.0600000   3.930919e-05  8.704828e-09
    167    149   2   0.50000     0.0300000   -0.1200000   1.599888e-04  9.721644e-08
    167    168   2   0.50000     0.0300000    0.0600000   3.930919e-05  8.704828e-09
    167    169   2   0.50000     0.0300000    0.0600000   3.930919e-05  8.704828e-09
    147    150   2   0.50000     0.1900000   -0.1200000   1.015252e-03  1.866303e-06
    147    170   2   0.50000     0.1900000    0.0600000   2.494471e-04  1.671101e-07
    147    171   2   0.50000     0.1900000    0.0600000   2.494471e-04  1.671101e-07
    168    150   2   0.50000     0.0600000   -0.1200000   2.494471e-04  1.671101e-07
    168    170   2   0.50000     0.0600000    0.0600000   6.128906e-05  1.496315e-08
    168    171   2   0.50000     0.0600000    0.0600000   6.128906e-05  1.496315e-08
    169    150   2   0.50000     0.0600000   -0.1200000   2.494471e-04  1.671101e-07
    169    170   2   0.50000     0.0600000    0.0600000   6.128906e-05  1.496315e-08
    169    171   2   0.50000     0.0600000    0.0600000   6.128906e-05  1.496315e-08
    148    151   2   0.50000    -0.1200000   -0.1200000   1.015252e-03  1.866303e-06
    148    172   2   0.50000    -0.1200000    0.0600000   2.494471e-04  1.671101e-07
    148    173   2   0.50000    -0.1200000    0.0600000   2.494471e-04  1.671101e-07
    170    151   2   0.50000     0.0600000   -0.1200000   2.494471e-04  1.671101e-07
    170    172   2   0.50000     0.0600000    0.0600000   6.128906e-05  1.496315e-08
    170    173   2   0.50000     0.0600000    0.0600000   6.128906e-05  1.496315e-08
    171    151   2   0.50000     0.0600000   -0.1200000   2.494471e-04  1.671101e-07
    171    172   2   0.50000     0.0600000    0.0600000   6.128906e-05  1.496315e-08
    171    173   2   0.50000     0.0600000    0.0600000   6.128906e-05  1.496315e-08
    149    152   2   0.50000    -0.1200000   -0.1200000   1.015252e-03  1.866303e-06
    149    174   2   0.50000    -0.1200000    0.0600000   2.494471e-04  1.671101e-07
    149    175   2   0.50000    -0.1200000    0.0600000   2.494471e-04  1.671101e-07
    172    152   2   0.50000     0.0600000   -0.1200000   2.494471e-04  1.671101e-07
    172    174   2   0.50000     0.0600000    0.0600000   6.128906e-05  1.496315e-08
    172    175   2   0.50000     0.0600000    0.0600000   6.128906e-05  1.496315e-08
    173    152   2   0.50000     0.0600000   -0.1200000   2.494471e-04  1.671101e-07
    173    174   2   0.50000     0.0600000    0.0600000   6.128906e-05  1.496315e-08
    173    175   2   0.50000     0.0600000    0.0600000   6.128906e-05  1.496315e-08
    150    153   2   0.50000    -0.1200000   -0.1200000   1.015252e-03  1.866303e-06
    150    176   2   0.50000    -0.1200000    0.0600000   2.494471e-04  1.671101e-07
    150    177   2   0.50000    -0.1200000    0.0600000   2.494471e-04  1.671101e-07
    174    153   2   0.50000     0.0600000   -0.1200000   2.494471e-04  1.671101e-07
    174    176   2   0.50000     0.0600000    0.0600000   6.128906e-05  1.496315e-08
    174    177   2   0.50000     0.0600000    0.0600000   6.128906e-05  1.496315e-08
    175    153   2   0.50000     0.0600000   -0.1200000   2.494471e-04  1.671101e-07
    175    176   2   0.50000     0.0600000    0.0600000   6.128906e-05  1.496315e-08
    175    177   2   0.50000     0.0600000    0.0600000   6.128906e-05  1.496315e-08
    151    154   2   0.50000    -0.1200000   -0.1200000   1.015252e-03  1.866303e-06
    151    178   2   0.50000    -0.1200000    0.0600000   2.494471e-04  1.671101e-07
    151    179   2   0.50000    -0.1200000    0.0600000   2.494471e-04  1.671101e-07
    176    154   2   0.50000     0.0600000   -0.1200000   2.494471e-04  1.671101e-07
    176    178   2   0.50000     0.0600000    0.0600000   6.128906e-05  1.496315e-08
    176    179   2   0.50000     0.0600000    0.0600000   6.128906e-05  1.496315e-08
    177    154   2   0.50000     0.0600000   -0.1200000   2.494471e-04  1.671101e-07
    177    178   2   0.50000     0.0600000    0.0600000   6.128906e-05  1.496315e-08
    177    179   2   0.50000     0.0600000    0.0600000   6.128906e-05  1.496315e-08
    152    155   2   0.50000    -0.1200000   -0.1200000   1.015252e-03  1.866303e-06
    152    180   2   0.50000    -0.1200000    0.0600000   2.494471e-04  1.671101e-07
    152    181   2   0.50000    -0.1200000    0.0600000   2.494471e-04  1.671101e-07
    178    155   2   0.50000     0.0600000   -0.1200000   2.494471e-04  1.671101e-07
    178    180   2   0.50000     0.0600000    0.0600000   6.128906e-05  1.496315e-08
    178    181   2   0.50000     0.0600000    0.0600000   6.128906e-05  1.496315e-08
    179    155   2   0.50000     0.0600000   -0.1200000   2.494471e-04  1.671101e-07
    179    180   2   0.50000     0.0600000    0.0600000   6.128906e-05  1.496315e-08
    179    181   2   0.50000     0.0600000    0.0600000   6.128906e-05  1.496315e-08
    153    156   2   0.50000    -0.1200000    0.1900000   1.015252e-03  1.866303e-06
    153    182   2   0.50000    -0.1200000    0.0600000   2.494471e-04  1.671101e-07
    153    183   2   0.50000    -0.1200000    0.0600000   2.494471e-04  1.671101e-07
    180    156   2   0.50000     0.0600000    0.1900000   2.494471e-04  1.671101e-07
    180    182   2   0.50000     0.0600000    0.0600000   6.128906e-05  1.496315e-08
    180    183   2   0.50000     0.0600000    0.0600000   6.128906e-05  1.496315e-08
    181    156   2   0.50000     0.0600000    0.1900000   2.494471e-04  1.671101e-07
    181    182   2   0.50000     0.0600000    0.0600000   6.128906e-05  1.496315e-08
    181    183   2   0.50000     0.0600000    0.0600000   6.128906e-05  1.496315e-08
    154    157   2   0.50000    -0.1200000   -0.3300000   1.026091e-03  1.187829e-06
    154    184   2   0.50000    -0.1200000    0.0300000   1.599888e-04  9.721644e-08
    154    185   2   0.50000    -0.1200000    0.0300000   1.599888e-04  9.721644e-08
    182    157   2   0.50000     0.0600000   -0.3300000   2.521103e-04  1.063590e-07
    182    184   2   0.50000     0.0600000    0.0300000   3.930919e-05  8.704828e-09
    182    185   2   0.50000     0.0600000    0.0300000   3.930919e-05  8.704828e-09
    183    157   2   0.50000     0.0600000   -0.3300000   2.521103e-04  1.063590e-07
    183    184   2   0.50000     0.0600000    0.0300000   3.930919e-05  8.704828e-09
    183    185   2   0.50000     0.0600000    0.0300000   3.930919e-05  8.704828e-09
    155    158   2   0.50000    -0.1200000    0.5100000   1.575021e-03  3.561100e-06
    184    158   2   0.50000     0.0300000    0.5100000   2.482000e-04  1.854991e-07
    185    158   2   0.50000     0.0300000    0.5100000   2.482000e-04  1.854991e-07
    156    159   2   0.50000     0.1900000   -0.4300000   1.095425e-03  1.218041e-06
    156    160   2   0.50000     0.1900000   -0.1200000   1.015252e-03  1.866303e-06
    157    161   2   0.50000    -0.3300000   -0.1200000   1.026091e-03  1.187829e-06
    157    186   2   0.50000    -0.3300000    0.0600000   1.616969e-04  6.187447e-08
    157    187   2   0.50000    -0.3300000    0.0600000   1.616969e-04  6.187447e-08
    159    161   2   0.50000    -0.4300000   -0.1200000   1.095425e-03  1.218041e-06
    159    186   2   0.50000    -0.4300000    0.0600000   1.726228e-04  6.344822e-08
    159    187   2   0.50000    -0.4300000    0.0600000   1.726228e-04  6.344822e-08
    158    162   2   0.50000     0.5100000   -0.1200000   1.575021e-03  3.561100e-06
    158    188   2   0.50000     0.5100000    0.0600000   3.869820e-04  3.188634e-07
    158    189   2   0.50000     0.5100000    0.0600000   3.869820e-04  3.188634e-07
    186    162   2   0.50000     0.0600000   -0.1200000   1.599888e-04  9.721644e-08
    186    188   2   0.50000     0.0600000    0.0600000   3.930919e-05  8.704828e-09
    186    189   2   0.50000     0.0600000    0.0600000   3.930919e-05  8.704828e-09
    187    162   2   0.50000     0.0600000   -0.1200000   1.599888e-04  9.721644e-08
    187    188   2   0.50000     0.0600000    0.0600000   3.930919e-05  8.704828e-09
    187    189   2   0.50000     0.0600000    0.0600000   3.930919e-05  8.704828e-09
    160    163   2   0.50000    -0.1200000   -0.1200000   1.015252e-03  1.866303e-06
    160    190   2   0.50000    -0.1200000    0.0600000   2.494471e-04  1.671101e-07
    160    191   2   0.50000    -0.1200000    0.0600000   2.494471e-04  1.671101e-07
    188    163   2   0.50000     0.0600000   -0.1200000   2.494471e-04  1.671101e-07
    188    190   2   0.50000     0.0600000    0.0600000   6.128906e-05  1.496315e-08
    188    191   2   0.50000     0.0600000    0.0600000   6.128906e-05  1.496315e-08
    189    163   2   0.50000     0.0600000   -0.1200000   2.494471e-04  1.671101e-07
    189    190   2   0.50000     0.0600000    0.0600000   6.128906e-05  1.496315e-08
    189    191   2   0.50000     0.0600000    0.0600000   6.128906e-05  1.496315e-08
    161    164   2   0.50000    -0.1200000    0.5100000   1.575021e-03  3.561100e-06
    161    192   2   0.50000    -0.1200000    0.0600000   1.599888e-04  9.721644e-08
    161    193   2   0.50000    -0.1200000    0.0600000   1.599888e-04  9.721644e-08
    190    164   2   0.50000     0.0600000    0.5100000   3.869820e-04  3.188634e-07
    190    192   2   0.50000     0.0600000    0.0600000   3.930919e-05  8.704828e-09
    190    193   2   0.50000     0.0600000    0.0600000   3.930919e-05  8.704828e-09
    191    164   2   0.50000     0.0600000    0.5100000   3.869820e-04  3.188634e-07
    191    192   2   0.50000     0.0600000    0.0600000   3.930919e-05  8.704828e-09
    191    193   2   0.50000     0.0600000    0.0600000   3.930919e-05  8.704828e-09
    162    165   2   0.50000    -0.1200000   -0.4300000   1.095425e-03  1.218041e-06
    162    194   2   0.50000    -0.1200000   -0.3300000   1.026091e-03  1.187829e-06
    192    165   2   0.50000     0.0600000   -0.4300000   1.726228e-04  6.344822e-08
    192    194   2   0.50000     0.0600000   -0.3300000   1.616969e-04  6.187447e-08
    193    165   2   0.50000     0.0600000   -0.4300000   1.726228e-04  6.344822e-08
    193    194   2   0.50000     0.0600000   -0.3300000   1.616969e-04  6.187447e-08
    163    195   2   0.50000    -0.1200000    0.1900000   1.015252e-03  1.866303e-06
    165    195   2   0.50000    -0.4300000    0.1900000   1.095425e-03  1.218041e-06
    164    196   2   0.50000     0.5100000   -0.1200000   1.575021e-03  3.561100e-06
    164    214   2   0.50000     0.5100000    0.0300000   2.482000e-04  1.854991e-07
    164    215   2   0.50000     0.5100000    0.0300000   2.482000e-04  1.854991e-07
    194    197   2   0.50000    -0.3300000   -0.1200000   1.026091e-03  1.187829e-06
    194    216   2   0.50000    -0.3300000    0.0600000   2.521103e-04  1.063590e-07
    194    217   2   0.50000    -0.3300000    0.0600000   2.521103e-04  1.063590e-07
    214    197   2   0.50000     0.0300000   -0.1200000   1.599888e-04  9.721644e-08
    214    216   2   0.50000     0.0300000    0.0600000   3.930919e-05  8.704828e-09
    214    217   2   0.50000     0.0300000    0.0600000   3.930919e-05  8.704828e-09
    215    197   2   0.50000     0.0300000   -0.1200000   1.599888e-04  9.721644e-08
    215    216   2   0.50000     0.0300000    0.0600000   3.930919e-05  8.704828e-09
    215    217   2   0.50000     0.0300000    0.0600000   3.930919e-05  8.704828e-09
    195    198   2   0.50000     0.1900000   -0.1200000   1.015252e-03  1.866303e-06
    195    218   2   0.50000     0.1900000    0.0600000   2.494471e-04  1.671101e-07
    195    219   2   0.50000     0.1900000    0.0600000   2.494471e-04  1.671101e-07
    216    198   2   0.50000     0.0600000   -0.1200000   2.494471e-04  1.671101e-07
    216    218   2   0.50000     0.0600000    0.0600000   6.128906e-05  1.496315e-08
    216    219   2   0.50000     0.0600000    0.0600000   6.128906e-05  1.496315e-08
    217    198   2   0.50000     0.0600000   -0.1200000   2.494471e-04  1.671101e-07
    217    218   2   0.50000     0.0600000    0.0600000   6.128906e-05  1.496315e-08
    217    219   2   0.50000     0.0600000    0.0600000   6.128906e-05  1.496315e-08
    196    199   2   0.50000    -0.1200000   -0.1200000   1.015252e-03  1.866303e-06
    196    220   2   0.50000    -0.1200000    0.0600000   2.494471e-04  1.671101e-07
    196    221   2   0.50000    -0.1200000    0.0600000   2.494471e-04  1.671101e-07
    218    199   2   0.50000     0.0600000   -0.1200000   2.494471e-04  1.671101e-07
    218    220   2   0.50000     0.0600000    0.0600000   6.128906e-05  1.496315e-08
    218    221   2   0.50000     0.0600000    0.0600000   6.128906e-05  1.496315e-08
    219    199   2   0.50000     0.0600000   -0.1200000   2.494471e-04  1.671101e-07
    219    220   2   0.50000     0.0600000    0.0600000   6.128906e-05  1.496315e-08
    219    221   2   0.50000     0.0600000    0.0600000   6.128906e-05  1.496315e-08
    197    200   2   0.50000    -0.1200000   -0.1200000   1.015252e-03  1.866303e-06
    197    222   2   0.50000    -0.1200000    0.0600000   2.494471e-04  1.671101e-07
    197    223   2   0.50000    -0.1200000    0.0600000   2.494471e-04  1.671101e-07
    220    200   2   0.50000     0.0600000   -0.1200000   2.494471e-04  1.671101e-07
    220    222   2   0.50000     0.0600000    0.0600000   6.128906e-05  1.496315e-08
    220    223   2   0.50000     0.0600000    0.0600000   6.128906e-05  1.496315e-08
    221    200   2   0.50000     0.0600000   -0.1200000   2.494471e-04  1.671101e-07
    221    222   2   0.50000     0.0600000    0.0600000   6.128906e-05  1.496315e-08
    221    223   2   0.50000     0.0600000    0.0600000   6.128906e-05  1.496315e-08
    198    201   2   0.50000    -0.1200000   -0.1200000   1.015252e-03  1.866303e-06
    198    224   2   0.50000    -0.1200000    0.0600000   2.494471e-04  1.671101e-07
    198    225   2   0.50000    -0.1200000    0.0600000   2.494471e-04  1.671101e-07
    222    201   2   0.50000     0.0600000   -0.1200000   2.494471e-04  1.671101e-07
    222    224   2   0.50000     0.0600000    0.0600000   6.128906e-05  1.496315e-08
    222    225   2   0.50000     0.0600000    0.0600000   6.128906e-05  1.496315e-08
    223    201   2   0.50000     0.0600000   -0.1200000   2.494471e-04  1.671101e-07
    223    224   2   0.50000     0.0600000    0.0600000   6.128906e-05  1.496315e-08
    223    225   2   0.50000     0.0600000    0.0600000   6.128906e-05  1.496315e-08
    199    202   2   0.50000    -0.1200000   -0.1200000   1.015252e-03  1.866303e-06
    199    226   2   0.50000    -0.1200000    0.0600000   2.494471e-04  1.671101e-07
    199    227   2   0.50000    -0.1200000    0.0600000   2.494471e-04  1.671101e-07
    224    202   2   0.50000     0.0600000   -0.1200000   2.494471e-04  1.671101e-07
    224    226   2   0.50000     0.0600000    0.0600000   6.128906e-05  1.496315e-08
    224    227   2   0.50000     0.0600000    0.0600000   6.128906e-05  1.496315e-08
    225    202   2   0.50000     0.0600000   -0.1200000   2.494471e-04  1.671101e-07
    225    226   2   0.50000     0.0600000    0.0600000   6.128906e-05  1.496315e-08
    225    227   2   0.50000     0.0600000    0.0600000   6.128906e-05  1.496315e-08
    200    203   2   0.50000    -0.1200000   -0.1200000   1.015252e-03  1.866303e-06
    200    228   2   0.50000    -0.1200000    0.0600000   2.494471e-04  1.671101e-07
    200    229   2   0.50000    -0.1200000    0.0600000   2.494471e-04  1.671101e-07
    226    203   2   0.50000     0.0600000   -0.1200000   2.494471e-04  1.671101e-07
    226    228   2   0.50000     0.0600000    0.0600000   6.128906e-05  1.496315e-08
    226    229   2   0.50000     0.0600000    0.0600000   6.128906e-05  1.496315e-08
    227    203   2   0.50000     0.0600000   -0.1200000   2.494471e-04  1.671101e-07
    227    228   2   0.50000     0.0600000    0.0600000   6.128906e-05  1.496315e-08
    227    229   2   0.50000     0.0600000    0.0600000   6.128906e-05  1.496315e-08
    201    204   2   0.50000    -0.1200000    0.1900000   1.015252e-03  1.866303e-06
    201    230   2   0.50000    -0.1200000    0.0600000   2.494471e-04  1.671101e-07
    201    231   2   0.50000    -0.1200000    0.0600000   2.494471e-04  1.671101e-07
    228    204   2   0.50000     0.0600000    0.1900000   2.494471e-04  1.671101e-07
    228    230   2   0.50000     0.0600000    0.0600000   6.128906e-05  1.496315e-08
    228    231   2   0.50000     0.0600000    0.0600000   6.128906e-05  1.496315e-08
    229    204   2   0.50000     0.0600000    0.1900000   2.494471e-04  1.671101e-07
    229    230   2   0.50000     0.0600000    0.0600000   6.128906e-05  1.496315e-08
    229    231   2   0.50000     0.0600000    0.0600000   6.128906e-05  1.496315e-08
    202    205   2   0.50000    -0.1200000   -0.3300000   1.026091e-03  1.187829e-06
    202    232   2   0.50000    -0.1200000    0.0300000   1.599888e-04  9.721644e-08
    202    233   2   0.50000    -0.1200000    0.0300000   1.599888e-04  9.721644e-08
    230    205   2   0.50000     0.0600000   -0.3300000   2.521103e-04  1.063590e-07
    230    232   2   0.50000     0.0600000    0.0300000   3.930919e-05  8.704828e-09
    230    233   2   0.50000     0.0600000    0.0300000   3.930919e-05  8.704828e-09
    231    205   2   0.50000     0.0600000   -0.3300000   2.521103e-04  1.063590e-07
    231    232   2   0.50000     0.0600000    0.0300000   3.930919e-05  8.704828e-09
    231    233   2   0.50000     0.0600000    0.0300000   3.930919e-05  8.704828e-09
    203    206   2   0.50000    -0.1200000    0.5100000   1.575021e-03  3.561100e-06
    232    206   2   0.50000     0.0300000    0.5100000   2.482000e-04  1.854991e-07
    233    206   2   0.50000     0.0300000    0.5100000   2.482000e-04  1.854991e-07
    204    207   2   0.50000     0.1900000   -0.4300000   1.095425e-03  1.218041e-06
    204    208   2   0.50000     0.1900000   -0.1200000   1.015252e-03  1.866303e-06
    205    209   2   0.50000    -0.3300000   -0.1200000   1.026091e-03  1.187829e-06
    205    234   2   0.50000    -0.3300000    0.0600000   1.616969e-04  6.187447e-08
    205    235   2   0.50000    -0.3300000    0.0600000   1.616969e-04  6.187447e-08
    207    209   2   0.50000    -0.4300000   -0.1200000   1.095425e-03  1.218041e-06
    207    234   2   0.50000    -0.4300000    0.0600000   1.726228e-04  6.344822e-08
    207    235   2   0.50000    -0.4300000    0.0600000   1.726228e-04  6.344822e-08
    206    210   2   0.50000     0.5100000   -0.1200000   1.575021e-03  3.561100e-06
    206    236   2   0.50000     0.5100000    0.0600000   3.869820e-04  3.188634e-07
    206    237   2   0.50000     0.5100000    0.0600000   3.869820e-04  3.188634e-07
    234    210   2   0.50000     0.0600000   -0.1200000   1.599888e-04  9.721644e-08
    234    236   2   0.50000     0.0600000    0.0600000   3.930919e-05  8.704828e-09
    234    237   2   0.50000     0.0600000    0.0600000   3.930919e-05  8.704828e-09
    235    210   2   0.50000     0.0600000   -0.1200000   1.599888e-04  9.721644e-08
    235    236   2   0.50000     0.0600000    0.0600000   3.930919e-05  8.704828e-09
    235    237   2   0.50000     0.0600000    0.0600000   3.930919e-05  8.704828e-09
    208    211   2   0.50000    -0.1200000   -0.1200000   1.015252e-03  1.866303e-06
    208    238   2   0.50000    -0.1200000    0.0600000   2.494471e-04  1.671101e-07
    208    239   2   0.50000    -0.1200000    0.0600000   2.494471e-04  1.671101e-07
    236    211   2   0.50000     0.0600000   -0.1200000   2.494471e-04  1.671101e-07
    236    238   2   0.50000     0.0600000    0.0600000   6.128906e-05  1.496315e-08
    236    239   2   0.50000     0.0600000    0.0600000   6.128906e-05  1.496315e-08
    237    211   2   0.50000     0.0600000   -0.1200000   2.494471e-04  1.671101e-07
    237    238   2   0.50000     0.0600000    0.0600000   6.128906e-05  1.496315e-08
    237    239   2   0.50000     0.0600000    0.0600000   6.128906e-05  1.496315e-08
    209    212   2   0.50000    -0.1200000    0.5100000   1.575021e-03  3.561100e-06
    209    240   2   0.50000    -0.1200000    0.0600000   1.599888e-04  9.721644e-08
    209    241   2   0.50000    -0.1200000    0.0600000   1.599888e-04  9.721644e-08
    238    212   2   0.50000     0.0600000    0.5100000   3.869820e-04  3.188634e-07
    238    240   2   0.50000     0.0600000    0.0600000   3.930919e-05  8.704828e-09
    238    241   2   0.50000     0.0600000    0.0600000   3.930919e-05  8.704828e-09
    239    212   2   0.50000     0.0600000    0.5100000   3.869820e-04  3.188634e-07
    239    240   2   0.50000     0.0600000    0.0600000   3.930919e-05  8.704828e-09
    239    241   2   0.50000     0.0600000    0.0600000   3.930919e-05  8.704828e-09
    210    213   2   0.50000    -0.1200000   -0.4300000   1.095425e-03  1.218041e-06
    210    242   2   0.50000    -0.1200000   -0.3300000   1.026091e-03  1.187829e-06
    240    213   2   0.50000     0.0600000   -0.4300000   1.726228e-04  6.344822e-08
    240    242   2   0.50000     0.0600000   -0.3300000   1.616969e-04  6.187447e-08
    241    213   2   0.50000     0.0600000   -0.4300000   1.726228e-04  6.344822e-08
    241    242   2   0.50000     0.0600000   -0.3300000   1.616969e-04  6.187447e-08
    211    243   2   0.50000    -0.1200000    0.1900000   1.015252e-03  1.866303e-06
    213    243   2   0.50000    -0.4300000    0.1900000   1.095425e-03  1.218041e-06
    212    244   2   0.50000     0.5100000   -0.1200000   1.575021e-03  3.561100e-06
    212    262   2   0.50000     0.5100000    0.0300000   2.482000e-04  1.854991e-07
    212    263   2   0.50000     0.5100000    0.0300000   2.482000e-04  1.854991e-07
    242    245   2   0.50000    -0.3300000   -0.1200000   1.026091e-03  1.187829e-06
    242    264   2   0.50000    -0.3300000    0.0600000   2.521103e-04  1.063590e-07
    242    265   2   0.50000    -0.3300000    0.0600000   2.521103e-04  1.063590e-07
    262    245   2   0.50000     0.0300000   -0.1200000   1.599888e-04  9.721644e-08
    262    264   2   0.50000     0.0300000    0.0600000   3.930919e-05  8.704828e-09
    262    265   2   0.50000     0.0300000    0.0600000   3.930919e-05  8.704828e-09
    263    245   2   0.50000     0.0300000   -0.1200000   1.599888e-04  9.721644e-08
    263    264   2   0.50000     0.0300000    0.0600000   3.930919e-05  8.704828e-09
    263    265   2   0.50000     0.0300000    0.0600000   3.930919e-05  8.704828e-09
    243    246   2   0.50000     0.1900000   -0.1200000   1.015252e-03  1.866303e-06
    243    266   2   0.50000     0.1900000    0.0600000   2.494471e-04  1.671101e-07
    243    267   2   0.50000     0.1900000    0.0600000   2.494471e-04  1.671101e-07
    264    246   2   0.50000     0.0600000   -0.1200000   2.494471e-04  1.671101e-07
    264    266   2   0.50000     0.0600000    0.0600000   6.128906e-05  1.496315e-08
    264    267   2   0.50000     0.0600000    0.0600000   6.128906e-05  1.496315e-08
    265    246   2   0.50000     0.0600000   -0.1200000   2.494471e-04  1.671101e-07
    265    266   2   0.50000     0.0600000    0.0600000   6.128906e-05  1.496315e-08
    265    267   2   0.50000     0.0600000    0.0600000   6.128906e-05  1.496315e-08
    244    247   2   0.50000    -0.1200000   -0.1200000   1.015252e-03  1.866303e-06
    244    268   2   0.50000    -0.1200000    0.0600000   2.494471e-04  1.671101e-07
    244    269   2   0.50000    -0.1200000    0.0600000   2.494471e-04  1.671101e-07
    266    247   2   0.50000     0.0600000   -0.1200000   2.494471e-04  1.671101e-07
    266    268   2   0.50000     0.0600000    0.0600000   6.128906e-05  1.496315e-08
    266    269   2   0.50000     0.0600000    0.0600000   6.128906e-05  1.496315e-08
    267    247   2   0.50000     0.0600000   -0.1200000   2.494471e-04  1.671101e-07
    267    268   2   0.50000     0.0600000    0.0600000   6.128906e-05  1.496315e-08
    267    269   2   0.50000     0.0600000    0.0600000   6.128906e-05  1.496315e-08
    245    248   2   0.50000    -0.1200000   -0.1200000   1.015252e-03  1.866303e-06
    245    270   2   0.50000    -0.1200000    0.0600000   2.494471e-04  1.671101e-07
    245    271   2   0.50000    -0.1200000    0.0600000   2.494471e-04  1.671101e-07
    268    248   2   0.50000     0.0600000   -0.1200000   2.494471e-04  1.671101e-07
    268    270   2   0.50000     0.0600000    0.0600000   6.128906e-05  1.496315e-08
    268    271   2   0.50000     0.0600000    0.0600000   6.128906e-05  1.496315e-08
    269    248   2   0.50000     0.0600000   -0.1200000   2.494471e-04  1.671101e-07
    269    270   2   0.50000     0.0600000    0.0600000   6.128906e-05  1.496315e-08
    269    271   2   0.50000     0.0600000    0.0600000   6.128906e-05  1.496315e-08
    246    249   2   0.50000    -0.1200000   -0.1200000   1.015252e-03  1.866303e-06
    246    272   2   0.50000    -0.1200000    0.0600000   2.494471e-04  1.671101e-07
    246    273   2   0.50000    -0.1200000    0.0600000   2.494471e-04  1.671101e-07
    270    249   2   0.50000     0.0600000   -0.1200000   2.494471e-04  1.671101e-07
    270    272   2   0.50000     0.0600000    0.0600000   6.128906e-05  1.496315e-08
    270    273   2   0.50000     0.0600000    0.0600000   6.128906e-05  1.496315e-08
    271    249   2   0.50000     0.0600000   -0.1200000   2.494471e-04  1.671101e-07
    271    272   2   0.50000     0.0600000    0.0600000   6.128906e-05  1.496315e-08
    271    273   2   0.50000     0.0600000    0.0600000   6.128906e-05  1.496315e-08
    247    250   2   0.50000    -0.1200000   -0.1200000   1.015252e-03  1.866303e-06
    247    274   2   0.50000    -0.1200000    0.0600000   2.494471e-04  1.671101e-07
    247    275   2   0.50000    -0.1200000    0.0600000   2.494471e-04  1.671101e-07
    272    250   2   0.50000     0.0600000   -0.1200000   2.494471e-04  1.671101e-07
    272    274   2   0.50000     0.0600000    0.0600000   6.128906e-05  1.496315e-08
    272    275   2   0.50000     0.0600000    0.0600000   6.128906e-05  1.496315e-08
    273    250   2   0.50000     0.0600000   -0.1200000   2.494471e-04  1.671101e-07
    273    274   2   0.50000     0.0600000    0.0600000   6.128906e-05  1.496315e-08
    273    275   2   0.50000     0.0600000    0.0600000   6.128906e-05  1.496315e-08
    248    251   2   0.50000    -0.1200000   -0.1200000   1.015252e-03  1.866303e-06
    248    276   2   0.50000    -0.1200000    0.0600000   2.494471e-04  1.671101e-07
    248    277   2   0.50000    -0.1200000    0.0600000   2.494471e-04  1.671101e-07
    274    251   2   0.50000     0.0600000   -0.1200000   2.494471e-04  1.671101e-07
    274    276   2   0.50000     0.0600000    0.0600000   6.128906e-05  1.496315e-08
    274    277   2   0.50000     0.0600000    0.0600000   6.128906e-05  1.496315e-08
    275    251   2   0.50000     0.0600000   -0.1200000   2.494471e-04  1.671101e-07
    275    276   2   0.50000     0.0600000    0.0600000   6.128906e-05  1.496315e-08
    275    277   2   0.50000     0.0600000    0.0600000   6.128906e-05  1.496315e-08
    249    252   2   0.50000    -0.1200000    0.1900000   1.015252e-03  1.866303e-06
    249    278   2   0.50000    -0.1200000    0.0600000   2.494471e-04  1.671101e-07
    249    279   2   0.50000    -0.1200000    0.0600000   2.494471e-04  1.671101e-07
    276    252   2   0.50000     0.0600000    0.1900000   2.494471e-04  1.671101e-07
    276    278   2   0.50000     0.0600000    0.0600000   6.128906e-05  1.496315e-08
    276    279   2   0.50000     0.0600000    0.0600000   6.128906e-05  1.496315e-08
    277    252   2   0.50000     0.0600000    0.1900000   2.494471e-04  1.671101e-07
    277    278   2   0.50000     0.0600000    0.0600000   6.128906e-05  1.496315e-08
    277    279   2   0.50000     0.0600000    0.0600000   6.128906e-05  1.496315e-08
    250    253   2   0.50000    -0.1200000   -0.3300000   1.026091e-03  1.187829e-06
    250    280   2   0.50000    -0.1200000    0.0300000   1.599888e-04  9.721644e-08
    250    281   2   0.50000    -0.1200000    0.0300000   1.599888e-04  9.721644e-08
    278    253   2   0.50000     0.0600000   -0.3300000   2.521103e-04  1.063590e-07
    278    280   2   0.50000     0.0600000    0.0300000   3.930919e-05  8.704828e-09
    278    281   2   0.50000     0.0600000    0.0300000   3.930919e-05  8.704828e-09
    279    253   2   0.50000     0.0600000   -0.3300000   2.521103e-04  1.063590e-07
    279    280   2   0.50000     0.0600000    0.0300000   3.930919e-05  8.704828e-09
    279    281   2   0.50000     0.0600000    0.0300000   3.930919e-05  8.704828e-09
    251    254   2   0.50000    -0.1200000    0.5100000   1.575021e-03  3.561100e-06
    280    254   2   0.50000     0.0300000    0.5100000   2.482000e-04  1.854991e-07
    281    254   2   0.50000     0.0300000    0.5100000   2.482000e-04  1.854991e-07
    252    255   2   0.50000     0.1900000   -0.4300000   1.095425e-03  1.218041e-06
    252    256   2   0.50000     0.1900000   -0.1200000   1.015252e-03  1.866303e-06
    253    257   2   0.50000    -0.3300000   -0.1200000   1.026091e-03  1.187829e-06
    253    282   2   0.50000    -0.3300000    0.0600000   1.616969e-04  6.187447e-08
    253    283   2   0.50000    -0.3300000    0.0600000   1.616969e-04  6.187447e-08
    255    257   2   0.50000    -0.4300000   -0.1200000   1.095425e-03  1.218041e-06
    255    282   2   0.50000    -0.4300000    0.0600000   1.726228e-04  6.344822e-08
    255    283   2   0.50000    -0.4300000    0.0600000   1.726228e-04  6.344822e-08
    254    258   2   0.50000     0.5100000   -0.1200000   1.575021e-03  3.561100e-06
    254    284   2   0.50000     0.5100000    0.0600000   3.869820e-04  3.188634e-07
    254    285   2   0.50000     0.5100000    0.0600000   3.869820e-04  3.188634e-07
    282    258   2   0.50000     0.0600000   -0.1200000   1.599888e-04  9.721644e-08
    282    284   2   0.50000     0.0600000    0.0600000   3.930919e-05  8.704828e-09
    282    285   2   0.50000     0.0600000    0.0600000   3.930919e-05  8.704828e-09
    283    258   2   0.50000     0.0600000   -0.1200000   1.599888e-04  9.721644e-08
    283    284   2   0.50000     0.0600000    0.0600000   3.930919e-05  8.704828e-09
    283    285   2   0.50000     0.0600000    0.0600000   3.930919e-05  8.704828e-09
    256    259   2   0.50000    -0.1200000   -0.1200000   1.015252e-03  1.866303e-06
    256    286   2   0.50000    -0.1200000    0.0600000   2.494471e-04  1.671101e-07
    256    287   2   0.50000    -0.1200000    0.0600000   2.494471e-04  1.671101e-07
    284    259   2   0.50000     0.0600000   -0.1200000   2.494471e-04  1.671101e-07
    284    286   2   0.50000     0.0600000    0.0600000   6.128906e-05  1.496315e-08
    284    287   2   0.50000     0.0600000    0.0600000   6.128906e-05  1.496315e-08
    285    259   2   0.50000     0.0600000   -0.1200000   2.494471e-04  1.671101e-07
    285    286   2   0.50000     0.0600000    0.0600000   6.128906e-05  1.496315e-08
    285    287   2   0.50000     0.0600000    0.0600000   6.128906e-05  1.496315e-08
    257    260   2   0.50000    -0.1200000    0.5100000   1.575021e-03  3.561100e-06
    257    288   2   0.50000    -0.1200000    0.0600000   1.599888e-04  9.721644e-08
    257    289   2   0.50000    -0.1200000    0.0600000   1.599888e-04  9.721644e-08
    286    260   2   0.50000     0.0600000    0.5100000   3.869820e-04  3.188634e-07
    286    288   2   0.50000     0.0600000    0.0600000   3.930919e-05  8.704828e-09
    286    289   2   0.50000     0.0600000    0.0600000   3.930919e-05  8.704828e-09
    287    260   2   0.50000     0.0600000    0.5100000   3.869820e-04  3.188634e-07
    287    288   2   0.50000     0.0600000    0.0600000   3.930919e-05  8.704828e-09
    287    289   2   0.50000     0.0600000    0.0600000   3.930919e-05  8.704828e-09
    258    261   2   0.50000    -0.1200000   -0.4300000   1.095425e-03  1.218041e-06
    258    290   2   0.50000    -0.1200000   -0.3300000   1.026091e-03  1.187829e-06
    288    261   2   0.50000     0.0600000   -0.4300000   1.726228e-04  6.344822e-08
    288    290   2   0.50000     0.0600000   -0.3300000   1.616969e-04  6.187447e-08
    289    261   2   0.50000     0.0600000   -0.4300000   1.726228e-04  6.344822e-08
    289    290   2   0.50000     0.0600000   -0.3300000   1.616969e-04  6.187447e-08
    259    291   2   0.50000    -0.1200000    0.1900000   1.015252e-03  1.866303e-06
    261    291   2   0.50000    -0.4300000    0.1900000   1.095425e-03  1.218041e-06
    260    292   2   0.50000     0.5100000   -0.1200000   1.575021e-03  3.561100e-06
    260    310   2   0.50000     0.5100000    0.0300000   2.482000e-04  1.854991e-07
    260    311   2   0.50000     0.5100000    0.0300000   2.482000e-04  1.854991e-07
    290    293   2   0.50000    -0.3300000   -0.1200000   1.026091e-03  1.187829e-06
    290    312   2   0.50000    -0.3300000    0.0600000   2.521103e-04  1.063590e-07
    290    313   2   0.50000    -0.3300000    0.0600000   2.521103e-04  1.063590e-07
    310    293   2   0.50000     0.0300000   -0.1200000   1.599888e-04  9.721644e-08
    310    312   2   0.50000     0.0300000    0.0600000   3.930919e-05  8.704828e-09
    310    313   2   0.50000     0.0300000    0.0600000   3.930919e-05  8.704828e-09
    311    293   2   0.50000     0.0300000   -0.1200000   1.599888e-04  9.721644e-08
    311    312   2   0.50000     0.0300000    0.0600000   3.930919e-05  8.704828e-09
    311    313   2   0.50000     0.0300000    0.0600000   3.930919e-05  8.704828e-09
    291    294   2   0.50000     0.1900000   -0.1200000   1.015252e-03  1.866303e-06
    291    314   2   0.50000     0.1900000    0.0600000   2.494471e-04  1.671101e-07
    291    315   2   0.50000     0.1900000    0.0600000   2.494471e-04  1.671101e-07
    312    294   2   0.50000     0.0600000   -0.1200000   2.494471e-04  1.671101e-07
    312    314   2   0.50000     0.0600000    0.0600000   6.128906e-05  1.496315e-08
    312    315   2   0.50000     0.0600000    0.0600000   6.128906e-05  1.496315e-08
    313    294   2   0.50000     0.0600000   -0.1200000   2.494471e-04  1.671101e-07
    313    314   2   0.50000     0.0600000    0.0600000   6.128906e-05  1.496315e-08
    313    315   2   0.50000     0.0600000    0.0600000   6.128906e-05  1.496315e-08
    292    295   2   0.50000    -0.1200000   -0.1200000   1.015252e-03  1.866303e-06
    292    316   2   0.50000    -0.1200000    0.0600000   2.494471e-04  1.671101e-07
    292    317   2   0.50000    -0.1200000    0.0600000   2.494471e-04  1.671101e-07
    314    295   2   0.50000     0.0600000   -0.1200000   2.494471e-04  1.671101e-07
    314    316   2   0.50000     0.0600000    0.0600000   6.128906e-05  1.496315e-08
    314    317   2   0.50000     0.0600000    0.0600000   6.128906e-05  1.496315e-08
    315    295   2   0.50000     0.0600000   -0.1200000   2.494471e-04  1.671101e-07
    315    316   2   0.50000     0.0600000    0.0600000   6.128906e-05  1.496315e-08
    315    317   2   0.50000     0.0600000    0.0600000   6.128906e-05  1.496315e-08
    293    296   2   0.50000    -0.1200000   -0.1200000   1.015252e-03  1.866303e-06
    293    318   2   0.50000    -0.1200000    0.0600000   2.494471e-04  1.671101e-07
    293    319   2   0.50000    -0.1200000    0.0600000   2.494471e-04  1.671101e-07
    316    296   2   0.50000     0.0600000   -0.1200000   2.494471e-04  1.671101e-07
    316    318   2   0.50000     0.0600000    0.0600000   6.128906e-05  1.496315e-08
    316    319   2   0.50000     0.0600000    0.0600000   6.128906e-05  1.496315e-08
    317    296   2   0.50000     0.0600000   -0.1200000   2.494471e-04  1.671101e-07
    317    318   2   0.50000     0.0600000    0.0600000   6.128906e-05  1.496315e-08
    317    319   2   0.50000     0.0600000    0.0600000   6.128906e-05  1.496315e-08
    294    297   2   0.50000    -0.1200000   -0.1200000   1.015252e-03  1.866303e-06
    294    320   2   0.50000    -0.1200000    0.0600000   2.494471e-04  1.671101e-07
    294    321   2   0.50000    -0.1200000    0.0600000   2.494471e-04  1.671101e-07
    318    297   2   0.50000     0.0600000   -0.1200000   2.494471e-04  1.671101e-07
    318    320   2   0.50000     0.0600000    0.0600000   6.128906e-05  1.496315e-08
    318    321   2   0.50000     0.0600000    0.0600000   6.128906e-05  1.496315e-08
    319    297   2   0.50000     0.0600000   -0.1200000   2.494471e-04  1.671101e-07
    319    320   2   0.50000     0.0600000    0.0600000   6.128906e-05  1.496315e-08
    319    321   2   0.50000     0.0600000    0.0600000   6.128906e-05  1.496315e-08
    295    298   2   0.50000    -0.1200000   -0.1200000   1.015252e-03  1.866303e-06
    295    322   2   0.50000    -0.1200000    0.0600000   2.494471e-04  1.671101e-07
    295    323   2   0.50000    -0.1200000    0.0600000   2.494471e-04  1.671101e-07
    320    298   2   0.50000     0.0600000   -0.1200000   2.494471e-04  1.671101e-07
    320    322   2   0.50000     0.0600000    0.0600000   6.128906e-05  1.496315e-08
    320    323   2   0.50000     0.0600000    0.0600000   6.128906e-05  1.496315e-08
    321    298   2   0.50000     0.0600000   -0.1200000   2.494471e-04  1.671101e-07
    321    322   2   0.50000     0.0600000    0.0600000   6.128906e-05  1.496315e-08
    321    323   2   0.50000     0.0600000    0.0600000   6.128906e-05  1.496315e-08
    296    299   2   0.50000    -0.1200000   -0.1200000   1.015252e-03  1.866303e-06
    296    324   2   0.50000    -0.1200000    0.0600000   2.494471e-04  1.671101e-07
    296    325   2   0.50000    -0.1200000    0.0600000   2.494471e-04  1.671101e-07
    322    299   2   0.50000     0.0600000   -0.1200000   2.494471e-04  1.671101e-07
    322    324   2   0.50000     0.0600000    0.0600000   6.128906e-05  1.496315e-08
    322    325   2   0.50000     0.0600000    0.0600000   6.128906e-05  1.496315e-08
    323    299   2   0.50000     0.0600000   -0.1200000   2.494471e-04  1.671101e-07
    323    324   2   0.50000     0.0600000    0.0600000   6.128906e-05  1.496315e-08
    323    325   2   0.50000     0.0600000    0.0600000   6.128906e-05  1.496315e-08
    297    300   2   0.50000    -0.1200000    0.1900000   1.015252e-03  1.866303e-06
    297    326   2   0.50000    -0.1200000    0.0600000   2.494471e-04  1.671101e-07
    297    327   2   0.50000    -0.1200000    0.0600000   2.494471e-04  1.671101e-07
    324    300   2   0.50000     0.0600000    0.1900000   2.494471e-04  1.671101e-07
    324    326   2   0.50000     0.0600000    0.0600000   6.128906e-05  1.496315e-08
    324    327   2   0.50000     0.0600000    0.0600000   6.128906e-05  1.496315e-08
    325    300   2   0.50000     0.0600000    0.1900000   2.494471e-04  1.671101e-07
    325    326   2   0.50000     0.0600000    0.0600000   6.128906e-05  1.496315e-08
    325    327   2   0.50000     0.0600000    0.0600000   6.128906e-05  1.496315e-08
    298    301   2   0.50000    -0.1200000   -0.3300000   1.026091e-03  1.187829e-06
    298    328   2   0.50000    -0.1200000    0.0300000   1.599888e-04  9.721644e-08
    298    329   2   0.50000    -0.1200000    0.0300000   1.599888e-04  9.721644e-08
    326    301   2   0.50000     0.0600000   -0.3300000   2.521103e-04  1.063590e-07
    326    328   2   0.50000     0.0600000    0.0300000   3.930919e-05  8.704828e-09
    326    329   2   0.50000     0.0600000    0.0300000   3.930919e-05  8.704828e-09
    327    301   2   0.50000     0.0600000   -0.3300000   2.521103e-04  1.063590e-07
    327    328   2   0.50000     0.0600000    0.0300000   3.930919e-05  8.704828e-09
    327    329   2   0.50000     0.0600000    0.0300000   3.930919e-05  8.704828e-09
    299    302   2   0.50000    -0.1200000    0.5100000   1.575021e-03  3.561100e-06
    328    302   2   0.50000     0.0300000    0.5100000   2.482000e-04  1.854991e-07
    329    302   2   0.50000     0.0300000    0.5100000   2.482000e-04  1.854991e-07
    300    303   2   0.50000     0.1900000   -0.4300000   1.095425e-03  1.218041e-06
    300    304   2   0.50000     0.1900000   -0.1200000   1.015252e-03  1.866303e-06
    301    305   2   0.50000    -0.3300000   -0.1200000   1.026091e-03  1.187829e-06
    301    330   2   0.50000    -0.3300000    0.0600000   1.616969e-04  6.187447e-08
    301    331   2   0.50000    -0.3300000    0.0600000   1.616969e-04  6.187447e-08
    303    305   2   0.50000    -0.4300000   -0.1200000   1.095425e-03  1.218041e-06
    303    330   2   0.50000    -0.4300000    0.0600000   1.726228e-04  6.344822e-08
    303    331   2   0.50000    -0.4300000    0.0600000   1.726228e-04  6.344822e-08
    302    306   2   0.50000     0.5100000   -0.1200000   1.575021e-03  3.561100e-06
    302    332   2   0.50000     0.5100000    0.0600000   3.869820e-04  3.188634e-07
    302    333   2   0.50000     0.5100000    0.0600000   3.869820e-04  3.188634e-07
    330    306   2   0.50000     0.0600000   -0.1200000   1.599888e-04  9.721644e-08
    330    332   2   0.50000     0.0600000    0.0600000   3.930919e-05  8.704828e-09
    330    333   2   0.50000     0.0600000    0.0600000   3.930919e-05  8.704828e-09
    331    306   2   0.50000     0.0600000   -0.1200000   1.599888e-04  9.721644e-08
    331    332   2   0.50000     0.0600000    0.0600000   3.930919e-05  8.704828e-09
    331    333   2   0.50000     0.0600000    0.0600000   3.930919e-05  8.704828e-09
    304    307   2   0.50000    -0.1200000   -0.1200000   1.015252e-03  1.866303e-06
    304    334   2   0.50000    -0.1200000    0.0600000   2.494471e-04  1.671101e-07
    304    335   2   0.50000    -0.1200000    0.0600000   2.494471e-04  1.671101e-07
    332    307   2   0.50000     0.0600000   -0.1200000   2.494471e-04  1.671101e-07
    332    334   2   0.50000     0.0600000    0.0600000   6.128906e-05  1.496315e-08
    332    335   2   0.50000     0.0600000    0.0600000   6.128906e-05  1.496315e-08
    333    307   2   0.50000     0.0600000   -0.1200000   2.494471e-04  1.671101e-07
    333    334   2   0.50000     0.0600000    0.0600000   6.128906e-05  1.496315e-08
    333    335   2   0.50000     0.0600000    0.0600000   6.128906e-05  1.496315e-08
    305    308   2   0.50000    -0.1200000    0.5100000   1.575021e-03  3.561100e-06
    305    336   2   0.50000    -0.1200000    0.0600000   1.599888e-04  9.721644e-08
    305    337   2   0.50000    -0.1200000    0.0600000   1.599888e-04  9.721644e-08
    334    308   2   0.50000     0.0600000    0.5100000   3.869820e-04  3.188634e-07
    334    336   2   0.50000     0.0600000    0.0600000   3.930919e-05  8.704828e-09
    334    337   2   0.50000     0.0600000    0.0600000   3.930919e-05  8.704828e-09
    335    308   2   0.50000     0.0600000    0.5100000   3.869820e-04  3.188634e-07
    335    336   2   0.50000     0.0600000    0.0600000   3.930919e-05  8.704828e-09
    335    337   2   0.50000     0.0600000    0.0600000   3.930919e-05  8.704828e-09
    306    309   2   0.50000    -0.1200000   -0.4300000   1.095425e-03  1.218041e-06
    306    338   2   0.50000    -0.1200000   -0.3300000   1.026091e-03  1.187829e-06
    336    309   2   0.50000     0.0600000   -0.4300000   1.726228e-04  6.344822e-08
    336    338   2   0.50000     0.0600000   -0.3300000   1.616969e-04  6.187447e-08
    337    309   2   0.50000     0.0600000   -0.4300000   1.726228e-04  6.344822e-08
    337    338   2   0.50000     0.0600000   -0.3300000   1.616969e-04  6.187447e-08
    307    339   2   0.50000    -0.1200000    0.1900000   1.015252e-03  1.866303e-06
    309    339   2   0.50000    -0.4300000    0.1900000   1.095425e-03  1.218041e-06
    308    340   2   0.50000     0.5100000   -0.1200000   1.575021e-03  3.561100e-06
    308    358   2   0.50000     0.5100000    0.0300000   2.482000e-04  1.854991e-07
    308    359   2   0.50000     0.5100000    0.0300000   2.482000e-04  1.854991e-07
    338    341   2   0.50000    -0.3300000   -0.1200000   1.026091e-03  1.187829e-06
    338    360   2   0.50000    -0.3300000    0.0600000   2.521103e-04  1.063590e-07
    338    361   2   0.50000    -0.3300000    0.0600000   2.521103e-04  1.063590e-07
    358    341   2   0.50000     0.0300000   -0.1200000   1.599888e-04  9.721644e-08
    358    360   2   0.50000     0.0300000    0.0600000   3.930919e-05  8.704828e-09
    358    361   2   0.50000     0.0300000    0.0600000   3.930919e-05  8.704828e-09
    359    341   2   0.50000     0.0300000   -0.1200000   1.599888e-04  9.721644e-08
    359    360   2   0.50000     0.0300000    0.0600000   3.930919e-05  8.704828e-09
    359    361   2   0.50000     0.0300000    0.0600000   3.930919e-05  8.704828e-09
    339    342   2   0.50000     0.1900000   -0.1200000   1.015252e-03  1.866303e-06
    339    362   2   0.50000     0.1900000    0.0600000   2.494471e-04  1.671101e-07
    339    363   2   0.50000     0.1900000    0.0600000   2.494471e-04  1.671101e-07
    360    342   2   0.50000     0.0600000   -0.1200000   2.494471e-04  1.671101e-07
    360    362   2   0.50000     0.0600000    0.0600000   6.128906e-05  1.496315e-08
    360    363   2   0.50000     0.0600000    0.0600000   6.128906e-05  1.496315e-08
    361    342   2   0.50000     0.0600000   -0.1200000   2.494471e-04  1.671101e-07
    361    362   2   0.50000     0.0600000    0.0600000   6.128906e-05  1.496315e-08
    361    363   2   0.50000     0.0600000    0.0600000   6.128906e-05  1.496315e-08
    340    343   2   0.50000    -0.1200000   -0.1200000   1.015252e-03  1.866303e-06
    340    364   2   0.50000    -0.1200000    0.0600000   2.494471e-04  1.671101e-07
    340    365   2   0.50000    -0.1200000    0.0600000   2.494471e-04  1.671101e-07
    362    343   2   0.50000     0.0600000   -0.1200000   2.494471e-04  1.671101e-07
    362    364   2   0.50000     0.0600000    0.0600000   6.128906e-05  1.496315e-08
    362    365   2   0.50000     0.0600000    0.0600000   6.128906e-05  1.496315e-08
    363    343   2   0.50000     0.0600000   -0.1200000   2.494471e-04  1.671101e-07
    363    364   2   0.50000     0.0600000    0.0600000   6.128906e-05  1.496315e-08
    363    365   2   0.50000     0.0600000    0.0600000   6.128906e-05  1.496315e-08
    341    344   2   0.50000    -0.1200000   -0.1200000   1.015252e-03  1.866303e-06
    341    366   2   0.50000    -0.1200000    0.0600000   2.494471e-04  1.671101e-07
    341    367   2   0.50000    -0.1200000    0.0600000   2.494471e-04  1.671101e-07
    364    344   2   0.50000     0.0600000   -0.1200000   2.494471e-04  1.671101e-07
    364    366   2   0.50000     0.0600000    0.0600000   6.128906e-05  1.496315e-08
    364    367   2   0.50000     0.0600000    0.0600000   6.128906e-05  1.496315e-08
    365    344   2   0.50000     0.0600000   -0.1200000   2.494471e-04  1.671101e-07
    365    366   2   0.50000     0.0600000    0.0600000   6.128906e-05  1.496315e-08
    365    367   2   0.50000     0.0600000    0.0600000   6.128906e-05  1.496315e-08
    342    345   2   0.50000    -0.1200000   -0.1200000   1.015252e-03  1.866303e-06
    342    368   2   0.50000    -0.1200000    0.0600000   2.494471e-04  1.671101e-07
    342    369   2   0.50000    -0.1200000    0.0600000   2.494471e-04  1.671101e-07
    366    345   2   0.50000     0.0600000   -0.1200000   2.494471e-04  1.671101e-07
    366    368   2   0.50000     0.0600000    0.0600000   6.128906e-05  1.496315e-08
    366    369   2   0.50000     0.0600000    0.0600000   6.128906e-05  1.496315e-08
    367    345   2   0.50000     0.0600000   -0.1200000   2.494471e-04  1.671101e-07
    367    368   2   0.50000     0.0600000    0.0600000   6.128906e-05  1.496315e-08
    367    369   2   0.50000     0.0600000    0.0600000   6.128906e-05  1.496315e-08
    343    346   2   0.50000    -0.1200000   -0.1200000   1.015252e-03  1.866303e-06
    343    370   2   0.50000    -0.1200000    0.0600000   2.494471e-04  1.671101e-07
    343    371   2   0.50000    -0.1200000    0.0600000   2.494471e-04  1.671101e-07
    368    346   2   0.50000     0.0600000   -0.1200000   2.494471e-04  1.671101e-07
    368    370   2   0.50000     0.0600000    0.0600000   6.128906e-05  1.496315e-08
    368    371   2   0.50000     0.0600000    0.0600000   6.128906e-05  1.496315e-08
    369    346   2   0.50000     0.0600000   -0.1200000   2.494471e-04  1.671101e-07
    369    370   2   0.50000     0.0600000    0.0600000   6.128906e-05  1.496315e-08
    369    371   2   0.50000     0.0600000    0.0600000   6.128906e-05  1.496315e-08
    344    347   2   0.50000    -0.1200000   -0.1200000   1.015252e-03  1.866303e-06
    344    372   2   0.50000    -0.1200000    0.0600000   2.494471e-04  1.671101e-07
    344    373   2   0.50000    -0.1200000    0.0600000   2.494471e-04  1.671101e-07
    370    347   2   0.50000     0.0600000   -0.1200000   2.494471e-04  1.671101e-07
    370    372   2   0.50000     0.0600000    0.0600000   6.128906e-05  1.496315e-08
    370    373   2   0.50000     0.0600000    0.0600000   6.128906e-05  1.496315e-08
    371    347   2   0.50000     0.0600000   -0.1200000   2.494471e-04  1.671101e-07
    371    372   2   0.50000     0.0600000    0.0600000   6.128906e-05  1.496315e-08
    371    373   2   0.50000     0.0600000    0.0600000   6.128906e-05  1.496315e-08
    345    348   2   0.50000    -0.1200000    0.1900000   1.015252e-03  1.866303e-06
    345    374   2   0.50000    -0.1200000    0.0600000   2.494471e-04  1.671101e-07
    345    375   2   0.50000    -0.1200000    0.0600000   2.494471e-04  1.671101e-07
    372    348   2   0.50000     0.0600000    0.1900000   2.494471e-04  1.671101e-07
    372    374   2   0.50000     0.0600000    0.0600000   6.128906e-05  1.496315e-08
    372    375   2   0.50000     0.0600000    0.0600000   6.128906e-05  1.496315e-08
    373    348   2   0.50000     0.0600000    0.1900000   2.494471e-04  1.671101e-07
    373    374   2   0.50000     0.0600000    0.0600000   6.128906e-05  1.496315e-08
    373    375   2   0.50000     0.0600000    0.0600000   6.128906e-05  1.496315e-08
    346    349   2   0.50000    -0.1200000   -0.3300000   1.026091e-03  1.187829e-06
    346    376   2   0.50000    -0.1200000    0.0300000   1.599888e-04  9.721644e-08
    346    377   2   0.50000    -0.1200000    0.0300000   1.599888e-04  9.721644e-08
    374    349   2   0.50000     0.0600000   -0.3300000   2.521103e-04  1.063590e-07
    374    376   2   0.50000     0.0600000    0.0300000   3.930919e-05  8.704828e-09
    374    377   2   0.50000     0.0600000    0.0300000   3.930919e-05  8.704828e-09
    375    349   2   0.50000     0.0600000   -0.3300000   2.521103e-04  1.063590e-07
    375    376   2   0.50000     0.0600000    0.0300000   3.930919e-05  8.704828e-09
    375    377   2   0.50000     0.0600000    0.0300000   3.930919e-05  8.704828e-09
    347    350   2   0.50000    -0.1200000    0.5100000   1.575021e-03  3.561100e-06
    376    350   2   0.50000     0.0300000    0.5100000   2.482000e-04  1.854991e-07
    377    350   2   0.50000     0.0300000    0.5100000   2.482000e-04  1.854991e-07
    348    351   2   0.50000     0.1900000   -0.4300000   1.095425e-03  1.218041e-06
    348    352   2   0.50000     0.1900000   -0.1200000   1.015252e-03  1.866303e-06
    349    353   2   0.50000    -0.3300000   -0.1200000   1.026091e-03  1.187829e-06
    349    378   2   0.50000    -0.3300000    0.0600000   1.616969e-04  6.187447e-08
    349    379   2   0.50000    -0.3300000    0.0600000   1.616969e-04  6.187447e-08
    351    353   2   0.50000    -0.4300000   -0.1200000   1.095425e-03  1.218041e-06
    351    378   2   0.50000    -0.4300000    0.0600000   1.726228e-04  6.344822e-08
    351    379   2   0.50000    -0.4300000    0.0600000   1.726228e-04  6.344822e-08
    350    354   2   0.50000     0.5100000   -0.1200000   1.575021e-03  3.561100e-06
    350    380   2   0.50000     0.5100000    0.0600000   3.869820e-04  3.188634e-07
    350    381   2   0.50000     0.5100000    0.0600000   3.869820e-04  3.188634e-07
    378    354   2   0.50000     0.0600000   -0.1200000   1.599888e-04  9.721644e-08
    378    380   2   0.50000     0.0600000    0.0600000   3.930919e-05  8.704828e-09
    378    381   2   0.50000     0.0600000    0.0600000   3.930919e-05  8.704828e-09
    379    354   2   0.50000     0.0600000   -0.1200000   1.599888e-04  9.721644e-08
    379    380   2   0.50000     0.0600000    0.0600000   3.930919e-05  8.704828e-09
    379    381   2   0.50000     0.0600000    0.0600000   3.930919e-05  8.704828e-09
    352    355   2   0.50000    -0.1200000   -0.1200000   1.015252e-03  1.866303e-06
    352    382   2   0.50000    -0.1200000    0.0600000   2.494471e-04  1.671101e-07
    352    383   2   0.50000    -0.1200000    0.0600000   2.494471e-04  1.671101e-07
    380    355   2   0.50000     0.0600000   -0.1200000   2.494471e-04  1.671101e-07
    380    382   2   0.50000     0.0600000    0.0600000   6.128906e-05  1.496315e-08
    380    383   2   0.50000     0.0600000    0.0600000   6.128906e-05  1.496315e-08
    381    355   2   0.50000     0.0600000   -0.1200000   2.494471e-04  1.671101e-07
    381    382   2   0.50000     0.0600000    0.0600000   6.128906e-05  1.496315e-08
    381    383   2   0.50000     0.0600000    0.0600000   6.128906e-05  1.496315e-08
    353    356   2   0.50000    -0.1200000    0.5100000   1.575021e-03  3.561100e-06
    353    384   2   0.50000    -0.1200000    0.0600000   1.599888e-04  9.721644e-08
    353    385   2   0.50000    -0.1200000    0.0600000   1.599888e-04  9.721644e-08
    382    356   2   0.50000     0.0600000    0.5100000   3.869820e-04  3.188634e-07
    382    384   2   0.50000     0.0600000    0.0600000   3.930919e-05  8.704828e-09
    382    385   2   0.50000     0.0600000    0.0600000   3.930919e-05  8.704828e-09
    383    356   2   0.50000     0.0600000    0.5100000   3.869820e-04  3.188634e-07
    383    384   2   0.50000     0.0600000    0.0600000   3.930919e-05  8.704828e-09
    383    385   2   0.50000     0.0600000    0.0600000   3.930919e-05  8.704828e-09
    354    357   2   0.50000    -0.1200000   -0.4300000   1.095425e-03  1.218041e-06
    354    386   2   0.50000    -0.1200000   -0.3300000   1.026091e-03  1.187829e-06
    384    357   2   0.50000     0.0600000   -0.4300000   1.726228e-04  6.344822e-08
    384    386   2   0.50000     0.0600000   -0.3300000   1.616969e-04  6.187447e-08
    385    357   2   0.50000     0.0600000   -0.4300000   1.726228e-04  6.344822e-08
    385    386   2   0.50000     0.0600000   -0.3300000   1.616969e-04  6.187447e-08
    355    387   2   0.50000    -0.1200000    0.1900000   1.015252e-03  1.866303e-06
    357    387   2   0.50000    -0.4300000    0.1900000   1.095425e-03  1.218041e-06
    356    388   2   0.50000     0.5100000   -0.1200000   1.575021e-03  3.561100e-06
    356    406   2   0.50000     0.5100000    0.0300000   2.482000e-04  1.854991e-07
    356    407   2   0.50000     0.5100000    0.0300000   2.482000e-04  1.854991e-07
    386    389   2   0.50000    -0.3300000   -0.1200000   1.026091e-03  1.187829e-06
    386    408   2   0.50000    -0.3300000    0.0600000   2.521103e-04  1.063590e-07
    386    409   2   0.50000    -0.3300000    0.0600000   2.521103e-04  1.063590e-07
    406    389   2   0.50000     0.0300000   -0.1200000   1.599888e-04  9.721644e-08
    406    408   2   0.50000     0.0300000    0.0600000   3.930919e-05  8.704828e-09
    406    409   2   0.50000     0.0300000    0.0600000   3.930919e-05  8.704828e-09
    407    389   2   0.50000     0.0300000   -0.1200000   1.599888e-04  9.721644e-08
    407    408   2   0.50000     0.0300000    0.0600000   3.930919e-05  8.704828e-09
    407    409   2   0.50000     0.0300000    0.0600000   3.930919e-05  8.704828e-09
    387    390   2   0.50000     0.1900000   -0.1200000   1.015252e-03  1.866303e-06
    387    410   2   0.50000     0.1900000    0.0600000   2.494471e-04  1.671101e-07
    387    411   2   0.50000     0.1900000    0.0600000   2.494471e-04  1.671101e-07
    408    390   2   0.50000     0.0600000   -0.1200000   2.494471e-04  1.671101e-07
    408    410   2   0.50000     0.0600000    0.0600000   6.128906e-05  1.496315e-08
    408    411   2   0.50000     0.0600000    0.0600000   6.128906e-05  1.496315e-08
    409    390   2   0.50000     0.0600000   -0.1200000   2.494471e-04  1.671101e-07
    409    410   2   0.50000     0.0600000    0.0600000   6.128906e-05  1.496315e-08
    409    411   2   0.50000     0.0600000    0.0600000   6.128906e-05  1.496315e-08
    388    391   2   0.50000    -0.1200000   -0.1200000   1.015252e-03  1.866303e-06
    388    412   2   0.50000    -0.1200000    0.0600000   2.494471e-04  1.671101e-07
    388    413   2   0.50000    -0.1200000    0.0600000   2.494471e-04  1.671101e-07
    410    391   2   0.50000     0.0600000   -0.1200000   2.494471e-04  1.671101e-07
    410    412   2   0.50000     0.0600000    0.0600000   6.128906e-05  1.496315e-08
    410    413   2   0.50000     0.0600000    0.0600000   6.128906e-05  1.496315e-08
    411    391   2   0.50000     0.0600000   -0.1200000   2.494471e-04  1.671101e-07
    411    412   2   0.50000     0.0600000    0.0600000   6.128906e-05  1.496315e-08
    411    413   2   0.50000     0.0600000    0.0600000   6.128906e-05  1.496315e-08
    389    392   2   0.50000    -0.1200000   -0.1200000   1.015252e-03  1.866303e-06
    389    414   2   0.50000    -0.1200000    0.0600000   2.494471e-04  1.671101e-07
    389    415   2   0.50000    -0.1200000    0.0600000   2.494471e-04  1.671101e-07
    412    392   2   0.50000     0.0600000   -0.1200000   2.494471e-04  1.671101e-07
    412    414   2   0.50000     0.0600000    0.0600000   6.128906e-05  1.496315e-08
    412    415   2   0.50000     0.0600000    0.0600000   6.128906e-05  1.496315e-08
    413    392   2   0.50000     0.0600000   -0.1200000   2.494471e-04  1.671101e-07
    413    414   2   0.50000     0.0600000    0.0600000   6.128906e-05  1.496315e-08
    413    415   2   0.50000     0.0600000    0.0600000   6.128906e-05  1.496315e-08
    390    393   2   0.50000    -0.1200000   -0.1200000   1.015252e-03  1.866303e-06
    390    416   2   0.50000    -0.1200000    0.0600000   2.494471e-04  1.671101e-07
    390    417   2   0.50000    -0.1200000    0.0600000   2.494471e-04  1.671101e-07
    414    393   2   0.50000     0.0600000   -0.1200000   2.494471e-04  1.671101e-07
    414    416   2   0.50000     0.0600000    0.0600000   6.128906e-05  1.496315e-08
    414    417   2   0.50000     0.0600000    0.0600000   6.128906e-05  1.496315e-08
    415    393   2   0.50000     0.0600000   -0.1200000   2.494471e-04  1.671101e-07
    415    416   2   0.50000     0.0600000    0.0600000   6.128906e-05  1.496315e-08
    415    417   2   0.50000     0.0600000    0.0600000   6.128906e-05  1.496315e-08
    391    394   2   0.50000    -0.1200000   -0.1200000   1.015252e-03  1.866303e-06
    391    418   2   0.50000    -0.1200000    0.0600000   2.494471e-04  1.671101e-07
    391    419   2   0.50000    -0.1200000    0.0600000   2.494471e-04  1.671101e-07
    416    394   2   0.50000     0.0600000   -0.1200000   2.494471e-04  1.671101e-07
    416    418   2   0.50000     0.0600000    0.0600000   6.128906e-05  1.496315e-08
    416    419   2   0.50000     0.0600000    0.0600000   6.128906e-05  1.496315e-08
    417    394   2   0.50000     0.0600000   -0.1200000   2.494471e-04  1.671101e-07
    417    418   2   0.50000     0.0600000    0.0600000   6.128906e-05  1.496315e-08
    417    419   2   0.50000     0.0600000    0.0600000   6.128906e-05  1.496315e-08
    392    395   2   0.50000    -0.1200000   -0.1200000   1.015252e-03  1.866303e-06
    392    420   2   0.50000    -0.1200000    0.0600000   2.494471e-04  1.671101e-07
    392    421   2   0.50000    -0.1200000    0.0600000   2.494471e-04  1.671101e-07
    418    395   2   0.50000     0.0600000   -0.1200000   2.494471e-04  1.671101e-07
    418    420   2   0.50000     0.0600000    0.0600000   6.128906e-05  1.496315e-08
    418    421   2   0.50000     0.0600000    0.0600000   6.128906e-05  1.496315e-08
    419    395   2   0.50000     0.0600000   -0.1200000   2.494471e-04  1.671101e-07
    419    420   2   0.50000     0.0600000    0.0600000   6.128906e-05  1.496315e-08
    419    421   2   0.50000     0.0600000    0.0600000   6.128906e-05  1.496315e-08
    393    396   2   0.50000    -0.1200000    0.1900000   1.015252e-03  1.866303e-06
    393    422   2   0.50000    -0.1200000    0.0600000   2.494471e-04  1.671101e-07
    393    423   2   0.50000    -0.1200000    0.0600000   2.494471e-04  1.671101e-07
    420    396   2   0.50000     0.0600000    0.1900000   2.494471e-04  1.671101e-07
    420    422   2   0.50000     0.0600000    0.0600000   6.128906e-05  1.496315e-08
    420    423   2   0.50000     0.0600000    0.0600000   6.128906e-05  1.496315e-08
    421    396   2   0.50000     0.0600000    0.1900000   2.494471e-04  1.671101e-07
    421    422   2   0.50000     0.0600000    0.0600000   6.128906e-05  1.496315e-08
    421    423   2   0.50000     0.0600000    0.0600000   6.128906e-05  1.496315e-08
    394    397   2   0.50000    -0.1200000   -0.3300000   1.026091e-03  1.187829e-06
    394    424   2   0.50000    -0.1200000    0.0300000   1.599888e-04  9.721644e-08
    394    425   2   0.50000    -0.1200000    0.0300000   1.599888e-04  9.721644e-08
    422    397   2   0.50000     0.0600000   -0.3300000   2.521103e-04  1.063590e-07
    422    424   2   0.50000     0.0600000    0.0300000   3.930919e-05  8.704828e-09
    422    425   2   0.50000     0.0600000    0.0300000   3.930919e-05  8.704828e-09
    423    397   2   0.50000     0.0600000   -0.3300000   2.521103e-04  1.063590e-07
    423    424   2   0.50000     0.0600000    0.0300000   3.930919e-05  8.704828e-09
    423    425   2   0.50000     0.0600000    0.0300000   3.930919e-05  8.704828e-09
    395    398   2   0.50000    -0.1200000    0.5100000   1.575021e-03  3.561100e-06
    424    398   2   0.50000     0.0300000    0.5100000   2.482000e-04  1.854991e-07
    425    398   2   0.50000     0.0300000    0.5100000   2.482000e-04  1.854991e-07
    396    399   2   0.50000     0.1900000   -0.4300000   1.095425e-03  1.218041e-06
    396    400   2   0.50000     0.1900000   -0.1200000   1.015252e-03  1.866303e-06
    397    401   2   0.50000    -0.3300000   -0.1200000   1.026091e-03  1.187829e-06
    397    426   2   0.50000    -0.3300000    0.0600000   1.616969e-04  6.187447e-08
    397    427   2   0.50000    -0.3300000    0.0600000   1.616969e-04  6.187447e-08
    399    401   2   0.50000    -0.4300000   -0.1200000   1.095425e-03  1.218041e-06
    399    426   2   0.50000    -0.4300000    0.0600000   1.726228e-04  6.344822e-08
    399    427   2   0.50000    -0.4300000    0.0600000   1.726228e-04  6.344822e-08
    398    402   2   0.50000     0.5100000   -0.1200000   1.575021e-03  3.561100e-06
    398    428   2   0.50000     0.5100000    0.0600000   3.869820e-04  3.188634e-07
    398    429   2   0.50000     0.5100000    0.0600000   3.869820e-04  3.188634e-07
    426    402   2   0.50000     0.0600000   -0.1200000   1.599888e-04  9.721644e-08
    426    428   2   0.50000     0.0600000    0.0600000   3.930919e-05  8.704828e-09
    426    429   2   0.50000     0.0600000    0.0600000   3.930919e-05  8.704828e-09
    427    402   2   0.50000     0.0600000   -0.1200000   1.599888e-04  9.721644e-08
    427    428   2   0.50000     0.0600000    0.0600000   3.930919e-05  8.704828e-09
    427    429   2   0.50000     0.0600000    0.0600000   3.930919e-05  8.704828e-09
    400    403   2   0.50000    -0.1200000   -0.1200000   1.015252e-03  1.866303e-06
    400    430   2   0.50000    -0.1200000    0.0600000   2.494471e-04  1.671101e-07
    400    431   2   0.50000    -0.1200000    0.0600000   2.494471e-04  1.671101e-07
    428    403   2   0.50000     0.0600000   -0.1200000   2.494471e-04  1.671101e-07
    428    430   2   0.50000     0.0600000    0.0600000   6.128906e-05  1.496315e-08
    428    431   2   0.50000     0.0600000    0.0600000   6.128906e-05  1.496315e-08
    429    403   2   0.50000     0.0600000   -0.1200000   2.494471e-04  1.671101e-07
    429    430   2   0.50000     0.0600000    0.0600000   6.128906e-05  1.496315e-08
    429    431   2   0.50000     0.0600000    0.0600000   6.128906e-05  1.496315e-08
    401    404   2   0.50000    -0.1200000    0.5100000   1.575021e-03  3.561100e-06
    401    432   2   0.50000    -0.1200000    0.0600000   1.599888e-04  9.721644e-08
    401    433   2   0.50000    -0.1200000    0.0600000   1.599888e-04  9.721644e-08
    430    404   2   0.50000     0.0600000    0.5100000   3.869820e-04  3.188634e-07
    430    432   2   0.50000     0.0600000    0.0600000   3.930919e-05  8.704828e-09
    430    433   2   0.50000     0.0600000    0.0600000   3.930919e-05  8.704828e-09
    431    404   2   0.50000     0.0600000    0.5100000   3.869820e-04  3.188634e-07
    431    432   2   0.50000     0.0600000    0.0600000   3.930919e-05  8.704828e-09
    431    433   2   0.50000     0.0600000    0.0600000   3.930919e-05  8.704828e-09
    402    405   2   0.50000    -0.1200000   -0.4300000   1.095425e-03  1.218041e-06
    402    434   2   0.50000    -0.1200000   -0.3300000   1.026091e-03  1.187829e-06
    432    405   2   0.50000     0.0600000   -0.4300000   1.726228e-04  6.344822e-08
    432    434   2   0.50000     0.0600000   -0.3300000   1.616969e-04  6.187447e-08
    433    405   2   0.50000     0.0600000   -0.4300000   1.726228e-04  6.344822e-08
    433    434   2   0.50000     0.0600000   -0.3300000   1.616969e-04  6.187447e-08
    403    435   2   0.50000    -0.1200000    0.1900000   1.015252e-03  1.866303e-06
    405    435   2   0.50000    -0.4300000    0.1900000   1.095425e-03  1.218041e-06
    404    436   2   0.50000     0.5100000   -0.1200000   1.575021e-03  3.561100e-06
    404    454   2   0.50000     0.5100000    0.0300000   2.482000e-04  1.854991e-07
    404    455   2   0.50000     0.5100000    0.0300000   2.482000e-04  1.854991e-07
    434    437   2   0.50000    -0.3300000   -0.1200000   1.026091e-03  1.187829e-06
    434    456   2   0.50000    -0.3300000    0.0600000   2.521103e-04  1.063590e-07
    434    457   2   0.50000    -0.3300000    0.0600000   2.521103e-04  1.063590e-07
    454    437   2   0.50000     0.0300000   -0.1200000   1.599888e-04  9.721644e-08
    454    456   2   0.50000     0.0300000    0.0600000   3.930919e-05  8.704828e-09
    454    457   2   0.50000     0.0300000    0.0600000   3.930919e-05  8.704828e-09
    455    437   2   0.50000     0.0300000   -0.1200000   1.599888e-04  9.721644e-08
    455    456   2   0.50000     0.0300000    0.0600000   3.930919e-05  8.704828e-09
    455    457   2   0.50000     0.0300000    0.0600000   3.930919e-05  8.704828e-09
    435    438   2   0.50000     0.1900000   -0.1200000   1.015252e-03  1.866303e-06
    435    458   2   0.50000     0.1900000    0.0600000   2.494471e-04  1.671101e-07
    435    459   2   0.50000     0.1900000    0.0600000   2.494471e-04  1.671101e-07
    456    438   2   0.50000     0.0600000   -0.1200000   2.494471e-04  1.671101e-07
    456    458   2   0.50000     0.0600000    0.0600000   6.128906e-05  1.496315e-08
    456    459   2   0.50000     0.0600000    0.0600000   6.128906e-05  1.496315e-08
    457    438   2   0.50000     0.0600000   -0.1200000   2.494471e-04  1.671101e-07
    457    458   2   0.50000     0.0600000    0.0600000   6.128906e-05  1.496315e-08
    457    459   2   0.50000     0.0600000    0.0600000   6.128906e-05  1.496315e-08
    436    439   2   0.50000    -0.1200000   -0.1200000   1.015252e-03  1.866303e-06
    436    460   2   0.50000    -0.1200000    0.0600000   2.494471e-04  1.671101e-07
    436    461   2   0.50000    -0.1200000    0.0600000   2.494471e-04  1.671101e-07
    458    439   2   0.50000     0.0600000   -0.1200000   2.494471e-04  1.671101e-07
    458    460   2   0.50000     0.0600000    0.0600000   6.128906e-05  1.496315e-08
    458    461   2   0.50000     0.0600000    0.0600000   6.128906e-05  1.496315e-08
    459    439   2   0.50000     0.0600000   -0.1200000   2.494471e-04  1.671101e-07
    459    460   2   0.50000     0.0600000    0.0600000   6.128906e-05  1.496315e-08
    459    461   2   0.50000     0.0600000    0.0600000   6.128906e-05  1.496315e-08
    437    440   2   0.50000    -0.1200000   -0.1200000   1.015252e-03  1.866303e-06
    437    462   2   0.50000    -0.1200000    0.0600000   2.494471e-04  1.671101e-07
    437    463   2   0.50000    -0.1200000    0.0600000   2.494471e-04  1.671101e-07
    460    440   2   0.50000     0.0600000   -0.1200000   2.494471e-04  1.671101e-07
    460    462   2   0.50000     0.0600000    0.0600000   6.128906e-05  1.496315e-08
    460    463   2   0.50000     0.0600000    0.0600000   6.128906e-05  1.496315e-08
    461    440   2   0.50000     0.0600000   -0.1200000   2.494471e-04  1.671101e-07
    461    462   2   0.50000     0.0600000    0.0600000   6.128906e-05  1.496315e-08
    461    463   2   0.50000     0.0600000    0.0600000   6.128906e-05  1.496315e-08
    438    441   2   0.50000    -0.1200000   -0.1200000   1.015252e-03  1.866303e-06
    438    464   2   0.50000    -0.1200000    0.0600000   2.494471e-04  1.671101e-07
    438    465   2   0.50000    -0.1200000    0.0600000   2.494471e-04  1.671101e-07
    462    441   2   0.50000     0.0600000   -0.1200000   2.494471e-04  1.671101e-07
    462    464   2   0.50000     0.0600000    0.0600000   6.128906e-05  1.496315e-08
    462    465   2   0.50000     0.0600000    0.0600000   6.128906e-05  1.496315e-08
    463    441   2   0.50000     0.0600000   -0.1200000   2.494471e-04  1.671101e-07
    463    464   2   0.50000     0.0600000    0.0600000   6.128906e-05  1.496315e-08
    463    465   2   0.50000     0.0600000    0.0600000   6.128906e-05  1.496315e-08
    439    442   2   0.50000    -0.1200000   -0.1200000   1.015252e-03  1.866303e-06
    439    466   2   0.50000    -0.1200000    0.0600000   2.494471e-04  1.671101e-07
    439    467   2   0.50000    -0.1200000    0.0600000   2.494471e-04  1.671101e-07
    464    442   2   0.50000     0.0600000   -0.1200000   2.494471e-04  1.671101e-07
    464    466   2   0.50000     0.0600000    0.0600000   6.128906e-05  1.496315e-08
    464    467   2   0.50000     0.0600000    0.0600000   6.128906e-05  1.496315e-08
    465    442   2   0.50000     0.0600000   -0.1200000   2.494471e-04  1.671101e-07
    465    466   2   0.50000     0.0600000    0.0600000   6.128906e-05  1.496315e-08
    465    467   2   0.50000     0.0600000    0.0600000   6.128906e-05  1.496315e-08
    440    443   2   0.50000    -0.1200000   -0.1200000   1.015252e-03  1.866303e-06
    440    468   2   0.50000    -0.1200000    0.0600000   2.494471e-04  1.671101e-07
    440    469   2   0.50000    -0.1200000    0.0600000   2.494471e-04  1.671101e-07
    466    443   2   0.50000     0.0600000   -0.1200000   2.494471e-04  1.671101e-07
    466    468   2   0.50000     0.0600000    0.0600000   6.128906e-05  1.496315e-08
    466    469   2   0.50000     0.0600000    0.0600000   6.128906e-05  1.496315e-08
    467    443   2   0.50000     0.0600000   -0.1200000   2.494471e-04  1.671101e-07
    467    468   2   0.50000     0.0600000    0.0600000   6.128906e-05  1.496315e-08
    467    469   2   0.50000     0.0600000    0.0600000   6.128906e-05  1.496315e-08
    441    444   2   0.50000    -0.1200000    0.1900000   1.015252e-03  1.866303e-06
    441    470   2   0.50000    -0.1200000    0.0600000   2.494471e-04  1.671101e-07
    441    471   2   0.50000    -0.1200000    0.0600000   2.494471e-04  1.671101e-07
    468    444   2   0.50000     0.0600000    0.1900000   2.494471e-04  1.671101e-07
    468    470   2   0.50000     0.0600000    0.0600000   6.128906e-05  1.496315e-08
    468    471   2   0.50000     0.0600000    0.0600000   6.128906e-05  1.496315e-08
    469    444   2   0.50000     0.0600000    0.1900000   2.494471e-04  1.671101e-07
    469    470   2   0.50000     0.0600000    0.0600000   6.128906e-05  1.496315e-08
    469    471   2   0.50000     0.0600000    0.0600000   6.128906e-05  1.496315e-08
    442    445   2   0.50000    -0.1200000   -0.3300000   1.026091e-03  1.187829e-06
    442    472   2   0.50000    -0.1200000    0.0300000   1.599888e-04  9.721644e-08
    442    473   2   0.50000    -0.1200000    0.0300000   1.599888e-04  9.721644e-08
    470    445   2   0.50000     0.0600000   -0.3300000   2.521103e-04  1.063590e-07
    470    472   2   0.50000     0.0600000    0.0300000   3.930919e-05  8.704828e-09
    470    473   2   0.50000     0.0600000    0.0300000   3.930919e-05  8.704828e-09
    471    445   2   0.50000     0.0600000   -0.3300000   2.521103e-04  1.063590e-07
    471    472   2   0.50000     0.0600000    0.0300000   3.930919e-05  8.704828e-09
    471    473   2   0.50000     0.0600000    0.0300000   3.930919e-05  8.704828e-09
    443    446   2   0.50000    -0.1200000    0.5100000   1.575021e-03  3.561100e-06
    472    446   2   0.50000     0.0300000    0.5100000   2.482000e-04  1.854991e-07
    473    446   2   0.50000     0.0300000    0.5100000   2.482000e-04  1.854991e-07
    444    447   2   0.50000     0.1900000   -0.4300000   1.095425e-03  1.218041e-06
    444    448   2   0.50000     0.1900000   -0.1200000   1.015252e-03  1.866303e-06
    445    449   2   0.50000    -0.3300000   -0.1200000   1.026091e-03  1.187829e-06
    445    474   2   0.50000    -0.3300000    0.0600000   1.616969e-04  6.187447e-08
    445    475   2   0.50000    -0.3300000    0.0600000   1.616969e-04  6.187447e-08
    447    449   2   0.50000    -0.4300000   -0.1200000   1.095425e-03  1.218041e-06
    447    474   2   0.50000    -0.4300000    0.0600000   1.726228e-04  6.344822e-08
    447    475   2   0.50000    -0.4300000    0.0600000   1.726228e-04  6.344822e-08
    446    450   2   0.50000     0.5100000   -0.1200000   1.575021e-03  3.561100e-06
    446    476   2   0.50000     0.5100000    0.0600000   3.869820e-04  3.188634e-07
    446    477   2   0.50000     0.5100000    0.0600000   3.869820e-04  3.188634e-07
    474    450   2   0.50000     0.0600000   -0.1200000   1.599888e-04  9.721644e-08
    474    476   2   0.50000     0.0600000    0.0600000   3.930919e-05  8.704828e-09
    474    477   2   0.50000     0.0600000    0.0600000   3.930919e-05  8.704828e-09
    475    450   2   0.50000     0.0600000   -0.1200000   1.599888e-04  9.721644e-08
    475    476   2   0.50000     0.0600000    0.0600000   3.930919e-05  8.704828e-09
    475    477   2   0.50000     0.0600000    0.0600000   3.930919e-05  8.704828e-09
    448    451   2   0.50000    -0.1200000   -0.1200000   1.015252e-03  1.866303e-06
    448    478   2   0.50000    -0.1200000    0.0600000   2.494471e-04  1.671101e-07
    448    479   2   0.50000    -0.1200000    0.0600000   2.494471e-04  1.671101e-07
    476    451   2   0.50000     0.0600000   -0.1200000   2.494471e-04  1.671101e-07
    476    478   2   0.50000     0.0600000    0.0600000   6.128906e-05  1.496315e-08
    476    479   2   0.50000     0.0600000    0.0600000   6.128906e-05  1.496315e-08
    477    451   2   0.50000     0.0600000   -0.1200000   2.494471e-04  1.671101e-07
    477    478   2   0.50000     0.0600000    0.0600000   6.128906e-05  1.496315e-08
    477    479   2   0.50000     0.0600000    0.0600000   6.128906e-05  1.496315e-08
    449    452   2   0.50000    -0.1200000    0.5100000   1.575021e-03  3.561100e-06
    449    480   2   0.50000    -0.1200000    0.0600000   1.599888e-04  9.721644e-08
    449    481   2   0.50000    -0.1200000    0.0600000   1.599888e-04  9.721644e-08
    478    452   2   0.50000     0.0600000    0.5100000   3.869820e-04  3.188634e-07
    478    480   2   0.50000     0.0600000    0.0600000   3.930919e-05  8.704828e-09
    478    481   2   0.50000     0.0600000    0.0600000   3.930919e-05  8.704828e-09
    479    452   2   0.50000     0.0600000    0.5100000   3.869820e-04  3.188634e-07
    479    480   2   0.50000     0.0600000    0.0600000   3.930919e-05  8.704828e-09
    479    481   2   0.50000     0.0600000    0.0600000   3.930919e-05  8.704828e-09
    450    453   2   0.50000    -0.1200000   -0.4300000   1.095425e-03  1.218041e-06
    450    482   2   0.50000    -0.1200000   -0.3300000   1.026091e-03  1.187829e-06
    480    453   2   0.50000     0.0600000   -0.4300000   1.726228e-04  6.344822e-08
    480    482   2   0.50000     0.0600000   -0.3300000   1.616969e-04  6.187447e-08
    481    453   2   0.50000     0.0600000   -0.4300000   1.726228e-04  6.344822e-08
    481    482   2   0.50000     0.0600000   -0.3300000   1.616969e-04  6.187447e-08
    451    483   2   0.50000    -0.1200000    0.1900000   1.015252e-03  1.866303e-06
    453    483   2   0.50000    -0.4300000    0.1900000   1.095425e-03  1.218041e-06
    452    484   2   0.50000     0.5100000   -0.1200000   1.575021e-03  3.561100e-06
    452    502   2   0.50000     0.5100000    0.0300000   2.482000e-04  1.854991e-07
    452    503   2   0.50000     0.5100000    0.0300000   2.482000e-04  1.854991e-07
    482    485   2   0.50000    -0.3300000   -0.1200000   1.026091e-03  1.187829e-06
    482    504   2   0.50000    -0.3300000    0.0600000   2.521103e-04  1.063590e-07
    482    505   2   0.50000    -0.3300000    0.0600000   2.521103e-04  1.063590e-07
    502    485   2   0.50000     0.0300000   -0.1200000   1.599888e-04  9.721644e-08
    502    504   2   0.50000     0.0300000    0.0600000   3.930919e-05  8.704828e-09
    502    505   2   0.50000     0.0300000    0.0600000   3.930919e-05  8.704828e-09
    503    485   2   0.50000     0.0300000   -0.1200000   1.599888e-04  9.721644e-08
    503    504   2   0.50000     0.0300000    0.0600000   3.930919e-05  8.704828e-09
    503    505   2   0.50000     0.0300000    0.0600000   3.930919e-05  8.704828e-09
    483    486   2   0.50000     0.1900000   -0.1200000   1.015252e-03  1.866303e-06
    483    506   2   0.50000     0.1900000    0.0600000   2.494471e-04  1.671101e-07
    483    507   2   0.50000     0.1900000    0.0600000   2.494471e-04  1.671101e-07
    504    486   2   0.50000     0.0600000   -0.1200000   2.494471e-04  1.671101e-07
    504    506   2   0.50000     0.0600000    0.0600000   6.128906e-05  1.496315e-08
    504    507   2   0.50000     0.0600000    0.0600000   6.128906e-05  1.496315e-08
    505    486   2   0.50000     0.0600000   -0.1200000   2.494471e-04  1.671101e-07
    505    506   2   0.50000     0.0600000    0.0600000   6.128906e-05  1.496315e-08
    505    507   2   0.50000     0.0600000    0.0600000   6.128906e-05  1.496315e-08
    484    487   2   0.50000    -0.1200000   -0.1200000   1.015252e-03  1.866303e-06
    484    508   2   0.50000    -0.1200000    0.0600000   2.494471e-04  1.671101e-07
    484    509   2   0.50000    -0.1200000    0.0600000   2.494471e-04  1.671101e-07
    506    487   2   0.50000     0.0600000   -0.1200000   2.494471e-04  1.671101e-07
    506    508   2   0.50000     0.0600000    0.0600000   6.128906e-05  1.496315e-08
    506    509   2   0.50000     0.0600000    0.0600000   6.128906e-05  1.496315e-08
    507    487   2   0.50000     0.0600000   -0.1200000   2.494471e-04  1.671101e-07
    507    508   2   0.50000     0.0600000    0.0600000   6.128906e-05  1.496315e-08
    507    509   2   0.50000     0.0600000    0.0600000   6.128906e-05  1.496315e-08
    485    488   2   0.50000    -0.1200000   -0.1200000   1.015252e-03  1.866303e-06
    485    510   2   0.50000    -0.1200000    0.0600000   2.494471e-04  1.671101e-07
    485    511   2   0.50000    -0.1200000    0.0600000   2.494471e-04  1.671101e-07
    508    488   2   0.50000     0.0600000   -0.1200000   2.494471e-04  1.671101e-07
    508    510   2   0.50000     0.0600000    0.0600000   6.128906e-05  1.496315e-08
    508    511   2   0.50000     0.0600000    0.0600000   6.128906e-05  1.496315e-08
    509    488   2   0.50000     0.0600000   -0.1200000   2.494471e-04  1.671101e-07
    509    510   2   0.50000     0.0600000    0.0600000   6.128906e-05  1.496315e-08
    509    511   2   0.50000     0.0600000    0.0600000   6.128906e-05  1.496315e-08
    486    489   2   0.50000    -0.1200000   -0.1200000   1.015252e-03  1.866303e-06
    486    512   2   0.50000    -0.1200000    0.0600000   2.494471e-04  1.671101e-07
    486    513   2   0.50000    -0.1200000    0.0600000   2.494471e-04  1.671101e-07
    510    489   2   0.50000     0.0600000   -0.1200000   2.494471e-04  1.671101e-07
    510    512   2   0.50000     0.0600000    0.0600000   6.128906e-05  1.496315e-08
    510    513   2   0.50000     0.0600000    0.0600000   6.128906e-05  1.496315e-08
    511    489   2   0.50000     0.0600000   -0.1200000   2.494471e-04  1.671101e-07
    511    512   2   0.50000     0.0600000    0.0600000   6.128906e-05  1.496315e-08
    511    513   2   0.50000     0.0600000    0.0600000   6.128906e-05  1.496315e-08
    487    490   2   0.50000    -0.1200000   -0.1200000   1.015252e-03  1.866303e-06
    487    514   2   0.50000    -0.1200000    0.0600000   2.494471e-04  1.671101e-07
    487    515   2   0.50000    -0.1200000    0.0600000   2.494471e-04  1.671101e-07
    512    490   2   0.50000     0.0600000   -0.1200000   2.494471e-04  1.671101e-07
    512    514   2   0.50000     0.0600000    0.0600000   6.128906e-05  1.496315e-08
    512    515   2   0.50000     0.0600000    0.0600000   6.128906e-05  1.496315e-08
    513    490   2   0.50000     0.0600000   -0.1200000   2.494471e-04  1.671101e-07
    513    514   2   0.50000     0.0600000    0.0600000   6.128906e-05  1.496315e-08
    513    515   2   0.50000     0.0600000    0.0600000   6.128906e-05  1.496315e-08
    488    491   2   0.50000    -0.1200000   -0.1200000   1.015252e-03  1.866303e-06
    488    516   2   0.50000    -0.1200000    0.0600000   2.494471e-04  1.671101e-07
    488    517   2   0.50000    -0.1200000    0.0600000   2.494471e-04  1.671101e-07
    514    491   2   0.50000     0.0600000   -0.1200000   2.494471e-04  1.671101e-07
    514    516   2   0.50000     0.0600000    0.0600000   6.128906e-05  1.496315e-08
    514    517   2   0.50000     0.0600000    0.0600000   6.128906e-05  1.496315e-08
    515    491   2   0.50000     0.0600000   -0.1200000   2.494471e-04  1.671101e-07
    515    516   2   0.50000     0.0600000    0.0600000   6.128906e-05  1.496315e-08
    515    517   2   0.50000     0.0600000    0.0600000   6.128906e-05  1.496315e-08
    489    492   2   0.50000    -0.1200000    0.1900000   1.015252e-03  1.866303e-06
    489    518   2   0.50000    -0.1200000    0.0600000   2.494471e-04  1.671101e-07
    489    519   2   0.50000    -0.1200000    0.0600000   2.494471e-04  1.671101e-07
    516    492   2   0.50000     0.0600000    0.1900000   2.494471e-04  1.671101e-07
    516    518   2   0.50000     0.0600000    0.0600000   6.128906e-05  1.496315e-08
    516    519   2   0.50000     0.0600000    0.0600000   6.128906e-05  1.496315e-08
    517    492   2   0.50000     0.0600000    0.1900000   2.494471e-04  1.671101e-07
    517    518   2   0.50000     0.0600000    0.0600000   6.128906e-05  1.496315e-08
    517    519   2   0.50000     0.0600000    0.0600000   6.128906e-05  1.496315e-08
    490    493   2   0.50000    -0.1200000   -0.3300000   1.026091e-03  1.187829e-06
    490    520   2   0.50000    -0.1200000    0.0300000   1.599888e-04  9.721644e-08
    490    521   2   0.50000    -0.1200000    0.0300000   1.599888e-04  9.721644e-08
    518    493   2   0.50000     0.0600000   -0.3300000   2.521103e-04  1.063590e-07
    518    520   2   0.50000     0.0600000    0.0300000   3.930919e-05  8.704828e-09
    518    521   2   0.50000     0.0600000    0.0300000   3.930919e-05  8.704828e-09
    519    493   2   0.50000     0.0600000   -0.3300000   2.521103e-04  1.063590e-07
    519    520   2   0.50000     0.0600000    0.0300000   3.930919e-05  8.704828e-09
    519    521   2   0.50000     0.0600000    0.0300000   3.930919e-05  8.704828e-09
    491    494   2   0.50000    -0.1200000    0.5100000   1.575021e-03  3.561100e-06
    520    494   2   0.50000     0.0300000    0.5100000   2.482000e-04  1.854991e-07
    521    494   2   0.50000     0.0300000    0.5100000   2.482000e-04  1.854991e-07
    492    495   2   0.50000     0.1900000   -0.4300000   1.095425e-03  1.218041e-06
    492    496   2   0.50000     0.1900000   -0.1200000   1.015252e-03  1.866303e-06
    493    497   2   0.50000    -0.3300000   -0.1200000   1.026091e-03  1.187829e-06
    493    522   2   0.50000    -0.3300000    0.0600000   1.616969e-04  6.187447e-08
    493    523   2   0.50000    -0.3300000    0.0600000   1.616969e-04  6.187447e-08
    495    497   2   0.50000    -0.4300000   -0.1200000   1.095425e-03  1.218041e-06
    495    522   2   0.50000    -0.4300000    0.0600000   1.726228e-04  6.344822e-08
    495    523   2   0.50000    -0.4300000    0.0600000   1.726228e-04  6.344822e-08
    494    498   2   0.50000     0.5100000   -0.1200000   1.575021e-03  3.561100e-06
    494    524   2   0.50000     0.5100000    0.0600000   3.869820e-04  3.188634e-07
    494    525   2   0.50000     0.5100000    0.0600000   3.869820e-04  3.188634e-07
    522    498   2   0.50000     0.0600000   -0.1200000   1.599888e-04  9.721644e-08
    522    524   2   0.50000     0.0600000    0.0600000   3.930919e-05  8.704828e-09
    522    525   2   0.50000     0.0600000    0.0600000   3.930919e-05  8.704828e-09
    523    498   2   0.50000     0.0600000   -0.1200000   1.599888e-04  9.721644e-08
    523    524   2   0.50000     0.0600000    0.0600000   3.930919e-05  8.704828e-09
    523    525   2   0.50000     0.0600000    0.0600000   3.930919e-05  8.704828e-09
    496    499   2   0.50000    -0.1200000   -0.1200000   1.015252e-03  1.866303e-06
    496    526   2   0.50000    -0.1200000    0.0600000   2.494471e-04  1.671101e-07
    496    527   2   0.50000    -0.1200000    0.0600000   2.494471e-04  1.671101e-07
    524    499   2   0.50000     0.0600000   -0.1200000   2.494471e-04  1.671101e-07
    524    526   2   0.50000     0.0600000    0.0600000   6.128906e-05  1.496315e-08
    524    527   2   0.50000     0.0600000    0.0600000   6.128906e-05  1.496315e-08
    525    499   2   0.50000     0.0600000   -0.1200000   2.494471e-04  1.671101e-07
    525    526   2   0.50000     0.0600000    0.0600000   6.128906e-05  1.496315e-08
    525    527   2   0.50000     0.0600000    0.0600000   6.128906e-05  1.496315e-08
    497    500   2   0.50000    -0.1200000    0.5100000   1.575021e-03  3.561100e-06
    497    528   2   0.50000    -0.1200000    0.0600000   1.599888e-04  9.721644e-08
    497    529   2   0.50000    -0.1200000    0.0600000   1.599888e-04  9.721644e-08
    526    500   2   0.50000     0.0600000    0.5100000   3.869820e-04  3.188634e-07
    526    528   2   0.50000     0.0600000    0.0600000   3.930919e-05  8.704828e-09
    526    529   2   0.50000     0.0600000    0.0600000   3.930919e-05  8.704828e-09
    527    500   2   0.50000     0.0600000    0.5100000   3.869820e-04  3.188634e-07
    527    528   2   0.50000     0.0600000    0.0600000   3.930919e-05  8.704828e-09
    527    529   2   0.50000     0.0600000    0.0600000   3.930919e-05  8.704828e-09
    498    501   2   0.50000    -0.1200000   -0.4300000   1.095425e-03  1.218041e-06
    498    530   2   0.50000    -0.1200000   -0.3300000   1.026091e-03  1.187829e-06
    528    501   2   0.50000     0.0600000   -0.4300000   1.726228e-04  6.344822e-08
    528    530   2   0.50000     0.0600000   -0.3300000   1.616969e-04  6.187447e-08
    529    501   2   0.50000     0.0600000   -0.4300000   1.726228e-04  6.344822e-08
    529    530   2   0.50000     0.0600000   -0.3300000   1.616969e-04  6.187447e-08
    499    531   2   0.50000    -0.1200000    0.1900000   1.015252e-03  1.866303e-06
    501    531   2   0.50000    -0.4300000    0.1900000   1.095425e-03  1.218041e-06
    500    532   2   0.50000     0.5100000   -0.1200000   1.575021e-03  3.561100e-06
    500    550   2   0.50000     0.5100000    0.0300000   2.482000e-04  1.854991e-07
    500    551   2   0.50000     0.5100000    0.0300000   2.482000e-04  1.854991e-07
    530    533   2   0.50000    -0.3300000   -0.1200000   1.026091e-03  1.187829e-06
    530    552   2   0.50000    -0.3300000    0.0600000   2.521103e-04  1.063590e-07
    530    553   2   0.50000    -0.3300000    0.0600000   2.521103e-04  1.063590e-07
    550    533   2   0.50000     0.0300000   -0.1200000   1.599888e-04  9.721644e-08
    550    552   2   0.50000     0.0300000    0.0600000   3.930919e-05  8.704828e-09
    550    553   2   0.50000     0.0300000    0.0600000   3.930919e-05  8.704828e-09
    551    533   2   0.50000     0.0300000   -0.1200000   1.599888e-04  9.721644e-08
    551    552   2   0.50000     0.0300000    0.0600000   3.930919e-05  8.704828e-09
    551    553   2   0.50000     0.0300000    0.0600000   3.930919e-05  8.704828e-09
    531    534   2   0.50000     0.1900000   -0.1200000   1.015252e-03  1.866303e-06
    531    554   2   0.50000     0.1900000    0.0600000   2.494471e-04  1.671101e-07
    531    555   2   0.50000     0.1900000    0.0600000   2.494471e-04  1.671101e-07
    552    534   2   0.50000     0.0600000   -0.1200000   2.494471e-04  1.671101e-07
    552    554   2   0.50000     0.0600000    0.0600000   6.128906e-05  1.496315e-08
    552    555   2   0.50000     0.0600000    0.0600000   6.128906e-05  1.496315e-08
    553    534   2   0.50000     0.0600000   -0.1200000   2.494471e-04  1.671101e-07
    553    554   2   0.50000     0.0600000    0.0600000   6.128906e-05  1.496315e-08
    553    555   2   0.50000     0.0600000    0.0600000   6.128906e-05  1.496315e-08
    532    535   2   0.50000    -0.1200000   -0.1200000   1.015252e-03  1.866303e-06
    532    556   2   0.50000    -0.1200000    0.0600000   2.494471e-04  1.671101e-07
    532    557   2   0.50000    -0.1200000    0.0600000   2.494471e-04  1.671101e-07
    554    535   2   0.50000     0.0600000   -0.1200000   2.494471e-04  1.671101e-07
    554    556   2   0.50000     0.0600000    0.0600000   6.128906e-05  1.496315e-08
    554    557   2   0.50000     0.0600000    0.0600000   6.128906e-05  1.496315e-08
    555    535   2   0.50000     0.0600000   -0.1200000   2.494471e-04  1.671101e-07
    555    556   2   0.50000     0.0600000    0.0600000   6.128906e-05  1.496315e-08
    555    557   2   0.50000     0.0600000    0.0600000   6.128906e-05  1.496315e-08
    533    536   2   0.50000    -0.1200000   -0.1200000   1.015252e-03  1.866303e-06
    533    558   2   0.50000    -0.1200000    0.0600000   2.494471e-04  1.671101e-07
    533    559   2   0.50000    -0.1200000    0.0600000   2.494471e-04  1.671101e-07
    556    536   2   0.50000     0.0600000   -0.1200000   2.494471e-04  1.671101e-07
    556    558   2   0.50000     0.0600000    0.0600000   6.128906e-05  1.496315e-08
    556    559   2   0.50000     0.0600000    0.0600000   6.128906e-05  1.496315e-08
    557    536   2   0.50000     0.0600000   -0.1200000   2.494471e-04  1.671101e-07
    557    558   2   0.50000     0.0600000    0.0600000   6.128906e-05  1.496315e-08
    557    559   2   0.50000     0.0600000    0.0600000   6.128906e-05  1.496315e-08
    534    537   2   0.50000    -0.1200000   -0.1200000   1.015252e-03  1.866303e-06
    534    560   2   0.50000    -0.1200000    0.0600000   2.494471e-04  1.671101e-07
    534    561   2   0.50000    -0.1200000    0.0600000   2.494471e-04  1.671101e-07
    558    537   2   0.50000     0.0600000   -0.1200000   2.494471e-04  1.671101e-07
    558    560   2   0.50000     0.0600000    0.0600000   6.128906e-05  1.496315e-08
    558    561   2   0.50000     0.0600000    0.0600000   6.128906e-05  1.496315e-08
    559    537   2   0.50000     0.0600000   -0.1200000   2.494471e-04  1.671101e-07
    559    560   2   0.50000     0.0600000    0.0600000   6.128906e-05  1.496315e-08
    559    561   2   0.50000     0.0600000    0.0600000   6.128906e-05  1.496315e-08
    535    538   2   0.50000    -0.1200000   -0.1200000   1.015252e-03  1.866303e-06
    535    562   2   0.50000    -0.1200000    0.0600000   2.494471e-04  1.671101e-07
    535    563   2   0.50000    -0.1200000    0.0600000   2.494471e-04  1.671101e-07
    560    538   2   0.50000     0.0600000   -0.1200000   2.494471e-04  1.671101e-07
    560    562   2   0.50000     0.0600000    0.0600000   6.128906e-05  1.496315e-08
    560    563   2   0.50000     0.0600000    0.0600000   6.128906e-05  1.496315e-08
    561    538   2   0.50000     0.0600000   -0.1200000   2.494471e-04  1.671101e-07
    561    562   2   0.50000     0.0600000    0.0600000   6.128906e-05  1.496315e-08
    561    563   2   0.50000     0.0600000    0.0600000   6.128906e-05  1.496315e-08
    536    539   2   0.50000    -0.1200000   -0.1200000   1.015252e-03  1.866303e-06
    536    564   2   0.50000    -0.1200000    0.0600000   2.494471e-04  1.671101e-07
    536    565   2   0.50000    -0.1200000    0.0600000   2.494471e-04  1.671101e-07
    562    539   2   0.50000     0.0600000   -0.1200000   2.494471e-04  1.671101e-07
    562    564   2   0.50000     0.0600000    0.0600000   6.128906e-05  1.496315e-08
    562    565   2   0.50000     0.0600000    0.0600000   6.128906e-05  1.496315e-08
    563    539   2   0.50000     0.0600000   -0.1200000   2.494471e-04  1.671101e-07
    563    564   2   0.50000     0.0600000    0.0600000   6.128906e-05  1.496315e-08
    563    565   2   0.50000     0.0600000    0.0600000   6.128906e-05  1.496315e-08
    537    540   2   0.50000    -0.1200000    0.1900000   1.015252e-03  1.866303e-06
    537    566   2   0.50000    -0.1200000    0.0600000   2.494471e-04  1.671101e-07
    537    567   2   0.50000    -0.1200000    0.0600000   2.494471e-04  1.671101e-07
    564    540   2   0.50000     0.0600000    0.1900000   2.494471e-04  1.671101e-07
    564    566   2   0.50000     0.0600000    0.0600000   6.128906e-05  1.496315e-08
    564    567   2   0.50000     0.0600000    0.0600000   6.128906e-05  1.496315e-08
    565    540   2   0.50000     0.0600000    0.1900000   2.494471e-04  1.671101e-07
    565    566   2   0.50000     0.0600000    0.0600000   6.128906e-05  1.496315e-08
    565    567   2   0.50000     0.0600000    0.0600000   6.128906e-05  1.496315e-08
    538    541   2   0.50000    -0.1200000   -0.3300000   1.026091e-03  1.187829e-06
    538    568   2   0.50000    -0.1200000    0.0300000   1.599888e-04  9.721644e-08
    538    569   2   0.50000    -0.1200000    0.0300000   1.599888e-04  9.721644e-08
    566    541   2   0.50000     0.0600000   -0.3300000   2.521103e-04  1.063590e-07
    566    568   2   0.50000     0.0600000    0.0300000   3.930919e-05  8.704828e-09
    566    569   2   0.50000     0.0600000    0.0300000   3.930919e-05  8.704828e-09
    567    541   2   0.50000     0.0600000   -0.3300000   2.521103e-04  1.063590e-07
    567    568   2   0.50000     0.0600000    0.0300000   3.930919e-05  8.704828e-09
    567    569   2   0.50000     0.0600000    0.0300000   3.930919e-05  8.704828e-09
    539    542   2   0.50000    -0.1200000    0.5100000   1.575021e-03  3.561100e-06
    568    542   2   0.50000     0.0300000    0.5100000   2.482000e-04  1.854991e-07
    569    542   2   0.50000     0.0300000    0.5100000   2.482000e-04  1.854991e-07
    540    543   2   0.50000     0.1900000   -0.4300000   1.095425e-03  1.218041e-06
    540    544   2   0.50000     0.1900000   -0.1200000   1.015252e-03  1.866303e-06
    541    545   2   0.50000    -0.3300000   -0.1200000   1.026091e-03  1.187829e-06
    541    570   2   0.50000    -0.3300000    0.0600000   1.616969e-04  6.187447e-08
    541    571   2   0.50000    -0.3300000    0.0600000   1.616969e-04  6.187447e-08
    543    545   2   0.50000    -0.4300000   -0.1200000   1.095425e-03  1.218041e-06
    543    570   2   0.50000    -0.4300000    0.0600000   1.726228e-04  6.344822e-08
    543    571   2   0.50000    -0.4300000    0.0600000   1.726228e-04  6.344822e-08
    542    546   2   0.50000     0.5100000   -0.1200000   1.575021e-03  3.561100e-06
    542    572   2   0.50000     0.5100000    0.0600000   3.869820e-04  3.188634e-07
    542    573   2   0.50000     0.5100000    0.0600000   3.869820e-04  3.188634e-07
    570    546   2   0.50000     0.0600000   -0.1200000   1.599888e-04  9.721644e-08
    570    572   2   0.50000     0.0600000    0.0600000   3.930919e-05  8.704828e-09
    570    573   2   0.50000     0.0600000    0.0600000   3.930919e-05  8.704828e-09
    571    546   2   0.50000     0.0600000   -0.1200000   1.599888e-04  9.721644e-08
    571    572   2   0.50000     0.0600000    0.0600000   3.930919e-05  8.704828e-09
    571    573   2   0.50000     0.0600000    0.0600000   3.930919e-05  8.704828e-09
    544    547   2   0.50000    -0.1200000   -0.1200000   1.015252e-03  1.866303e-06
    544    574   2   0.50000    -0.1200000    0.0600000   2.494471e-04  1.671101e-07
    544    575   2   0.50000    -0.1200000    0.0600000   2.494471e-04  1.671101e-07
    572    547   2   0.50000     0.0600000   -0.1200000   2.494471e-04  1.671101e-07
    572    574   2   0.50000     0.0600000    0.0600000   6.128906e-05  1.496315e-08
    572    575   2   0.50000     0.0600000    0.0600000   6.128906e-05  1.496315e-08
    573    547   2   0.50000     0.0600000   -0.1200000   2.494471e-04  1.671101e-07
    573    574   2   0.50000     0.0600000    0.0600000   6.128906e-05  1.496315e-08
    573    575   2   0.50000     0.0600000    0.0600000   6.128906e-05  1.496315e-08
    545    548   2   0.50000    -0.1200000    0.5100000   1.575021e-03  3.561100e-06
    545    576   2   0.50000    -0.1200000    0.0600000   1.599888e-04  9.721644e-08
    545    577   2   0.50000    -0.1200000    0.0600000   1.599888e-04  9.721644e-08
    574    548   2   0.50000     0.0600000    0.5100000   3.869820e-04  3.188634e-07
    574    576   2   0.50000     0.0600000    0.0600000   3.930919e-05  8.704828e-09
    574    577   2   0.50000     0.0600000    0.0600000   3.930919e-05  8.704828e-09
    575    548   2   0.50000     0.0600000    0.5100000   3.869820e-04  3.188634e-07
    575    576   2   0.50000     0.0600000    0.0600000   3.930919e-05  8.704828e-09
    575    577   2   0.50000     0.0600000    0.0600000   3.930919e-05  8.704828e-09
    546    549   2   0.50000    -0.1200000   -0.4300000   1.095425e-03  1.218041e-06
    546    578   2   0.50000    -0.1200000   -0.3300000   1.026091e-03  1.187829e-06
    576    549   2   0.50000     0.0600000   -0.4300000   1.726228e-04  6.344822e-08
    576    578   2   0.50000     0.0600000   -0.3300000   1.616969e-04  6.187447e-08
    577    549   2   0.50000     0.0600000   -0.4300000   1.726228e-04  6.344822e-08
    577    578   2   0.50000     0.0600000   -0.3300000   1.616969e-04  6.187447e-08
    547    579   2   0.50000    -0.1200000    0.1900000   1.015252e-03  1.866303e-06
    549    579   2   0.50000    -0.4300000    0.1900000   1.095425e-03  1.218041e-06
    548    580   2   0.50000     0.5100000   -0.1200000   1.575021e-03  3.561100e-06
    548    598   2   0.50000     0.5100000    0.0300000   2.482000e-04  1.854991e-07
    548    599   2   0.50000     0.5100000    0.0300000   2.482000e-04  1.854991e-07
    578    581   2   0.50000    -0.3300000   -0.1200000   1.026091e-03  1.187829e-06
    578    600   2   0.50000    -0.3300000    0.0600000   2.521103e-04  1.063590e-07
    578    601   2   0.50000    -0.3300000    0.0600000   2.521103e-04  1.063590e-07
    598    581   2   0.50000     0.0300000   -0.1200000   1.599888e-04  9.721644e-08
    598    600   2   0.50000     0.0300000    0.0600000   3.930919e-05  8.704828e-09
    598    601   2   0.50000     0.0300000    0.0600000   3.930919e-05  8.704828e-09
    599    581   2   0.50000     0.0300000   -0.1200000   1.599888e-04  9.721644e-08
    599    600   2   0.50000     0.0300000    0.0600000   3.930919e-05  8.704828e-09
    599    601   2   0.50000     0.0300000    0.0600000   3.930919e-05  8.704828e-09
    579    582   2   0.50000     0.1900000   -0.1200000   1.015252e-03  1.866303e-06
    579    602   2   0.50000     0.1900000    0.0600000   2.494471e-04  1.671101e-07
    579    603   2   0.50000     0.1900000    0.0600000   2.494471e-04  1.671101e-07
    600    582   2   0.50000     0.0600000   -0.1200000   2.494471e-04  1.671101e-07
    600    602   2   0.50000     0.0600000    0.0600000   6.128906e-05  1.496315e-08
    600    603   2   0.50000     0.0600000    0.0600000   6.128906e-05  1.496315e-08
    601    582   2   0.50000     0.0600000   -0.1200000   2.494471e-04  1.671101e-07
    601    602   2   0.50000     0.0600000    0.0600000   6.128906e-05  1.496315e-08
    601    603   2   0.50000     0.0600000    0.0600000   6.128906e-05  1.496315e-08
    580    583   2   0.50000    -0.1200000   -0.1200000   1.015252e-03  1.866303e-06
    580    604   2   0.50000    -0.1200000    0.0600000   2.494471e-04  1.671101e-07
    580    605   2   0.50000    -0.1200000    0.0600000   2.494471e-04  1.671101e-07
    602    583   2   0.50000     0.0600000   -0.1200000   2.494471e-04  1.671101e-07
    602    604   2   0.50000     0.0600000    0.0600000   6.128906e-05  1.496315e-08
    602    605   2   0.50000     0.0600000    0.0600000   6.128906e-05  1.496315e-08
    603    583   2   0.50000     0.0600000   -0.1200000   2.494471e-04  1.671101e-07
    603    604   2   0.50000     0.0600000    0.0600000   6.128906e-05  1.496315e-08
    603    605   2   0.50000     0.0600000    0.0600000   6.128906e-05  1.496315e-08
    581    584   2   0.50000    -0.1200000   -0.1200000   1.015252e-03  1.866303e-06
    581    606   2   0.50000    -0.1200000    0.0600000   2.494471e-04  1.671101e-07
    581    607   2   0.50000    -0.1200000    0.0600000   2.494471e-04  1.671101e-07
    604    584   2   0.50000     0.0600000   -0.1200000   2.494471e-04  1.671101e-07
    604    606   2   0.50000     0.0600000    0.0600000   6.128906e-05  1.496315e-08
    604    607   2   0.50000     0.0600000    0.0600000   6.128906e-05  1.496315e-08
    605    584   2   0.50000     0.0600000   -0.1200000   2.494471e-04  1.671101e-07
    605    606   2   0.50000     0.0600000    0.0600000   6.128906e-05  1.496315e-08
    605    607   2   0.50000     0.0600000    0.0600000   6.128906e-05  1.496315e-08
    582    585   2   0.50000    -0.1200000   -0.1200000   1.015252e-03  1.866303e-06
    582    608   2   0.50000    -0.1200000    0.0600000   2.494471e-04  1.671101e-07
    582    609   2   0.50000    -0.1200000    0.0600000   2.494471e-04  1.671101e-07
    606    585   2   0.50000     0.0600000   -0.1200000   2.494471e-04  1.671101e-07
    606    608   2   0.50000     0.0600000    0.0600000   6.128906e-05  1.496315e-08
    606    609   2   0.50000     0.0600000    0.0600000   6.128906e-05  1.496315e-08
    607    585   2   0.50000     0.0600000   -0.1200000   2.494471e-04  1.671101e-07
    607    608   2   0.50000     0.0600000    0.0600000   6.128906e-05  1.496315e-08
    607    609   2   0.50000     0.0600000    0.0600000   6.128906e-05  1.496315e-08
    583    586   2   0.50000    -0.1200000   -0.1200000   1.015252e-03  1.866303e-06
    583    610   2   0.50000    -0.1200000    0.0600000   2.494471e-04  1.671101e-07
    583    611   2   0.50000    -0.1200000    0.0600000   2.494471e-04  1.671101e-07
    608    586   2   0.50000     0.0600000   -0.1200000   2.494471e-04  1.671101e-07
    608    610   2   0.50000     0.0600000    0.0600000   6.128906e-05  1.496315e-08
    608    611   2   0.50000     0.0600000    0.0600000   6.128906e-05  1.496315e-08
    609    586   2   0.50000     0.0600000   -0.1200000   2.494471e-04  1.671101e-07
    609    610   2   0.50000     0.0600000    0.0600000   6.128906e-05  1.496315e-08
    609    611   2   0.50000     0.0600000    0.0600000   6.128906e-05  1.496315e-08
    584    587   2   0.50000    -0.1200000   -0.1200000   1.015252e-03  1.866303e-06
    584    612   2   0.50000    -0.1200000    0.0600000   2.494471e-04  1.671101e-07
    584    613   2   0.50000    -0.1200000    0.0600000   2.494471e-04  1.671101e-07
    610    587   2   0.50000     0.0600000   -0.1200000   2.494471e-04  1.671101e-07
    610    612   2   0.50000     0.0600000    0.0600000   6.128906e-05  1.496315e-08
    610    613   2   0.50000     0.0600000    0.0600000   6.128906e-05  1.496315e-08
    611    587   2   0.50000     0.0600000   -0.1200000   2.494471e-04  1.671101e-07
    611    612   2   0.50000     0.0600000    0.0600000   6.128906e-05  1.496315e-08
    611    613   2   0.50000     0.0600000    0.0600000   6.128906e-05  1.496315e-08
    585    588   2   0.50000    -0.1200000    0.1900000   1.015252e-03  1.866303e-06
    585    614   2   0.50000    -0.1200000    0.0600000   2.494471e-04  1.671101e-07
    585    615   2   0.50000    -0.1200000    0.0600000   2.494471e-04  1.671101e-07
    612    588   2   0.50000     0.0600000    0.1900000   2.494471e-04  1.671101e-07
    612    614   2   0.50000     0.0600000    0.0600000   6.128906e-05  1.496315e-08
    612    615   2   0.50000     0.0600000    0.0600000   6.128906e-05  1.496315e-08
    613    588   2   0.50000     0.0600000    0.1900000   2.494471e-04  1.671101e-07
    613    614   2   0.50000     0.0600000    0.0600000   6.128906e-05  1.496315e-08
    613    615   2   0.50000     0.0600000    0.0600000   6.128906e-05  1.496315e-08
    586    589   2   0.50000    -0.1200000   -0.3300000   1.026091e-03  1.187829e-06
    586    616   2   0.50000    -0.1200000    0.0300000   1.599888e-04  9.721644e-08
    586    617   2   0.50000    -0.1200000    0.0300000   1.599888e-04  9.721644e-08
    614    589   2   0.50000     0.0600000   -0.3300000   2.521103e-04  1.063590e-07
    614    616   2   0.50000     0.0600000    0.0300000   3.930919e-05  8.704828e-09
    614    617   2   0.50000     0.0600000    0.0300000   3.930919e-05  8.704828e-09
    615    589   2   0.50000     0.0600000   -0.3300000   2.521103e-04  1.063590e-07
    615    616   2   0.50000     0.0600000    0.0300000   3.930919e-05  8.704828e-09
    615    617   2   0.50000     0.0600000    0.0300000   3.930919e-05  8.704828e-09
    587    590   2   0.50000    -0.1200000    0.5100000   1.575021e-03  3.561100e-06
    616    590   2   0.50000     0.0300000    0.5100000   2.482000e-04  1.854991e-07
    617    590   2   0.50000     0.0300000    0.5100000   2.482000e-04  1.854991e-07
    588    591   2   0.50000     0.1900000   -0.4300000   1.095425e-03  1.218041e-06
    588    592   2   0.50000     0.1900000   -0.1200000   1.015252e-03  1.866303e-06
    589    593   2   0.50000    -0.3300000   -0.1200000   1.026091e-03  1.187829e-06
    589    618   2   0.50000    -0.3300000    0.0600000   1.616969e-04  6.187447e-08
    589    619   2   0.50000    -0.3300000    0.0600000   1.616969e-04  6.187447e-08
    591    593   2   0.50000    -0.4300000   -0.1200000   1.095425e-03  1.218041e-06
    591    618   2   0.50000    -0.4300000    0.0600000   1.726228e-04  6.344822e-08
    591    619   2   0.50000    -0.4300000    0.0600000   1.726228e-04  6.344822e-08
    590    594   2   0.50000     0.5100000   -0.1200000   1.575021e-03  3.561100e-06
    590    620   2   0.50000     0.5100000    0.0600000   3.869820e-04  3.188634e-07
    590    621   2   0.50000     0.5100000    0.0600000   3.869820e-04  3.188634e-07
    618    594   2   0.50000     0.0600000   -0.1200000   1.599888e-04  9.721644e-08
    618    620   2   0.50000     0.0600000    0.0600000   3.930919e-05  8.704828e-09
    618    621   2   0.50000     0.0600000    0.0600000   3.930919e-05  8.704828e-09
    619    594   2   0.50000     0.0600000   -0.1200000   1.599888e-04  9.721644e-08
    619    620   2   0.50000     0.0600000    0.0600000   3.930919e-05  8.704828e-09
    619    621   2   0.50000     0.0600000    0.0600000   3.930919e-05  8.704828e-09
    592    595   2   0.50000    -0.1200000   -0.1200000   1.015252e-03  1.866303e-06
    592    622   2   0.50000    -0.1200000    0.0600000   2.494471e-04  1.671101e-07
    592    623   2   0.50000    -0.1200000    0.0600000   2.494471e-04  1.671101e-07
    620    595   2   0.50000     0.0600000   -0.1200000   2.494471e-04  1.671101e-07
    620    622   2   0.50000     0.0600000    0.0600000   6.128906e-05  1.496315e-08
    620    623   2   0.50000     0.0600000    0.0600000   6.128906e-05  1.496315e-08
    621    595   2   0.50000     0.0600000   -0.1200000   2.494471e-04  1.671101e-07
    621    622   2   0.50000     0.0600000    0.0600000   6.128906e-05  1.496315e-08
    621    623   2   0.50000     0.0600000    0.0600000   6.128906e-05  1.496315e-08
    593    596   2   0.50000    -0.1200000    0.5100000   1.575021e-03  3.561100e-06
    593    624   2   0.50000    -0.1200000    0.0600000   1.599888e-04  9.721644e-08
    593    625   2   0.50000    -0.1200000    0.0600000   1.599888e-04  9.721644e-08
    622    596   2   0.50000     0.0600000    0.5100000   3.869820e-04  3.188634e-07
    622    624   2   0.50000     0.0600000    0.0600000   3.930919e-05  8.704828e-09
    622    625   2   0.50000     0.0600000    0.0600000   3.930919e-05  8.704828e-09
    623    596   2   0.50000     0.0600000    0.5100000   3.869820e-04  3.188634e-07
    623    624   2   0.50000     0.0600000    0.0600000   3.930919e-05  8.704828e-09
    623    625   2   0.50000     0.0600000    0.0600000   3.930919e-05  8.704828e-09
    594    597   2   0.50000    -0.1200000   -0.4300000   1.095425e-03  1.218041e-06
    594    626   2   0.50000    -0.1200000   -0.3300000   1.026091e-03  1.187829e-06
    624    597   2   0.50000     0.0600000   -0.4300000   1.726228e-04  6.344822e-08
    624    626   2   0.50000     0.0600000   -0.3300000   1.616969e-04  6.187447e-08
    625    597   2   0.50000     0.0600000   -0.4300000   1.726228e-04  6.344822e-08
    625    626   2   0.50000     0.0600000   -0.3300000   1.616969e-04  6.187447e-08
    595    627   2   0.50000    -0.1200000    0.1900000   1.015252e-03  1.866303e-06
    597    627   2   0.50000    -0.4300000    0.1900000   1.095425e-03  1.218041e-06
    596    628   2   0.50000     0.5100000   -0.1200000   1.575021e-03  3.561100e-06
    596    646   2   0.50000     0.5100000    0.0300000   2.482000e-04  1.854991e-07
    596    647   2   0.50000     0.5100000    0.0300000   2.482000e-04  1.854991e-07
    626    629   2   0.50000    -0.3300000   -0.1200000   1.026091e-03  1.187829e-06
    626    648   2   0.50000    -0.3300000    0.0600000   2.521103e-04  1.063590e-07
    626    649   2   0.50000    -0.3300000    0.0600000   2.521103e-04  1.063590e-07
    646    629   2   0.50000     0.0300000   -0.1200000   1.599888e-04  9.721644e-08
    646    648   2   0.50000     0.0300000    0.0600000   3.930919e-05  8.704828e-09
    646    649   2   0.50000     0.0300000    0.0600000   3.930919e-05  8.704828e-09
    647    629   2   0.50000     0.0300000   -0.1200000   1.599888e-04  9.721644e-08
    647    648   2   0.50000     0.0300000    0.0600000   3.930919e-05  8.704828e-09
    647    649   2   0.50000     0.0300000    0.0600000   3.930919e-05  8.704828e-09
    627    630   2   0.50000     0.1900000   -0.1200000   1.015252e-03  1.866303e-06
    627    650   2   0.50000     0.1900000    0.0600000   2.494471e-04  1.671101e-07
    627    651   2   0.50000     0.1900000    0.0600000   2.494471e-04  1.671101e-07
    648    630   2   0.50000     0.0600000   -0.1200000   2.494471e-04  1.671101e-07
    648    650   2   0.50000     0.0600000    0.0600000   6.128906e-05  1.496315e-08
    648    651   2   0.50000     0.0600000    0.0600000   6.128906e-05  1.496315e-08
    649    630   2   0.50000     0.0600000   -0.1200000   2.494471e-04  1.671101e-07
    649    650   2   0.50000     0.0600000    0.0600000   6.128906e-05  1.496315e-08
    649    651   2   0.50000     0.0600000    0.0600000   6.128906e-05  1.496315e-08
    628    631   2   0.50000    -0.1200000   -0.1200000   1.015252e-03  1.866303e-06
    628    652   2   0.50000    -0.1200000    0.0600000   2.494471e-04  1.671101e-07
    628    653   2   0.50000    -0.1200000    0.0600000   2.494471e-04  1.671101e-07
    650    631   2   0.50000     0.0600000   -0.1200000   2.494471e-04  1.671101e-07
    650    652   2   0.50000     0.0600000    0.0600000   6.128906e-05  1.496315e-08
    650    653   2   0.50000     0.0600000    0.0600000   6.128906e-05  1.496315e-08
    651    631   2   0.50000     0.0600000   -0.1200000   2.494471e-04  1.671101e-07
    651    652   2   0.50000     0.0600000    0.0600000   6.128906e-05  1.496315e-08
    651    653   2   0.50000     0.0600000    0.0600000   6.128906e-05  1.496315e-08
    629    632   2   0.50000    -0.1200000   -0.1200000   1.015252e-03  1.866303e-06
    629    654   2   0.50000    -0.1200000    0.0600000   2.494471e-04  1.671101e-07
    629    655   2   0.50000    -0.1200000    0.0600000   2.494471e-04  1.671101e-07
    652    632   2   0.50000     0.0600000   -0.1200000   2.494471e-04  1.671101e-07
    652    654   2   0.50000     0.0600000    0.0600000   6.128906e-05  1.496315e-08
    652    655   2   0.50000     0.0600000    0.0600000   6.128906e-05  1.496315e-08
    653    632   2   0.50000     0.0600000   -0.1200000   2.494471e-04  1.671101e-07
    653    654   2   0.50000     0.0600000    0.0600000   6.128906e-05  1.496315e-08
    653    655   2   0.50000     0.0600000    0.0600000   6.128906e-05  1.496315e-08
    630    633   2   0.50000    -0.1200000   -0.1200000   1.015252e-03  1.866303e-06
    630    656   2   0.50000    -0.1200000    0.0600000   2.494471e-04  1.671101e-07
    630    657   2   0.50000    -0.1200000    0.0600000   2.494471e-04  1.671101e-07
    654    633   2   0.50000     0.0600000   -0.1200000   2.494471e-04  1.671101e-07
    654    656   2   0.50000     0.0600000    0.0600000   6.128906e-05  1.496315e-08
    654    657   2   0.50000     0.0600000    0.0600000   6.128906e-05  1.496315e-08
    655    633   2   0.50000     0.0600000   -0.1200000   2.494471e-04  1.671101e-07
    655    656   2   0.50000     0.0600000    0.0600000   6.128906e-05  1.496315e-08
    655    657   2   0.50000     0.0600000    0.0600000   6.128906e-05  1.496315e-08
    631    634   2   0.50000    -0.1200000   -0.1200000   1.015252e-03  1.866303e-06
    631    658   2   0.50000    -0.1200000    0.0600000   2.494471e-04  1.671101e-07
    631    659   2   0.50000    -0.1200000    0.0600000   2.494471e-04  1.671101e-07
    656    634   2   0.50000     0.0600000   -0.1200000   2.494471e-04  1.671101e-07
    656    658   2   0.50000     0.0600000    0.0600000   6.128906e-05  1.496315e-08
    656    659   2   0.50000     0.0600000    0.0600000   6.128906e-05  1.496315e-08
    657    634   2   0.50000     0.0600000   -0.1200000   2.494471e-04  1.671101e-07
    657    658   2   0.50000     0.0600000    0.0600000   6.128906e-05  1.496315e-08
    657    659   2   0.50000     0.0600000    0.0600000   6.128906e-05  1.496315e-08
    632    635   2   0.50000    -0.1200000   -0.1200000   1.015252e-03  1.866303e-06
    632    660   2   0.50000    -0.1200000    0.0600000   2.494471e-04  1.671101e-07
    632    661   2   0.50000    -0.1200000    0.0600000   2.494471e-04  1.671101e-07
    658    635   2   0.50000     0.0600000   -0.1200000   2.494471e-04  1.671101e-07
    658    660   2   0.50000     0.0600000    0.0600000   6.128906e-05  1.496315e-08
    658    661   2   0.50000     0.0600000    0.0600000   6.128906e-05  1.496315e-08
    659    635   2   0.50000     0.0600000   -0.1200000   2.494471e-04  1.671101e-07
    659    660   2   0.50000     0.0600000    0.0600000   6.128906e-05  1.496315e-08
    659    661   2   0.50000     0.0600000    0.0600000   6.128906e-05  1.496315e-08
    633    636   2   0.50000    -0.1200000    0.1900000   1.015252e-03  1.866303e-06
    633    662   2   0.50000    -0.1200000    0.0600000   2.494471e-04  1.671101e-07
    633    663   2   0.50000    -0.1200000    0.0600000   2.494471e-04  1.671101e-07
    660    636   2   0.50000     0.0600000    0.1900000   2.494471e-04  1.671101e-07
    660    662   2   0.50000     0.0600000    0.0600000   6.128906e-05  1.496315e-08
    660    663   2   0.50000     0.0600000    0.0600000   6.128906e-05  1.496315e-08
    661    636   2   0.50000     0.0600000    0.1900000   2.494471e-04  1.671101e-07
    661    662   2   0.50000     0.0600000    0.0600000   6.128906e-05  1.496315e-08
    661    663   2   0.50000     0.0600000    0.0600000   6.128906e-05  1.496315e-08
    634    637   2   0.50000    -0.1200000   -0.3300000   1.026091e-03  1.187829e-06
    634    664   2   0.50000    -0.1200000    0.0300000   1.599888e-04  9.721644e-08
    634    665   2   0.50000    -0.1200000    0.0300000   1.599888e-04  9.721644e-08
    662    637   2   0.50000     0.0600000   -0.3300000   2.521103e-04  1.063590e-07
    662    664   2   0.50000     0.0600000    0.0300000   3.930919e-05  8.704828e-09
    662    665   2   0.50000     0.0600000    0.0300000   3.930919e-05  8.704828e-09
    663    637   2   0.50000     0.0600000   -0.3300000   2.521103e-04  1.063590e-07
    663    664   2   0.50000     0.0600000    0.0300000   3.930919e-05  8.704828e-09
    663    665   2   0.50000     0.0600000    0.0300000   3.930919e-05  8.704828e-09
    635    638   2   0.50000    -0.1200000    0.5100000   1.575021e-03  3.561100e-06
    664    638   2   0.50000     0.0300000    0.5100000   2.482000e-04  1.854991e-07
    665    638   2   0.50000     0.0300000    0.5100000   2.482000e-04  1.854991e-07
    636    639   2   0.50000     0.1900000   -0.4300000   1.095425e-03  1.218041e-06
    636    640   2   0.50000     0.1900000   -0.1200000   1.015252e-03  1.866303e-06
    637    641   2   0.50000    -0.3300000   -0.1200000   1.026091e-03  1.187829e-06
    637    666   2   0.50000    -0.3300000    0.0600000   1.616969e-04  6.187447e-08
    637    667   2   0.50000    -0.3300000    0.0600000   1.616969e-04  6.187447e-08
    639    641   2   0.50000    -0.4300000   -0.1200000   1.095425e-03  1.218041e-06
    639    666   2   0.50000    -0.4300000    0.0600000   1.726228e-04  6.344822e-08
    639    667   2   0.50000    -0.4300000    0.0600000   1.726228e-04  6.344822e-08
    638    642   2   0.50000     0.5100000   -0.1200000   1.575021e-03  3.561100e-06
    638    668   2   0.50000     0.5100000    0.0600000   3.869820e-04  3.188634e-07
    638    669   2   0.50000     0.5100000    0.0600000   3.869820e-04  3.188634e-07
    666    642   2   0.50000     0.0600000   -0.1200000   1.599888e-04  9.721644e-08
    666    668   2   0.50000     0.0600000    0.0600000   3.930919e-05  8.704828e-09
    666    669   2   0.50000     0.0600000    0.0600000   3.930919e-05  8.704828e-09
    667    642   2   0.50000     0.0600000   -0.1200000   1.599888e-04  9.721644e-08
    667    668   2   0.50000     0.0600000    0.0600000   3.930919e-05  8.704828e-09
    667    669   2   0.50000     0.0600000    0.0600000   3.930919e-05  8.704828e-09
    640    643   2   0.50000    -0.1200000   -0.1200000   1.015252e-03  1.866303e-06
    640    670   2   0.50000    -0.1200000    0.0600000   2.494471e-04  1.671101e-07
    640    671   2   0.50000    -0.1200000    0.0600000   2.494471e-04  1.671101e-07
    668    643   2   0.50000     0.0600000   -0.1200000   2.494471e-04  1.671101e-07
    668    670   2   0.50000     0.0600000    0.0600000   6.128906e-05  1.496315e-08
    668    671   2   0.50000     0.0600000    0.0600000   6.128906e-05  1.496315e-08
    669    643   2   0.50000     0.0600000   -0.1200000   2.494471e-04  1.671101e-07
    669    670   2   0.50000     0.0600000    0.0600000   6.128906e-05  1.496315e-08
    669    671   2   0.50000     0.0600000    0.0600000   6.128906e-05  1.496315e-08
    641    644   2   0.50000    -0.1200000    0.5100000   1.575021e-03  3.561100e-06
    641    672   2   0.50000    -0.1200000    0.0600000   1.599888e-04  9.721644e-08
    641    673   2   0.50000    -0.1200000    0.0600000   1.599888e-04  9.721644e-08
    670    644   2   0.50000     0.0600000    0.5100000   3.869820e-04  3.188634e-07
    670    672   2   0.50000     0.0600000    0.0600000   3.930919e-05  8.704828e-09
    670    673   2   0.50000     0.0600000    0.0600000   3.930919e-05  8.704828e-09
    671    644   2   0.50000     0.0600000    0.5100000   3.869820e-04  3.188634e-07
    671    672   2   0.50000     0.0600000    0.0600000   3.930919e-05  8.704828e-09
    671    673   2   0.50000     0.0600000    0.0600000   3.930919e-05  8.704828e-09
    642    645   2   0.50000    -0.1200000   -0.4300000   1.095425e-03  1.218041e-06
    642    674   2   0.50000    -0.1200000   -0.3300000   1.026091e-03  1.187829e-06
    672    645   2   0.50000     0.0600000   -0.4300000   1.726228e-04  6.344822e-08
    672    674   2   0.50000     0.0600000   -0.3300000   1.616969e-04  6.187447e-08
    673    645   2   0.50000     0.0600000   -0.4300000   1.726228e-04  6.344822e-08
    673    674   2   0.50000     0.0600000   -0.3300000   1.616969e-04  6.187447e-08
    643    675   2   0.50000    -0.1200000    0.1900000   1.015252e-03  1.866303e-06
    645    675   2   0.50000    -0.4300000    0.1900000   1.095425e-03  1.218041e-06
    644    676   2   0.50000     0.5100000   -0.1200000   1.575021e-03  3.561100e-06
    644    694   2   0.50000     0.5100000    0.0300000   2.482000e-04  1.854991e-07
    644    695   2   0.50000     0.5100000    0.0300000   2.482000e-04  1.854991e-07
    674    677   2   0.50000    -0.3300000   -0.1200000   1.026091e-03  1.187829e-06
    674    696   2   0.50000    -0.3300000    0.0600000   2.521103e-04  1.063590e-07
    674    697   2   0.50000    -0.3300000    0.0600000   2.521103e-04  1.063590e-07
    694    677   2   0.50000     0.0300000   -0.1200000   1.599888e-04  9.721644e-08
    694    696   2   0.50000     0.0300000    0.0600000   3.930919e-05  8.704828e-09
    694    697   2   0.50000     0.0300000    0.0600000   3.930919e-05  8.704828e-09
    695    677   2   0.50000     0.0300000   -0.1200000   1.599888e-04  9.721644e-08
    695    696   2   0.50000     0.0300000    0.0600000   3.930919e-05  8.704828e-09
    695    697   2   0.50000     0.0300000    0.0600000   3.930919e-05  8.704828e-09
    675    678   2   0.50000     0.1900000   -0.1200000   1.015252e-03  1.866303e-06
    675    698   2   0.50000     0.1900000    0.0600000   2.494471e-04  1.671101e-07
    675    699   2   0.50000     0.1900000    0.0600000   2.494471e-04  1.671101e-07
    696    678   2   0.50000     0.0600000   -0.1200000   2.494471e-04  1.671101e-07
    696    698   2   0.50000     0.0600000    0.0600000   6.128906e-05  1.496315e-08
    696    699   2   0.50000     0.0600000    0.0600000   6.128906e-05  1.496315e-08
    697    678   2   0.50000     0.0600000   -0.1200000   2.494471e-04  1.671101e-07
    697    698   2   0.50000     0.0600000    0.0600000   6.128906e-05  1.496315e-08
    697    699   2   0.50000     0.0600000    0.0600000   6.128906e-05  1.496315e-08
    676    679   2   0.50000    -0.1200000   -0.1200000   1.015252e-03  1.866303e-06
    676    700   2   0.50000    -0.1200000    0.0600000   2.494471e-04  1.671101e-07
    676    701   2   0.50000    -0.1200000    0.0600000   2.494471e-04  1.671101e-07
    698    679   2   0.50000     0.0600000   -0.1200000   2.494471e-04  1.671101e-07
    698    700   2   0.50000     0.0600000    0.0600000   6.128906e-05  1.496315e-08
    698    701   2   0.50000     0.0600000    0.0600000   6.128906e-05  1.496315e-08
    699    679   2   0.50000     0.0600000   -0.1200000   2.494471e-04  1.671101e-07
    699    700   2   0.50000     0.0600000    0.0600000   6.128906e-05  1.496315e-08
    699    701   2   0.50000     0.0600000    0.0600000   6.128906e-05  1.496315e-08
    677    680   2   0.50000    -0.1200000   -0.1200000   1.015252e-03  1.866303e-06
    677    702   2   0.50000    -0.1200000    0.0600000   2.494471e-04  1.671101e-07
    677    703   2   0.50000    -0.1200000    0.0600000   2.494471e-04  1.671101e-07
    700    680   2   0.50000     0.0600000   -0.1200000   2.494471e-04  1.671101e-07
    700    702   2   0.50000     0.0600000    0.0600000   6.128906e-05  1.496315e-08
    700    703   2   0.50000     0.0600000    0.0600000   6.128906e-05  1.496315e-08
    701    680   2   0.50000     0.0600000   -0.1200000   2.494471e-04  1.671101e-07
    701    702   2   0.50000     0.0600000    0.0600000   6.128906e-05  1.496315e-08
    701    703   2   0.50000     0.0600000    0.0600000   6.128906e-05  1.496315e-08
    678    681   2   0.50000    -0.1200000   -0.1200000   1.015252e-03  1.866303e-06
    678    704   2   0.50000    -0.1200000    0.0600000   2.494471e-04  1.671101e-07
    678    705   2   0.50000    -0.1200000    0.0600000   2.494471e-04  1.671101e-07
    702    681   2   0.50000     0.0600000   -0.1200000   2.494471e-04  1.671101e-07
    702    704   2   0.50000     0.0600000    0.0600000   6.128906e-05  1.496315e-08
    702    705   2   0.50000     0.0600000    0.0600000   6.128906e-05  1.496315e-08
    703    681   2   0.50000     0.0600000   -0.1200000   2.494471e-04  1.671101e-07
    703    704   2   0.50000     0.0600000    0.0600000   6.128906e-05  1.496315e-08
    703    705   2   0.50000     0.0600000    0.0600000   6.128906e-05  1.496315e-08
    679    682   2   0.50000    -0.1200000   -0.1200000   1.015252e-03  1.866303e-06
    679    706   2   0.50000    -0.1200000    0.0600000   2.494471e-04  1.671101e-07
    679    707   2   0.50000    -0.1200000    0.0600000   2.494471e-04  1.671101e-07
    704    682   2   0.50000     0.0600000   -0.1200000   2.494471e-04  1.671101e-07
    704    706   2   0.50000     0.0600000    0.0600000   6.128906e-05  1.496315e-08
    704    707   2   0.50000     0.0600000    0.0600000   6.128906e-05  1.496315e-08
    705    682   2   0.50000     0.0600000   -0.1200000   2.494471e-04  1.671101e-07
    705    706   2   0.50000     0.0600000    0.0600000   6.128906e-05  1.496315e-08
    705    707   2   0.50000     0.0600000    0.0600000   6.128906e-05  1.496315e-08
    680    683   2   0.50000    -0.1200000   -0.1200000   1.015252e-03  1.866303e-06
    680    708   2   0.50000    -0.1200000    0.0600000   2.494471e-04  1.671101e-07
    680    709   2   0.50000    -0.1200000    0.0600000   2.494471e-04  1.671101e-07
    706    683   2   0.50000     0.0600000   -0.1200000   2.494471e-04  1.671101e-07
    706    708   2   0.50000     0.0600000    0.0600000   6.128906e-05  1.496315e-08
    706    709   2   0.50000     0.0600000    0.0600000   6.128906e-05  1.496315e-08
    707    683   2   0.50000     0.0600000   -0.1200000   2.494471e-04  1.671101e-07
    707    708   2   0.50000     0.0600000    0.0600000   6.128906e-05  1.496315e-08
    707    709   2   0.50000     0.0600000    0.0600000   6.128906e-05  1.496315e-08
    681    684   2   0.50000    -0.1200000    0.1900000   1.015252e-03  1.866303e-06
    681    710   2   0.50000    -0.1200000    0.0600000   2.494471e-04  1.671101e-07
    681    711   2   0.50000    -0.1200000    0.0600000   2.494471e-04  1.671101e-07
    708    684   2   0.50000     0.0600000    0.1900000   2.494471e-04  1.671101e-07
    708    710   2   0.50000     0.0600000    0.0600000   6.128906e-05  1.496315e-08
    708    711   2   0.50000     0.0600000    0.0600000   6.128906e-05  1.496315e-08
    709    684   2   0.50000     0.0600000    0.1900000   2.494471e-04  1.671101e-07
    709    710   2   0.50000     0.0600000    0.0600000   6.128906e-05  1.496315e-08
    709    711   2   0.50000     0.0600000    0.0600000   6.128906e-05  1.496315e-08
    682    685   2   0.50000    -0.1200000   -0.3300000   1.026091e-03  1.187829e-06
    682    712   2   0.50000    -0.1200000    0.0300000   1.599888e-04  9.721644e-08
    682    713   2   0.50000    -0.1200000    0.0300000   1.599888e-04  9.721644e-08
    710    685   2   0.50000     0.0600000   -0.3300000   2.521103e-04  1.063590e-07
    710    712   2   0.50000     0.0600000    0.0300000   3.930919e-05  8.704828e-09
    710    713   2   0.50000     0.0600000    0.0300000   3.930919e-05  8.704828e-09
    711    685   2   0.50000     0.0600000   -0.3300000   2.521103e-04  1.063590e-07
    711    712   2   0.50000     0.0600000    0.0300000   3.930919e-05  8.704828e-09
    711    713   2   0.50000     0.0600000    0.0300000   3.930919e-05  8.704828e-09
    683    686   2   0.50000    -0.1200000    0.5100000   1.575021e-03  3.561100e-06
    712    686   2   0.50000     0.0300000    0.5100000   2.482000e-04  1.854991e-07
    713    686   2   0.50000     0.0300000    0.5100000   2.482000e-04  1.854991e-07
    684    687   2   0.50000     0.1900000   -0.4300000   1.095425e-03  1.218041e-06
    684    688   2   0.50000     0.1900000   -0.1200000   1.015252e-03  1.866303e-06
    685    689   2   0.50000    -0.3300000   -0.1200000   1.026091e-03  1.187829e-06
    685    714   2   0.50000    -0.3300000    0.0600000   1.616969e-04  6.187447e-08
    685    715   2   0.50000    -0.3300000    0.0600000   1.616969e-04  6.187447e-08
    687    689   2   0.50000    -0.4300000   -0.1200000   1.095425e-03  1.218041e-06
    687    714   2   0.50000    -0.4300000    0.0600000   1.726228e-04  6.344822e-08
    687    715   2   0.50000    -0.4300000    0.0600000   1.726228e-04  6.344822e-08
    686    690   2   0.50000     0.5100000   -0.1200000   1.575021e-03  3.561100e-06
    686    716   2   0.50000     0.5100000    0.0600000   3.869820e-04  3.188634e-07
    686    717   2   0.50000     0.5100000    0.0600000   3.869820e-04  3.188634e-07
    714    690   2   0.50000     0.0600000   -0.1200000   1.599888e-04  9.721644e-08
    714    716   2   0.50000     0.0600000    0.0600000   3.930919e-05  8.704828e-09
    714    717   2   0.50000     0.0600000    0.0600000   3.930919e-05  8.704828e-09
    715    690   2   0.50000     0.0600000   -0.1200000   1.599888e-04  9.721644e-08
    715    716   2   0.50000     0.0600000    0.0600000   3.930919e-05  8.704828e-09
    715    717   2   0.50000     0.0600000    0.0600000   3.930919e-05  8.704828e-09
    688    691   2   0.50000    -0.1200000   -0.1200000   1.015252e-03  1.866303e-06
    688    718   2   0.50000    -0.1200000    0.0600000   2.494471e-04  1.671101e-07
    688    719   2   0.50000    -0.1200000    0.0600000   2.494471e-04  1.671101e-07
    716    691   2   0.50000     0.0600000   -0.1200000   2.494471e-04  1.671101e-07
    716    718   2   0.50000     0.0600000    0.0600000   6.128906e-05  1.496315e-08
    716    719   2   0.50000     0.0600000    0.0600000   6.128906e-05  1.496315e-08
    717    691   2   0.50000     0.0600000   -0.1200000   2.494471e-04  1.671101e-07
    717    718   2   0.50000     0.0600000    0.0600000   6.128906e-05  1.496315e-08
    717    719   2   0.50000     0.0600000    0.0600000   6.128906e-05  1.496315e-08
    689    692   2   0.50000    -0.1200000    0.5100000   1.575021e-03  3.561100e-06
    689    720   2   0.50000    -0.1200000    0.0600000   1.599888e-04  9.721644e-08
    689    721   2   0.50000    -0.1200000    0.0600000   1.599888e-04  9.721644e-08
    718    692   2   0.50000     0.0600000    0.5100000   3.869820e-04  3.188634e-07
    718    720   2   0.50000     0.0600000    0.0600000   3.930919e-05  8.704828e-09
    718    721   2   0.50000     0.0600000    0.0600000   3.930919e-05  8.704828e-09
    719    692   2   0.50000     0.0600000    0.5100000   3.869820e-04  3.188634e-07
    719    720   2   0.50000     0.0600000    0.0600000   3.930919e-05  8.704828e-09
    719    721   2   0.50000     0.0600000    0.0600000   3.930919e-05  8.704828e-09
    690    693   2   0.50000    -0.1200000   -0.4300000   1.095425e-03  1.218041e-06
    690    722   2   0.50000    -0.1200000   -0.3300000   1.026091e-03  1.187829e-06
    720    693   2   0.50000     0.0600000   -0.4300000   1.726228e-04  6.344822e-08
    720    722   2   0.50000     0.0600000   -0.3300000   1.616969e-04  6.187447e-08
    721    693   2   0.50000     0.0600000   -0.4300000   1.726228e-04  6.344822e-08
    721    722   2   0.50000     0.0600000   -0.3300000   1.616969e-04  6.187447e-08
    691    723   2   0.50000    -0.1200000    0.1900000   1.015252e-03  1.866303e-06
    693    723   2   0.50000    -0.4300000    0.1900000   1.095425e-03  1.218041e-06
    692    724   2   0.50000     0.5100000   -0.1200000   1.575021e-03  3.561100e-06
    692    742   2   0.50000     0.5100000    0.0300000   2.482000e-04  1.854991e-07
    692    743   2   0.50000     0.5100000    0.0300000   2.482000e-04  1.854991e-07
    722    725   2   0.50000    -0.3300000   -0.1200000   1.026091e-03  1.187829e-06
    722    744   2   0.50000    -0.3300000    0.0600000   2.521103e-04  1.063590e-07
    722    745   2   0.50000    -0.3300000    0.0600000   2.521103e-04  1.063590e-07
    742    725   2   0.50000     0.0300000   -0.1200000   1.599888e-04  9.721644e-08
    742    744   2   0.50000     0.0300000    0.0600000   3.930919e-05  8.704828e-09
    742    745   2   0.50000     0.0300000    0.0600000   3.930919e-05  8.704828e-09
    743    725   2   0.50000     0.0300000   -0.1200000   1.599888e-04  9.721644e-08
    743    744   2   0.50000     0.0300000    0.0600000   3.930919e-05  8.704828e-09
    743    745   2   0.50000     0.0300000    0.0600000   3.930919e-05  8.704828e-09
    723    726   2   0.50000     0.1900000   -0.1200000   1.015252e-03  1.866303e-06
    723    746   2   0.50000     0.1900000    0.0600000   2.494471e-04  1.671101e-07
    723    747   2   0.50000     0.1900000    0.0600000   2.494471e-04  1.671101e-07
    744    726   2   0.50000     0.0600000   -0.1200000   2.494471e-04  1.671101e-07
    744    746   2   0.50000     0.0600000    0.0600000   6.128906e-05  1.496315e-08
    744    747   2   0.50000     0.0600000    0.0600000   6.128906e-05  1.496315e-08
    745    726   2   0.50000     0.0600000   -0.1200000   2.494471e-04  1.671101e-07
    745    746   2   0.50000     0.0600000    0.0600000   6.128906e-05  1.496315e-08
    745    747   2   0.50000     0.0600000    0.0600000   6.128906e-05  1.496315e-08
    724    727   2   0.50000    -0.1200000   -0.1200000   1.015252e-03  1.866303e-06
    724    748   2   0.50000    -0.1200000    0.0600000   2.494471e-04  1.671101e-07
    724    749   2   0.50000    -0.1200000    0.0600000   2.494471e-04  1.671101e-07
    746    727   2   0.50000     0.0600000   -0.1200000   2.494471e-04  1.671101e-07
    746    748   2   0.50000     0.0600000    0.0600000   6.128906e-05  1.496315e-08
    746    749   2   0.50000     0.0600000    0.0600000   6.128906e-05  1.496315e-08
    747    727   2   0.50000     0.0600000   -0.1200000   2.494471e-04  1.671101e-07
    747    748   2   0.50000     0.0600000    0.0600000   6.128906e-05  1.496315e-08
    747    749   2   0.50000     0.0600000    0.0600000   6.128906e-05  1.496315e-08
    725    728   2   0.50000    -0.1200000   -0.1200000   1.015252e-03  1.866303e-06
    725    750   2   0.50000    -0.1200000    0.0600000   2.494471e-04  1.671101e-07
    725    751   2   0.50000    -0.1200000    0.0600000   2.494471e-04  1.671101e-07
    748    728   2   0.50000     0.0600000   -0.1200000   2.494471e-04  1.671101e-07
    748    750   2   0.50000     0.0600000    0.0600000   6.128906e-05  1.496315e-08
    748    751   2   0.50000     0.0600000    0.0600000   6.128906e-05  1.496315e-08
    749    728   2   0.50000     0.0600000   -0.1200000   2.494471e-04  1.671101e-07
    749    750   2   0.50000     0.0600000    0.0600000   6.128906e-05  1.496315e-08
    749    751   2   0.50000     0.0600000    0.0600000   6.128906e-05  1.496315e-08
    726    729   2   0.50000    -0.1200000   -0.1200000   1.015252e-03  1.866303e-06
    726    752   2   0.50000    -0.1200000    0.0600000   2.494471e-04  1.671101e-07
    726    753   2   0.50000    -0.1200000    0.0600000   2.494471e-04  1.671101e-07
    750    729   2   0.50000     0.0600000   -0.1200000   2.494471e-04  1.671101e-07
    750    752   2   0.50000     0.0600000    0.0600000   6.128906e-05  1.496315e-08
    750    753   2   0.50000     0.0600000    0.0600000   6.128906e-05  1.496315e-08
    751    729   2   0.50000     0.0600000   -0.1200000   2.494471e-04  1.671101e-07
    751    752   2   0.50000     0.0600000    0.0600000   6.128906e-05  1.496315e-08
    751    753   2   0.50000     0.0600000    0.0600000   6.128906e-05  1.496315e-08
    727    730   2   0.50000    -0.1200000   -0.1200000   1.015252e-03  1.866303e-06
    727    754   2   0.50000    -0.1200000    0.0600000   2.494471e-04  1.671101e-07
    727    755   2   0.50000    -0.1200000    0.0600000   2.494471e-04  1.671101e-07
    752    730   2   0.50000     0.0600000   -0.1200000   2.494471e-04  1.671101e-07
    752    754   2   0.50000     0.0600000    0.0600000   6.128906e-05  1.496315e-08
    752    755   2   0.50000     0.0600000    0.0600000   6.128906e-05  1.496315e-08
    753    730   2   0.50000     0.0600000   -0.1200000   2.494471e-04  1.671101e-07
    753    754   2   0.50000     0.0600000    0.0600000   6.128906e-05  1.496315e-08
    753    755   2   0.50000     0.0600000    0.0600000   6.128906e-05  1.496315e-08
    728    731   2   0.50000    -0.1200000   -0.1200000   1.015252e-03  1.866303e-06
    728    756   2   0.50000    -0.1200000    0.0600000   2.494471e-04  1.671101e-07
    728    757   2   0.50000    -0.1200000    0.0600000   2.494471e-04  1.671101e-07
    754    731   2   0.50000     0.0600000   -0.1200000   2.494471e-04  1.671101e-07
    754    756   2   0.50000     0.0600000    0.0600000   6.128906e-05  1.496315e-08
    754    757   2   0.50000     0.0600000    0.0600000   6.128906e-05  1.496315e-08
    755    731   2   0.50000     0.0600000   -0.1200000   2.494471e-04  1.671101e-07
    755    756   2   0.50000     0.0600000    0.0600000   6.128906e-05  1.496315e-08
    755    757   2   0.50000     0.0600000    0.0600000   6.128906e-05  1.496315e-08
    729    732   2   0.50000    -0.1200000    0.1900000   1.015252e-03  1.866303e-06
    729    758   2   0.50000    -0.1200000    0.0600000   2.494471e-04  1.671101e-07
    729    759   2   0.50000    -0.1200000    0.0600000   2.494471e-04  1.671101e-07
    756    732   2   0.50000     0.0600000    0.1900000   2.494471e-04  1.671101e-07
    756    758   2   0.50000     0.0600000    0.0600000   6.128906e-05  1.496315e-08
    756    759   2   0.50000     0.0600000    0.0600000   6.128906e-05  1.496315e-08
    757    732   2   0.50000     0.0600000    0.1900000   2.494471e-04  1.671101e-07
    757    758   2   0.50000     0.0600000    0.0600000   6.128906e-05  1.496315e-08
    757    759   2   0.50000     0.0600000    0.0600000   6.128906e-05  1.496315e-08
    730    733   2   0.50000    -0.1200000   -0.3300000   1.026091e-03  1.187829e-06
    730    760   2   0.50000    -0.1200000    0.0300000   1.599888e-04  9.721644e-08
    730    761   2   0.50000    -0.1200000    0.0300000   1.599888e-04  9.721644e-08
    758    733   2   0.50000     0.0600000   -0.3300000   2.521103e-04  1.063590e-07
    758    760   2   0.50000     0.0600000    0.0300000   3.930919e-05  8.704828e-09
    758    761   2   0.50000     0.0600000    0.0300000   3.930919e-05  8.704828e-09
    759    733   2   0.50000     0.0600000   -0.3300000   2.521103e-04  1.063590e-07
    759    760   2   0.50000     0.0600000    0.0300000   3.930919e-05  8.704828e-09
    759    761   2   0.50000     0.0600000    0.0300000   3.930919e-05  8.704828e-09
    731    734   2   0.50000    -0.1200000    0.5100000   1.575021e-03  3.561100e-06
    760    734   2   0.50000     0.0300000    0.5100000   2.482000e-04  1.854991e-07
    761    734   2   0.50000     0.0300000    0.5100000   2.482000e-04  1.854991e-07
    732    735   2   0.50000     0.1900000   -0.4300000   1.095425e-03  1.218041e-06
    732    736   2   0.50000     0.1900000   -0.1200000   1.015252e-03  1.866303e-06
    733    737   2   0.50000    -0.3300000   -0.1200000   1.026091e-03  1.187829e-06
    733    762   2   0.50000    -0.3300000    0.0600000   1.616969e-04  6.187447e-08
    733    763   2   0.50000    -0.3300000    0.0600000   1.616969e-04  6.187447e-08
    735    737   2   0.50000    -0.4300000   -0.1200000   1.095425e-03  1.218041e-06
    735    762   2   0.50000    -0.4300000    0.0600000   1.726228e-04  6.344822e-08
    735    763   2   0.50000    -0.4300000    0.0600000   1.726228e-04  6.344822e-08
    734    738   2   0.50000     0.5100000   -0.1200000   1.575021e-03  3.561100e-06
    734    764   2   0.50000     0.5100000    0.0600000   3.869820e-04  3.188634e-07
    734    765   2   0.50000     0.5100000    0.0600000   3.869820e-04  3.188634e-07
    762    738   2   0.50000     0.0600000   -0.1200000   1.599888e-04  9.721644e-08
    762    764   2   0.50000     0.0600000    0.0600000   3.930919e-05  8.704828e-09
    762    765   2   0.50000     0.0600000    0.0600000   3.930919e-05  8.704828e-09
    763    738   2   0.50000     0.0600000   -0.1200000   1.599888e-04  9.721644e-08
    763    764   2   0.50000     0.0600000    0.0600000   3.930919e-05  8.704828e-09
    763    765   2   0.50000     0.0600000    0.0600000   3.930919e-05  8.704828e-09
    736    739   2   0.50000    -0.1200000   -0.1200000   1.015252e-03  1.866303e-06
    736    766   2   0.50000    -0.1200000    0.0600000   2.494471e-04  1.671101e-07
    736    767   2   0.50000    -0.1200000    0.0600000   2.494471e-04  1.671101e-07
    764    739   2   0.50000     0.0600000   -0.1200000   2.494471e-04  1.671101e-07
    764    766   2   0.50000     0.0600000    0.0600000   6.128906e-05  1.496315e-08
    764    767   2   0.50000     0.0600000    0.0600000   6.128906e-05  1.496315e-08
    765    739   2   0.50000     0.0600000   -0.1200000   2.494471e-04  1.671101e-07
    765    766   2   0.50000     0.0600000    0.0600000   6.128906e-05  1.496315e-08
    765    767   2   0.50000     0.0600000    0.0600000   6.128906e-05  1.496315e-08
    737    740   2   0.50000    -0.1200000    0.5100000   1.575021e-03  3.561100e-06
    737    768   2   0.50000    -0.1200000    0.0600000   1.599888e-04  9.721644e-08
    737    769   2   0.50000    -0.1200000    0.0600000   1.599888e-04  9.721644e-08
    766    740   2   0.50000     0.0600000    0.5100000   3.869820e-04  3.188634e-07
    766    768   2   0.50000     0.0600000    0.0600000   3.930919e-05  8.704828e-09
    766    769   2   0.50000     0.0600000    0.0600000   3.930919e-05  8.704828e-09
    767    740   2   0.50000     0.0600000    0.5100000   3.869820e-04  3.188634e-07
    767    768   2   0.50000     0.0600000    0.0600000   3.930919e-05  8.704828e-09
    767    769   2   0.50000     0.0600000    0.0600000   3.930919e-05  8.704828e-09
    738    741   2   0.50000    -0.1200000   -0.4300000   1.095425e-03  1.218041e-06
    738    770   2   0.50000    -0.1200000   -0.3300000   1.026091e-03  1.187829e-06
    768    741   2   0.50000     0.0600000   -0.4300000   1.726228e-04  6.344822e-08
    768    770   2   0.50000     0.0600000   -0.3300000   1.616969e-04  6.187447e-08
    769    741   2   0.50000     0.0600000   -0.4300000   1.726228e-04  6.344822e-08
    769    770   2   0.50000     0.0600000   -0.3300000   1.616969e-04  6.187447e-08
    739    771   2   0.50000    -0.1200000    0.1900000   1.015252e-03  1.866303e-06
    741    771   2   0.50000    -0.4300000    0.1900000   1.095425e-03  1.218041e-06
    740    772   2   0.50000     0.5100000   -0.1200000   1.575021e-03  3.561100e-06
    740    790   2   0.50000     0.5100000    0.0300000   2.482000e-04  1.854991e-07
    740    791   2   0.50000     0.5100000    0.0300000   2.482000e-04  1.854991e-07
    770    773   2   0.50000    -0.3300000   -0.1200000   1.026091e-03  1.187829e-06
    770    792   2   0.50000    -0.3300000    0.0600000   2.521103e-04  1.063590e-07
    770    793   2   0.50000    -0.3300000    0.0600000   2.521103e-04  1.063590e-07
    790    773   2   0.50000     0.0300000   -0.1200000   1.599888e-04  9.721644e-08
    790    792   2   0.50000     0.0300000    0.0600000   3.930919e-05  8.704828e-09
    790    793   2   0.50000     0.0300000    0.0600000   3.930919e-05  8.704828e-09
    791    773   2   0.50000     0.0300000   -0.1200000   1.599888e-04  9.721644e-08
    791    792   2   0.50000     0.0300000    0.0600000   3.930919e-05  8.704828e-09
    791    793   2   0.50000     0.0300000    0.0600000   3.930919e-05  8.704828e-09
    771    774   2   0.50000     0.1900000   -0.1200000   1.015252e-03  1.866303e-06
    771    794   2   0.50000     0.1900000    0.0600000   2.494471e-04  1.671101e-07
    771    795   2   0.50000     0.1900000    0.0600000   2.494471e-04  1.671101e-07
    792    774   2   0.50000     0.0600000   -0.1200000   2.494471e-04  1.671101e-07
    792    794   2   0.50000     0.0600000    0.0600000   6.128906e-05  1.496315e-08
    792    795   2   0.50000     0.0600000    0.0600000   6.128906e-05  1.496315e-08
    793    774   2   0.50000     0.0600000   -0.1200000   2.494471e-04  1.671101e-07
    793    794   2   0.50000     0.0600000    0.0600000   6.128906e-05  1.496315e-08
    793    795   2   0.50000     0.0600000    0.0600000   6.128906e-05  1.496315e-08
    772    775   2   0.50000    -0.1200000   -0.1200000   1.015252e-03  1.866303e-06
    772    796   2   0.50000    -0.1200000    0.0600000   2.494471e-04  1.671101e-07
    772    797   2   0.50000    -0.1200000    0.0600000   2.494471e-04  1.671101e-07
    794    775   2   0.50000     0.0600000   -0.1200000   2.494471e-04  1.671101e-07
    794    796   2   0.50000     0.0600000    0.0600000   6.128906e-05  1.496315e-08
    794    797   2   0.50000     0.0600000    0.0600000   6.128906e-05  1.496315e-08
    795    775   2   0.50000     0.0600000   -0.1200000   2.494471e-04  1.671101e-07
    795    796   2   0.50000     0.0600000    0.0600000   6.128906e-05  1.496315e-08
    795    797   2   0.50000     0.0600000    0.0600000   6.128906e-05  1.496315e-08
    773    776   2   0.50000    -0.1200000   -0.1200000   1.015252e-03  1.866303e-06
    773    798   2   0.50000    -0.1200000    0.0600000   2.494471e-04  1.671101e-07
    773    799   2   0.50000    -0.1200000    0.0600000   2.494471e-04  1.671101e-07
    796    776   2   0.50000     0.0600000   -0.1200000   2.494471e-04  1.671101e-07
    796    798   2   0.50000     0.0600000    0.0600000   6.128906e-05  1.496315e-08
    796    799   2   0.50000     0.0600000    0.0600000   6.128906e-05  1.496315e-08
    797    776   2   0.50000     0.0600000   -0.1200000   2.494471e-04  1.671101e-07
    797    798   2   0.50000     0.0600000    0.0600000   6.128906e-05  1.496315e-08
    797    799   2   0.50000     0.0600000    0.0600000   6.128906e-05  1.496315e-08
    774    777   2   0.50000    -0.1200000   -0.1200000   1.015252e-03  1.866303e-06
    774    800   2   0.50000    -0.1200000    0.0600000   2.494471e-04  1.671101e-07
    774    801   2   0.50000    -0.1200000    0.0600000   2.494471e-04  1.671101e-07
    798    777   2   0.50000     0.0600000   -0.1200000   2.494471e-04  1.671101e-07
    798    800   2   0.50000     0.0600000    0.0600000   6.128906e-05  1.496315e-08
    798    801   2   0.50000     0.0600000    0.0600000   6.128906e-05  1.496315e-08
    799    777   2   0.50000     0.0600000   -0.1200000   2.494471e-04  1.671101e-07
    799    800   2   0.50000     0.0600000    0.0600000   6.128906e-05  1.496315e-08
    799    801   2   0.50000     0.0600000    0.0600000   6.128906e-05  1.496315e-08
    775    778   2   0.50000    -0.1200000   -0.1200000   1.015252e-03  1.866303e-06
    775    802   2   0.50000    -0.1200000    0.0600000   2.494471e-04  1.671101e-07
    775    803   2   0.50000    -0.1200000    0.0600000   2.494471e-04  1.671101e-07
    800    778   2   0.50000     0.0600000   -0.1200000   2.494471e-04  1.671101e-07
    800    802   2   0.50000     0.0600000    0.0600000   6.128906e-05  1.496315e-08
    800    803   2   0.50000     0.0600000    0.0600000   6.128906e-05  1.496315e-08
    801    778   2   0.50000     0.0600000   -0.1200000   2.494471e-04  1.671101e-07
    801    802   2   0.50000     0.0600000    0.0600000   6.128906e-05  1.496315e-08
    801    803   2   0.50000     0.0600000    0.0600000   6.128906e-05  1.496315e-08
    776    779   2   0.50000    -0.1200000   -0.1200000   1.015252e-03  1.866303e-06
    776    804   2   0.50000    -0.1200000    0.0600000   2.494471e-04  1.671101e-07
    776    805   2   0.50000    -0.1200000    0.0600000   2.494471e-04  1.671101e-07
    802    779   2   0.50000     0.0600000   -0.1200000   2.494471e-04  1.671101e-07
    802    804   2   0.50000     0.0600000    0.0600000   6.128906e-05  1.496315e-08
    802    805   2   0.50000     0.0600000    0.0600000   6.128906e-05  1.496315e-08
    803    779   2   0.50000     0.0600000   -0.1200000   2.494471e-04  1.671101e-07
    803    804   2   0.50000     0.0600000    0.0600000   6.128906e-05  1.496315e-08
    803    805   2   0.50000     0.0600000    0.0600000   6.128906e-05  1.496315e-08
    777    780   2   0.50000    -0.1200000    0.1900000   1.015252e-03  1.866303e-06
    777    806   2   0.50000    -0.1200000    0.0600000   2.494471e-04  1.671101e-07
    777    807   2   0.50000    -0.1200000    0.0600000   2.494471e-04  1.671101e-07
    804    780   2   0.50000     0.0600000    0.1900000   2.494471e-04  1.671101e-07
    804    806   2   0.50000     0.0600000    0.0600000   6.128906e-05  1.496315e-08
    804    807   2   0.50000     0.0600000    0.0600000   6.128906e-05  1.496315e-08
    805    780   2   0.50000     0.0600000    0.1900000   2.494471e-04  1.671101e-07
    805    806   2   0.50000     0.0600000    0.0600000   6.128906e-05  1.496315e-08
    805    807   2   0.50000     0.0600000    0.0600000   6.128906e-05  1.496315e-08
    778    781   2   0.50000    -0.1200000   -0.3300000   1.026091e-03  1.187829e-06
    778    808   2   0.50000    -0.1200000    0.0300000   1.599888e-04  9.721644e-08
    778    809   2   0.50000    -0.1200000    0.0300000   1.599888e-04  9.721644e-08
    806    781   2   0.50000     0.0600000   -0.3300000   2.521103e-04  1.063590e-07
    806    808   2   0.50000     0.0600000    0.0300000   3.930919e-05  8.704828e-09
    806    809   2   0.50000     0.0600000    0.0300000   3.930919e-05  8.704828e-09
    807    781   2   0.50000     0.0600000   -0.3300000   2.521103e-04  1.063590e-07
    807    808   2   0.50000     0.0600000    0.0300000   3.930919e-05  8.704828e-09
    807    809   2   0.50000     0.0600000    0.0300000   3.930919e-05  8.704828e-09
    779    782   2   0.50000    -0.1200000    0.5100000   1.575021e-03  3.561100e-06
    808    782   2   0.50000     0.0300000    0.5100000   2.482000e-04  1.854991e-07
    809    782   2   0.50000     0.0300000    0.5100000   2.482000e-04  1.854991e-07
    780    783   2   0.50000     0.1900000   -0.4300000   1.095425e-03  1.218041e-06
    780    784   2   0.50000     0.1900000   -0.1200000   1.015252e-03  1.866303e-06
    781    785   2   0.50000    -0.3300000   -0.1200000   1.026091e-03  1.187829e-06
    781    810   2   0.50000    -0.3300000    0.0600000   1.616969e-04  6.187447e-08
    781    811   2   0.50000    -0.3300000    0.0600000   1.616969e-04  6.187447e-08
    783    785   2   0.50000    -0.4300000   -0.1200000   1.095425e-03  1.218041e-06
    783    810   2   0.50000    -0.4300000    0.0600000   1.726228e-04  6.344822e-08
    783    811   2   0.50000    -0.4300000    0.0600000   1.726228e-04  6.344822e-08
    782    786   2   0.50000     0.5100000   -0.1200000   1.575021e-03  3.561100e-06
    782    812   2   0.50000     0.5100000    0.0600000   3.869820e-04  3.188634e-07
    782    813   2   0.50000     0.5100000    0.0600000   3.869820e-04  3.188634e-07
    810    786   2   0.50000     0.0600000   -0.1200000   1.599888e-04  9.721644e-08
    810    812   2   0.50000     0.0600000    0.0600000   3.930919e-05  8.704828e-09
    810    813   2   0.50000     0.0600000    0.0600000   3.930919e-05  8.704828e-09
    811    786   2   0.50000     0.0600000   -0.1200000   1.599888e-04  9.721644e-08
    811    812   2   0.50000     0.0600000    0.0600000   3.930919e-05  8.704828e-09
    811    813   2   0.50000     0.0600000    0.0600000   3.930919e-05  8.704828e-09
    784    787   2   0.50000    -0.1200000   -0.1200000   1.015252e-03  1.866303e-06
    784    814   2   0.50000    -0.1200000    0.0600000   2.494471e-04  1.671101e-07
    784    815   2   0.50000    -0.1200000    0.0600000   2.494471e-04  1.671101e-07
    812    787   2   0.50000     0.0600000   -0.1200000   2.494471e-04  1.671101e-07
    812    814   2   0.50000     0.0600000    0.0600000   6.128906e-05  1.496315e-08
    812    815   2   0.50000     0.0600000    0.0600000   6.128906e-05  1.496315e-08
    813    787   2   0.50000     0.0600000   -0.1200000   2.494471e-04  1.671101e-07
    813    814   2   0.50000     0.0600000    0.0600000   6.128906e-05  1.496315e-08
    813    815   2   0.50000     0.0600000    0.0600000   6.128906e-05  1.496315e-08
    785    788   2   0.50000    -0.1200000    0.5100000   1.575021e-03  3.561100e-06
    785    816   2   0.50000    -0.1200000    0.0600000   1.599888e-04  9.721644e-08
    785    817   2   0.50000    -0.1200000    0.0600000   1.599888e-04  9.721644e-08
    814    788   2   0.50000     0.0600000    0.5100000   3.869820e-04  3.188634e-07
    814    816   2   0.50000     0.0600000    0.0600000   3.930919e-05  8.704828e-09
    814    817   2   0.50000     0.0600000    0.0600000   3.930919e-05  8.704828e-09
    815    788   2   0.50000     0.0600000    0.5100000   3.869820e-04  3.188634e-07
    815    816   2   0.50000     0.0600000    0.0600000   3.930919e-05  8.704828e-09
    815    817   2   0.50000     0.0600000    0.0600000   3.930919e-05  8.704828e-09
    786    789   2   0.50000    -0.1200000   -0.4300000   1.095425e-03  1.218041e-06
    786    818   2   0.50000    -0.1200000   -0.3300000   1.026091e-03  1.187829e-06
    816    789   2   0.50000     0.0600000   -0.4300000   1.726228e-04  6.344822e-08
    816    818   2   0.50000     0.0600000   -0.3300000   1.616969e-04  6.187447e-08
    817    789   2   0.50000     0.0600000   -0.4300000   1.726228e-04  6.344822e-08
    817    818   2   0.50000     0.0600000   -0.3300000   1.616969e-04  6.187447e-08
    787    819   2   0.50000    -0.1200000    0.1900000   1.015252e-03  1.866303e-06
    789    819   2   0.50000    -0.4300000    0.1900000   1.095425e-03  1.218041e-06
    788    820   2   0.50000     0.5100000   -0.1200000   1.575021e-03  3.561100e-06
    788    838   2   0.50000     0.5100000    0.0300000   2.482000e-04  1.854991e-07
    788    839   2   0.50000     0.5100000    0.0300000   2.482000e-04  1.854991e-07
    818    821   2   0.50000    -0.3300000   -0.1200000   1.026091e-03  1.187829e-06
    818    840   2   0.50000    -0.3300000    0.0600000   2.521103e-04  1.063590e-07
    818    841   2   0.50000    -0.3300000    0.0600000   2.521103e-04  1.063590e-07
    838    821   2   0.50000     0.0300000   -0.1200000   1.599888e-04  9.721644e-08
    838    840   2   0.50000     0.0300000    0.0600000   3.930919e-05  8.704828e-09
    838    841   2   0.50000     0.0300000    0.0600000   3.930919e-05  8.704828e-09
    839    821   2   0.50000     0.0300000   -0.1200000   1.599888e-04  9.721644e-08
    839    840   2   0.50000     0.0300000    0.0600000   3.930919e-05  8.704828e-09
    839    841   2   0.50000     0.0300000    0.0600000   3.930919e-05  8.704828e-09
    819    822   2   0.50000     0.1900000   -0.1200000   1.015252e-03  1.866303e-06
    819    842   2   0.50000     0.1900000    0.0600000   2.494471e-04  1.671101e-07
    819    843   2   0.50000     0.1900000    0.0600000   2.494471e-04  1.671101e-07
    840    822   2   0.50000     0.0600000   -0.1200000   2.494471e-04  1.671101e-07
    840    842   2   0.50000     0.0600000    0.0600000   6.128906e-05  1.496315e-08
    840    843   2   0.50000     0.0600000    0.0600000   6.128906e-05  1.496315e-08
    841    822   2   0.50000     0.0600000   -0.1200000   2.494471e-04  1.671101e-07
    841    842   2   0.50000     0.0600000    0.0600000   6.128906e-05  1.496315e-08
    841    843   2   0.50000     0.0600000    0.0600000   6.128906e-05  1.496315e-08
    820    823   2   0.50000    -0.1200000   -0.1200000   1.015252e-03  1.866303e-06
    820    844   2   0.50000    -0.1200000    0.0600000   2.494471e-04  1.671101e-07
    820    845   2   0.50000    -0.1200000    0.0600000   2.494471e-04  1.671101e-07
    842    823   2   0.50000     0.0600000   -0.1200000   2.494471e-04  1.671101e-07
    842    844   2   0.50000     0.0600000    0.0600000   6.128906e-05  1.496315e-08
    842    845   2   0.50000     0.0600000    0.0600000   6.128906e-05  1.496315e-08
    843    823   2   0.50000     0.0600000   -0.1200000   2.494471e-04  1.671101e-07
    843    844   2   0.50000     0.0600000    0.0600000   6.128906e-05  1.496315e-08
    843    845   2   0.50000     0.0600000    0.0600000   6.128906e-05  1.496315e-08
    821    824   2   0.50000    -0.1200000   -0.1200000   1.015252e-03  1.866303e-06
    821    846   2   0.50000    -0.1200000    0.0600000   2.494471e-04  1.671101e-07
    821    847   2   0.50000    -0.1200000    0.0600000   2.494471e-04  1.671101e-07
    844    824   2   0.50000     0.0600000   -0.1200000   2.494471e-04  1.671101e-07
    844    846   2   0.50000     0.0600000    0.0600000   6.128906e-05  1.496315e-08
    844    847   2   0.50000     0.0600000    0.0600000   6.128906e-05  1.496315e-08
    845    824   2   0.50000     0.0600000   -0.1200000   2.494471e-04  1.671101e-07
    845    846   2   0.50000     0.0600000    0.0600000   6.128906e-05  1.496315e-08
    845    847   2   0.50000     0.0600000    0.0600000   6.128906e-05  1.496315e-08
    822    825   2   0.50000    -0.1200000   -0.1200000   1.015252e-03  1.866303e-06
    822    848   2   0.50000    -0.1200000    0.0600000   2.494471e-04  1.671101e-07
    822    849   2   0.50000    -0.1200000    0.0600000   2.494471e-04  1.671101e-07
    846    825   2   0.50000     0.0600000   -0.1200000   2.494471e-04  1.671101e-07
    846    848   2   0.50000     0.0600000    0.0600000   6.128906e-05  1.496315e-08
    846    849   2   0.50000     0.0600000    0.0600000   6.128906e-05  1.496315e-08
    847    825   2   0.50000     0.0600000   -0.1200000   2.494471e-04  1.671101e-07
    847    848   2   0.50000     0.0600000    0.0600000   6.128906e-05  1.496315e-08
    847    849   2   0.50000     0.0600000    0.0600000   6.128906e-05  1.496315e-08
    823    826   2   0.50000    -0.1200000   -0.1200000   1.015252e-03  1.866303e-06
    823    850   2   0.50000    -0.1200000    0.0600000   2.494471e-04  1.671101e-07
    823    851   2   0.50000    -0.1200000    0.0600000   2.494471e-04  1.671101e-07
    848    826   2   0.50000     0.0600000   -0.1200000   2.494471e-04  1.671101e-07
    848    850   2   0.50000     0.0600000    0.0600000   6.128906e-05  1.496315e-08
    848    851   2   0.50000     0.0600000    0.0600000   6.128906e-05  1.496315e-08
    849    826   2   0.50000     0.0600000   -0.1200000   2.494471e-04  1.671101e-07
    849    850   2   0.50000     0.0600000    0.0600000   6.128906e-05  1.496315e-08
    849    851   2   0.50000     0.0600000    0.0600000   6.128906e-05  1.496315e-08
    824    827   2   0.50000    -0.1200000   -0.1200000   1.015252e-03  1.866303e-06
    824    852   2   0.50000    -0.1200000    0.0600000   2.494471e-04  1.671101e-07
    824    853   2   0.50000    -0.1200000    0.0600000   2.494471e-04  1.671101e-07
    850    827   2   0.50000     0.0600000   -0.1200000   2.494471e-04  1.671101e-07
    850    852   2   0.50000     0.0600000    0.0600000   6.128906e-05  1.496315e-08
    850    853   2   0.50000     0.0600000    0.0600000   6.128906e-05  1.496315e-08
    851    827   2   0.50000     0.0600000   -0.1200000   2.494471e-04  1.671101e-07
    851    852   2   0.50000     0.0600000    0.0600000   6.128906e-05  1.496315e-08
    851    853   2   0.50000     0.0600000    0.0600000   6.128906e-05  1.496315e-08
    825    828   2   0.50000    -0.1200000    0.1900000   1.015252e-03  1.866303e-06
    825    854   2   0.50000    -0.1200000    0.0600000   2.494471e-04  1.671101e-07
    825    855   2   0.50000    -0.1200000    0.0600000   2.494471e-04  1.671101e-07
    852    828   2   0.50000     0.0600000    0.1900000   2.494471e-04  1.671101e-07
    852    854   2   0.50000     0.0600000    0.0600000   6.128906e-05  1.496315e-08
    852    855   2   0.50000     0.0600000    0.0600000   6.128906e-05  1.496315e-08
    853    828   2   0.50000     0.0600000    0.1900000   2.494471e-04  1.671101e-07
    853    854   2   0.50000     0.0600000    0.0600000   6.128906e-05  1.496315e-08
    853    855   2   0.50000     0.0600000    0.0600000   6.128906e-05  1.496315e-08
    826    829   2   0.50000    -0.1200000   -0.3300000   1.026091e-03  1.187829e-06
    826    856   2   0.50000    -0.1200000    0.0300000   1.599888e-04  9.721644e-08
    826    857   2   0.50000    -0.1200000    0.0300000   1.599888e-04  9.721644e-08
    854    829   2   0.50000     0.0600000   -0.3300000   2.521103e-04  1.063590e-07
    854    856   2   0.50000     0.0600000    0.0300000   3.930919e-05  8.704828e-09
    854    857   2   0.50000     0.0600000    0.0300000   3.930919e-05  8.704828e-09
    855    829   2   0.50000     0.0600000   -0.3300000   2.521103e-04  1.063590e-07
    855    856   2   0.50000     0.0600000    0.0300000   3.930919e-05  8.704828e-09
    855    857   2   0.50000     0.0600000    0.0300000   3.930919e-05  8.704828e-09
    827    830   2   0.50000    -0.1200000    0.5100000   1.575021e-03  3.561100e-06
    856    830   2   0.50000     0.0300000    0.5100000   2.482000e-04  1.854991e-07
    857    830   2   0.50000     0.0300000    0.5100000   2.482000e-04  1.854991e-07
    828    831   2   0.50000     0.1900000   -0.4300000   1.095425e-03  1.218041e-06
    828    832   2   0.50000     0.1900000   -0.1200000   1.015252e-03  1.866303e-06
    829    833   2   0.50000    -0.3300000   -0.1200000   1.026091e-03  1.187829e-06
    829    858   2   0.50000    -0.3300000    0.0600000   1.616969e-04  6.187447e-08
    829    859   2   0.50000    -0.3300000    0.0600000   1.616969e-04  6.187447e-08
    831    833   2   0.50000    -0.4300000   -0.1200000   1.095425e-03  1.218041e-06
    831    858   2   0.50000    -0.4300000    0.0600000   1.726228e-04  6.344822e-08
    831    859   2   0.50000    -0.4300000    0.0600000   1.726228e-04  6.344822e-08
    830    834   2   0.50000     0.5100000   -0.1200000   1.575021e-03  3.561100e-06
    830    860   2   0.50000     0.5100000    0.0600000   3.869820e-04  3.188634e-07
    830    861   2   0.50000     0.5100000    0.0600000   3.869820e-04  3.188634e-07
    858    834   2   0.50000     0.0600000   -0.1200000   1.599888e-04  9.721644e-08
    858    860   2   0.50000     0.0600000    0.0600000   3.930919e-05  8.704828e-09
    858    861   2   0.50000     0.0600000    0.0600000   3.930919e-05  8.704828e-09
    859    834   2   0.50000     0.0600000   -0.1200000   1.599888e-04  9.721644e-08
    859    860   2   0.50000     0.0600000    0.0600000   3.930919e-05  8.704828e-09
    859    861   2   0.50000     0.0600000    0.0600000   3.930919e-05  8.704828e-09
    832    835   2   0.50000    -0.1200000   -0.1200000   1.015252e-03  1.866303e-06
    832    862   2   0.50000    -0.1200000    0.0600000   2.494471e-04  1.671101e-07
    832    863   2   0.50000    -0.1200000    0.0600000   2.494471e-04  1.671101e-07
    860    835   2   0.50000     0.0600000   -0.1200000   2.494471e-04  1.671101e-07
    860    862   2   0.50000     0.0600000    0.0600000   6.128906e-05  1.496315e-08
    860    863   2   0.50000     0.0600000    0.0600000   6.128906e-05  1.496315e-08
    861    835   2   0.50000     0.0600000   -0.1200000   2.494471e-04  1.671101e-07
    861    862   2   0.50000     0.0600000    0.0600000   6.128906e-05  1.496315e-08
    861    863   2   0.50000     0.0600000    0.0600000   6.128906e-05  1.496315e-08
    833    836   2   0.50000    -0.1200000    0.5100000   1.575021e-03  3.561100e-06
    833    864   2   0.50000    -0.1200000    0.0600000   1.599888e-04  9.721644e-08
    833    865   2   0.50000    -0.1200000    0.0600000   1.599888e-04  9.721644e-08
    862    836   2   0.50000     0.0600000    0.5100000   3.869820e-04  3.188634e-07
    862    864   2   0.50000     0.0600000    0.0600000   3.930919e-05  8.704828e-09
    862    865   2   0.50000     0.0600000    0.0600000   3.930919e-05  8.704828e-09
    863    836   2   0.50000     0.0600000    0.5100000   3.869820e-04  3.188634e-07
    863    864   2   0.50000     0.0600000    0.0600000   3.930919e-05  8.704828e-09
    863    865   2   0.50000     0.0600000    0.0600000   3.930919e-05  8.704828e-09
    834    837   2   0.50000    -0.1200000   -0.4300000   1.095425e-03  1.218041e-06
    834    866   2   0.50000    -0.1200000   -0.3300000   1.026091e-03  1.187829e-06
    864    837   2   0.50000     0.0600000   -0.4300000   1.726228e-04  6.344822e-08
    864    866   2   0.50000     0.0600000   -0.3300000   1.616969e-04  6.187447e-08
    865    837   2   0.50000     0.0600000   -0.4300000   1.726228e-04  6.344822e-08
    865    866   2   0.50000     0.0600000   -0.3300000   1.616969e-04  6.187447e-08
    835    867   2   0.50000    -0.1200000    0.1900000   1.015252e-03  1.866303e-06
    837    867   2   0.50000    -0.4300000    0.1900000   1.095425e-03  1.218041e-06
    836    868   2   0.50000     0.5100000   -0.1200000   1.575021e-03  3.561100e-06
    836    886   2   0.50000     0.5100000    0.0300000   2.482000e-04  1.854991e-07
    836    887   2   0.50000     0.5100000    0.0300000   2.482000e-04  1.854991e-07
    866    869   2   0.50000    -0.3300000   -0.1200000   1.026091e-03  1.187829e-06
    866    888   2   0.50000    -0.3300000    0.0600000   2.521103e-04  1.063590e-07
    866    889   2   0.50000    -0.3300000    0.0600000   2.521103e-04  1.063590e-07
    886    869   2   0.50000     0.0300000   -0.1200000   1.599888e-04  9.721644e-08
    886    888   2   0.50000     0.0300000    0.0600000   3.930919e-05  8.704828e-09
    886    889   2   0.50000     0.0300000    0.0600000   3.930919e-05  8.704828e-09
    887    869   2   0.50000     0.0300000   -0.1200000   1.599888e-04  9.721644e-08
    887    888   2   0.50000     0.0300000    0.0600000   3.930919e-05  8.704828e-09
    887    889   2   0.50000     0.0300000    0.0600000   3.930919e-05  8.704828e-09
    867    870   2   0.50000     0.1900000   -0.1200000   1.015252e-03  1.866303e-06
    867    890   2   0.50000     0.1900000    0.0600000   2.494471e-04  1.671101e-07
    867    891   2   0.50000     0.1900000    0.0600000   2.494471e-04  1.671101e-07
    888    870   2   0.50000     0.0600000   -0.1200000   2.494471e-04  1.671101e-07
    888    890   2   0.50000     0.0600000    0.0600000   6.128906e-05  1.496315e-08
    888    891   2   0.50000     0.0600000    0.0600000   6.128906e-05  1.496315e-08
    889    870   2   0.50000     0.0600000   -0.1200000   2.494471e-04  1.671101e-07
    889    890   2   0.50000     0.0600000    0.0600000   6.128906e-05  1.496315e-08
    889    891   2   0.50000     0.0600000    0.0600000   6.128906e-05  1.496315e-08
    868    871   2   0.50000    -0.1200000   -0.1200000   1.015252e-03  1.866303e-06
    868    892   2   0.50000    -0.1200000    0.0600000   2.494471e-04  1.671101e-07
    868    893   2   0.50000    -0.1200000    0.0600000   2.494471e-04  1.671101e-07
    890    871   2   0.50000     0.0600000   -0.1200000   2.494471e-04  1.671101e-07
    890    892   2   0.50000     0.0600000    0.0600000   6.128906e-05  1.496315e-08
    890    893   2   0.50000     0.0600000    0.0600000   6.128906e-05  1.496315e-08
    891    871   2   0.50000     0.0600000   -0.1200000   2.494471e-04  1.671101e-07
    891    892   2   0.50000     0.0600000    0.0600000   6.128906e-05  1.496315e-08
    891    893   2   0.50000     0.0600000    0.0600000   6.128906e-05  1.496315e-08
    869    872   2   0.50000    -0.1200000   -0.1200000   1.015252e-03  1.866303e-06
    869    894   2   0.50000    -0.1200000    0.0600000   2.494471e-04  1.671101e-07
    869    895   2   0.50000    -0.1200000    0.0600000   2.494471e-04  1.671101e-07
    892    872   2   0.50000     0.0600000   -0.1200000   2.494471e-04  1.671101e-07
    892    894   2   0.50000     0.0600000    0.0600000   6.128906e-05  1.496315e-08
    892    895   2   0.50000     0.0600000    0.0600000   6.128906e-05  1.496315e-08
    893    872   2   0.50000     0.0600000   -0.1200000   2.494471e-04  1.671101e-07
    893    894   2   0.50000     0.0600000    0.0600000   6.128906e-05  1.496315e-08
    893    895   2   0.50000     0.0600000    0.0600000   6.128906e-05  1.496315e-08
    870    873   2   0.50000    -0.1200000   -0.1200000   1.015252e-03  1.866303e-06
    870    896   2   0.50000    -0.1200000    0.0600000   2.494471e-04  1.671101e-07
    870    897   2   0.50000    -0.1200000    0.0600000   2.494471e-04  1.671101e-07
    894    873   2   0.50000     0.0600000   -0.1200000   2.494471e-04  1.671101e-07
    894    896   2   0.50000     0.0600000    0.0600000   6.128906e-05  1.496315e-08
    894    897   2   0.50000     0.0600000    0.0600000   6.128906e-05  1.496315e-08
    895    873   2   0.50000     0.0600000   -0.1200000   2.494471e-04  1.671101e-07
    895    896   2   0.50000     0.0600000    0.0600000   6.128906e-05  1.496315e-08
    895    897   2   0.50000     0.0600000    0.0600000   6.128906e-05  1.496315e-08
    871    874   2   0.50000    -0.1200000   -0.1200000   1.015252e-03  1.866303e-06
    871    898   2   0.50000    -0.1200000    0.0600000   2.494471e-04  1.671101e-07
    871    899   2   0.50000    -0.1200000    0.0600000   2.494471e-04  1.671101e-07
    896    874   2   0.50000     0.0600000   -0.1200000   2.494471e-04  1.671101e-07
    896    898   2   0.50000     0.0600000    0.0600000   6.128906e-05  1.496315e-08
    896    899   2   0.50000     0.0600000    0.0600000   6.128906e-05  1.496315e-08
    897    874   2   0.50000     0.0600000   -0.1200000   2.494471e-04  1.671101e-07
    897    898   2   0.50000     0.0600000    0.0600000   6.128906e-05  1.496315e-08
    897    899   2   0.50000     0.0600000    0.0600000   6.128906e-05  1.496315e-08
    872    875   2   0.50000    -0.1200000   -0.1200000   1.015252e-03  1.866303e-06
    872    900   2   0.50000    -0.1200000    0.0600000   2.494471e-04  1.671101e-07
    872    901   2   0.50000    -0.1200000    0.0600000   2.494471e-04  1.671101e-07
    898    875   2   0.50000     0.0600000   -0.1200000   2.494471e-04  1.671101e-07
    898    900   2   0.50000     0.0600000    0.0600000   6.128906e-05  1.496315e-08
    898    901   2   0.50000     0.0600000    0.0600000   6.128906e-05  1.496315e-08
    899    875   2   0.50000     0.0600000   -0.1200000   2.494471e-04  1.671101e-07
    899    900   2   0.50000     0.0600000    0.0600000   6.128906e-05  1.496315e-08
    899    901   2   0.50000     0.0600000    0.0600000   6.128906e-05  1.496315e-08
    873    876   2   0.50000    -0.1200000    0.1900000   1.015252e-03  1.866303e-06
    873    902   2   0.50000    -0.1200000    0.0600000   2.494471e-04  1.671101e-07
    873    903   2   0.50000    -0.1200000    0.0600000   2.494471e-04  1.671101e-07
    900    876   2   0.50000     0.0600000    0.1900000   2.494471e-04  1.671101e-07
    900    902   2   0.50000     0.0600000    0.0600000   6.128906e-05  1.496315e-08
    900    903   2   0.50000     0.0600000    0.0600000   6.128906e-05  1.496315e-08
    901    876   2   0.50000     0.0600000    0.1900000   2.494471e-04  1.671101e-07
    901    902   2   0.50000     0.0600000    0.0600000   6.128906e-05  1.496315e-08
    901    903   2   0.50000     0.0600000    0.0600000   6.128906e-05  1.496315e-08
    874    877   2   0.50000    -0.1200000   -0.3300000   1.026091e-03  1.187829e-06
    874    904   2   0.50000    -0.1200000    0.0300000   1.599888e-04  9.721644e-08
    874    905   2   0.50000    -0.1200000    0.0300000   1.599888e-04  9.721644e-08
    902    877   2   0.50000     0.0600000   -0.3300000   2.521103e-04  1.063590e-07
    902    904   2   0.50000     0.0600000    0.0300000   3.930919e-05  8.704828e-09
    902    905   2   0.50000     0.0600000    0.0300000   3.930919e-05  8.704828e-09
    903    877   2   0.50000     0.0600000   -0.3300000   2.521103e-04  1.063590e-07
    903    904   2   0.50000     0.0600000    0.0300000   3.930919e-05  8.704828e-09
    903    905   2   0.50000     0.0600000    0.0300000   3.930919e-05  8.704828e-09
    875    878   2   0.50000    -0.1200000    0.5100000   1.575021e-03  3.561100e-06
    904    878   2   0.50000     0.0300000    0.5100000   2.482000e-04  1.854991e-07
    905    878   2   0.50000     0.0300000    0.5100000   2.482000e-04  1.854991e-07
    876    879   2   0.50000     0.1900000   -0.4300000   1.095425e-03  1.218041e-06
    876    880   2   0.50000     0.1900000   -0.1200000   1.015252e-03  1.866303e-06
    877    881   2   0.50000    -0.3300000   -0.1200000   1.026091e-03  1.187829e-06
    877    906   2   0.50000    -0.3300000    0.0600000   1.616969e-04  6.187447e-08
    877    907   2   0.50000    -0.3300000    0.0600000   1.616969e-04  6.187447e-08
    879    881   2   0.50000    -0.4300000   -0.1200000   1.095425e-03  1.218041e-06
    879    906   2   0.50000    -0.4300000    0.0600000   1.726228e-04  6.344822e-08
    879    907   2   0.50000    -0.4300000    0.0600000   1.726228e-04  6.344822e-08
    878    882   2   0.50000     0.5100000   -0.1200000   1.575021e-03  3.561100e-06
    878    908   2   0.50000     0.5100000    0.0600000   3.869820e-04  3.188634e-07
    878    909   2   0.50000     0.5100000    0.0600000   3.869820e-04  3.188634e-07
    906    882   2   0.50000     0.0600000   -0.1200000   1.599888e-04  9.721644e-08
    906    908   2   0.50000     0.0600000    0.0600000   3.930919e-05  8.704828e-09
    906    909   2   0.50000     0.0600000    0.0600000   3.930919e-05  8.704828e-09
    907    882   2   0.50000     0.0600000   -0.1200000   1.599888e-04  9.721644e-08
    907    908   2   0.50000     0.0600000    0.0600000   3.930919e-05  8.704828e-09
    907    909   2   0.50000     0.0600000    0.0600000   3.930919e-05  8.704828e-09
    880    883   2   0.50000    -0.1200000   -0.1200000   1.015252e-03  1.866303e-06
    880    910   2   0.50000    -0.1200000    0.0600000   2.494471e-04  1.671101e-07
    880    911   2   0.50000    -0.1200000    0.0600000   2.494471e-04  1.671101e-07
    908    883   2   0.50000     0.0600000   -0.1200000   2.494471e-04  1.671101e-07
    908    910   2   0.50000     0.0600000    0.0600000   6.128906e-05  1.496315e-08
    908    911   2   0.50000     0.0600000    0.0600000   6.128906e-05  1.496315e-08
    909    883   2   0.50000     0.0600000   -0.1200000   2.494471e-04  1.671101e-07
    909    910   2   0.50000     0.0600000    0.0600000   6.128906e-05  1.496315e-08
    909    911   2   0.50000     0.0600000    0.0600000   6.128906e-05  1.496315e-08
    881    884   2   0.50000    -0.1200000    0.5100000   1.575021e-03  3.561100e-06
    881    912   2   0.50000    -0.1200000    0.0600000   1.599888e-04  9.721644e-08
    881    913   2   0.50000    -0.1200000    0.0600000   1.599888e-04  9.721644e-08
    910    884   2   0.50000     0.0600000    0.5100000   3.869820e-04  3.188634e-07
    910    912   2   0.50000     0.0600000    0.0600000   3.930919e-05  8.704828e-09
    910    913   2   0.50000     0.0600000    0.0600000   3.930919e-05  8.704828e-09
    911    884   2   0.50000     0.0600000    0.5100000   3.869820e-04  3.188634e-07
    911    912   2   0.50000     0.0600000    0.0600000   3.930919e-05  8.704828e-09
    911    913   2   0.50000     0.0600000    0.0600000   3.930919e-05  8.704828e-09
    882    885   2   0.50000    -0.1200000   -0.4300000   1.095425e-03  1.218041e-06
    882    914   2   0.50000    -0.1200000   -0.3300000   1.026091e-03  1.187829e-06
    912    885   2   0.50000     0.0600000   -0.4300000   1.726228e-04  6.344822e-08
    912    914   2   0.50000     0.0600000   -0.3300000   1.616969e-04  6.187447e-08
    913    885   2   0.50000     0.0600000   -0.4300000   1.726228e-04  6.344822e-08
    913    914   2   0.50000     0.0600000   -0.3300000   1.616969e-04  6.187447e-08
    883    915   2   0.50000    -0.1200000    0.1900000   1.015252e-03  1.866303e-06
    885    915   2   0.50000    -0.4300000    0.1900000   1.095425e-03  1.218041e-06
    884    916   2   0.50000     0.5100000   -0.1200000   1.575021e-03  3.561100e-06
    884    934   2   0.50000     0.5100000    0.0300000   2.482000e-04  1.854991e-07
    884    935   2   0.50000     0.5100000    0.0300000   2.482000e-04  1.854991e-07
    914    917   2   0.50000    -0.3300000   -0.1200000   1.026091e-03  1.187829e-06
    914    936   2   0.50000    -0.3300000    0.0600000   2.521103e-04  1.063590e-07
    914    937   2   0.50000    -0.3300000    0.0600000   2.521103e-04  1.063590e-07
    934    917   2   0.50000     0.0300000   -0.1200000   1.599888e-04  9.721644e-08
    934    936   2   0.50000     0.0300000    0.0600000   3.930919e-05  8.704828e-09
    934    937   2   0.50000     0.0300000    0.0600000   3.930919e-05  8.704828e-09
    935    917   2   0.50000     0.0300000   -0.1200000   1.599888e-04  9.721644e-08
    935    936   2   0.50000     0.0300000    0.0600000   3.930919e-05  8.704828e-09
    935    937   2   0.50000     0.0300000    0.0600000   3.930919e-05  8.704828e-09
    915    918   2   0.50000     0.1900000   -0.1200000   1.015252e-03  1.866303e-06
    915    938   2   0.50000     0.1900000    0.0600000   2.494471e-04  1.671101e-07
    915    939   2   0.50000     0.1900000    0.0600000   2.494471e-04  1.671101e-07
    936    918   2   0.50000     0.0600000   -0.1200000   2.494471e-04  1.671101e-07
    936    938   2   0.50000     0.0600000    0.0600000   6.128906e-05  1.496315e-08
    936    939   2   0.50000     0.0600000    0.0600000   6.128906e-05  1.496315e-08
    937    918   2   0.50000     0.0600000   -0.1200000   2.494471e-04  1.671101e-07
    937    938   2   0.50000     0.0600000    0.0600000   6.128906e-05  1.496315e-08
    937    939   2   0.50000     0.0600000    0.0600000   6.128906e-05  1.496315e-08
    916    919   2   0.50000    -0.1200000   -0.1200000   1.015252e-03  1.866303e-06
    916    940   2   0.50000    -0.1200000    0.0600000   2.494471e-04  1.671101e-07
    916    941   2   0.50000    -0.1200000    0.0600000   2.494471e-04  1.671101e-07
    938    919   2   0.50000     0.0600000   -0.1200000   2.494471e-04  1.671101e-07
    938    940   2   0.50000     0.0600000    0.0600000   6.128906e-05  1.496315e-08
    938    941   2   0.50000     0.0600000    0.0600000   6.128906e-05  1.496315e-08
    939    919   2   0.50000     0.0600000   -0.1200000   2.494471e-04  1.671101e-07
    939    940   2   0.50000     0.0600000    0.0600000   6.128906e-05  1.496315e-08
    939    941   2   0.50000     0.0600000    0.0600000   6.128906e-05  1.496315e-08
    917    920   2   0.50000    -0.1200000   -0.1200000   1.015252e-03  1.866303e-06
    917    942   2   0.50000    -0.1200000    0.0600000   2.494471e-04  1.671101e-07
    917    943   2   0.50000    -0.1200000    0.0600000   2.494471e-04  1.671101e-07
    940    920   2   0.50000     0.0600000   -0.1200000   2.494471e-04  1.671101e-07
    940    942   2   0.50000     0.0600000    0.0600000   6.128906e-05  1.496315e-08
    940    943   2   0.50000     0.0600000    0.0600000   6.128906e-05  1.496315e-08
    941    920   2   0.50000     0.0600000   -0.1200000   2.494471e-04  1.671101e-07
    941    942   2   0.50000     0.0600000    0.0600000   6.128906e-05  1.496315e-08
    941    943   2   0.50000     0.0600000    0.0600000   6.128906e-05  1.496315e-08
    918    921   2   0.50000    -0.1200000   -0.1200000   1.015252e-03  1.866303e-06
    918    944   2   0.50000    -0.1200000    0.0600000   2.494471e-04  1.671101e-07
    918    945   2   0.50000    -0.1200000    0.0600000   2.494471e-04  1.671101e-07
    942    921   2   0.50000     0.0600000   -0.1200000   2.494471e-04  1.671101e-07
    942    944   2   0.50000     0.0600000    0.0600000   6.128906e-05  1.496315e-08
    942    945   2   0.50000     0.0600000    0.0600000   6.128906e-05  1.496315e-08
    943    921   2   0.50000     0.0600000   -0.1200000   2.494471e-04  1.671101e-07
    943    944   2   0.50000     0.0600000    0.0600000   6.128906e-05  1.496315e-08
    943    945   2   0.50000     0.0600000    0.0600000   6.128906e-05  1.496315e-08
    919    922   2   0.50000    -0.1200000   -0.1200000   1.015252e-03  1.866303e-06
    919    946   2   0.50000    -0.1200000    0.0600000   2.494471e-04  1.671101e-07
    919    947   2   0.50000    -0.1200000    0.0600000   2.494471e-04  1.671101e-07
    944    922   2   0.50000     0.0600000   -0.1200000   2.494471e-04  1.671101e-07
    944    946   2   0.50000     0.0600000    0.0600000   6.128906e-05  1.496315e-08
    944    947   2   0.50000     0.0600000    0.0600000   6.128906e-05  1.496315e-08
    945    922   2   0.50000     0.0600000   -0.1200000   2.494471e-04  1.671101e-07
    945    946   2   0.50000     0.0600000    0.0600000   6.128906e-05  1.496315e-08
    945    947   2   0.50000     0.0600000    0.0600000   6.128906e-05  1.496315e-08
    920    923   2   0.50000    -0.1200000   -0.1200000   1.015252e-03  1.866303e-06
    920    948   2   0.50000    -0.1200000    0.0600000   2.494471e-04  1.671101e-07
    920    949   2   0.50000    -0.1200000    0.0600000   2.494471e-04  1.671101e-07
    946    923   2   0.50000     0.0600000   -0.1200000   2.494471e-04  1.671101e-07
    946    948   2   0.50000     0.0600000    0.0600000   6.128906e-05  1.496315e-08
    946    949   2   0.50000     0.0600000    0.0600000   6.128906e-05  1.496315e-08
    947    923   2   0.50000     0.0600000   -0.1200000   2.494471e-04  1.671101e-07
    947    948   2   0.50000     0.0600000    0.0600000   6.128906e-05  1.496315e-08
    947    949   2   0.50000     0.0600000    0.0600000   6.128906e-05  1.496315e-08
    921    924   2   0.50000    -0.1200000    0.1900000   1.015252e-03  1.866303e-06
    921    950   2   0.50000    -0.1200000    0.0600000   2.494471e-04  1.671101e-07
    921    951   2   0.50000    -0.1200000    0.0600000   2.494471e-04  1.671101e-07
    948    924   2   0.50000     0.0600000    0.1900000   2.494471e-04  1.671101e-07
    948    950   2   0.50000     0.0600000    0.0600000   6.128906e-05  1.496315e-08
    948    951   2   0.50000     0.0600000    0.0600000   6.128906e-05  1.496315e-08
    949    924   2   0.50000     0.0600000    0.1900000   2.494471e-04  1.671101e-07
    949    950   2   0.50000     0.0600000    0.0600000   6.128906e-05  1.496315e-08
    949    951   2   0.50000     0.0600000    0.0600000   6.128906e-05  1.496315e-08
    922    925   2   0.50000    -0.1200000   -0.3300000   1.026091e-03  1.187829e-06
    922    952   2   0.50000    -0.1200000    0.0300000   1.599888e-04  9.721644e-08
    922    953   2   0.50000    -0.1200000    0.0300000   1.599888e-04  9.721644e-08
    950    925   2   0.50000     0.0600000   -0.3300000   2.521103e-04  1.063590e-07
    950    952   2   0.50000     0.0600000    0.0300000   3.930919e-05  8.704828e-09
    950    953   2   0.50000     0.0600000    0.0300000   3.930919e-05  8.704828e-09
    951    925   2   0.50000     0.0600000   -0.3300000   2.521103e-04  1.063590e-07
    951    952   2   0.50000     0.0600000    0.0300000   3.930919e-05  8.704828e-09
    951    953   2   0.50000     0.0600000    0.0300000   3.930919e-05  8.704828e-09
    923    926   2   0.50000    -0.1200000    0.5100000   1.575021e-03  3.561100e-06
    952    926   2   0.50000     0.0300000    0.5100000   2.482000e-04  1.854991e-07
    953    926   2   0.50000     0.0300000    0.5100000   2.482000e-04  1.854991e-07
    924    927   2   0.50000     0.1900000   -0.4300000   1.095425e-03  1.218041e-06
    924    928   2   0.50000     0.1900000   -0.1200000   1.015252e-03  1.866303e-06
    925    929   2   0.50000    -0.3300000   -0.1200000   1.026091e-03  1.187829e-06
    925    954   2   0.50000    -0.3300000    0.0600000   1.616969e-04  6.187447e-08
    925    955   2   0.50000    -0.3300000    0.0600000   1.616969e-04  6.187447e-08
    927    929   2   0.50000    -0.4300000   -0.1200000   1.095425e-03  1.218041e-06
    927    954   2   0.50000    -0.4300000    0.0600000   1.726228e-04  6.344822e-08
    927    955   2   0.50000    -0.4300000    0.0600000   1.726228e-04  6.344822e-08
    926    930   2   0.50000     0.5100000   -0.1200000   1.575021e-03  3.561100e-06
    926    956   2   0.50000     0.5100000    0.0600000   3.869820e-04  3.188634e-07
    926    957   2   0.50000     0.5100000    0.0600000   3.869820e-04  3.188634e-07
    954    930   2   0.50000     0.0600000   -0.1200000   1.599888e-04  9.721644e-08
    954    956   2   0.50000     0.0600000    0.0600000   3.930919e-05  8.704828e-09
    954    957   2   0.50000     0.0600000    0.0600000   3.930919e-05  8.704828e-09
    955    930   2   0.50000     0.0600000   -0.1200000   1.599888e-04  9.721644e-08
    955    956   2   0.50000     0.0600000    0.0600000   3.930919e-05  8.704828e-09
    955    957   2   0.50000     0.0600000    0.0600000   3.930919e-05  8.704828e-09
    928    931   2   0.50000    -0.1200000   -0.1200000   1.015252e-03  1.866303e-06
    928    958   2   0.50000    -0.1200000    0.0600000   2.494471e-04  1.671101e-07
    928    959   2   0.50000    -0.1200000    0.0600000   2.494471e-04  1.671101e-07
    956    931   2   0.50000     0.0600000   -0.1200000   2.494471e-04  1.671101e-07
    956    958   2   0.50000     0.0600000    0.0600000   6.128906e-05  1.496315e-08
    956    959   2   0.50000     0.0600000    0.0600000   6.128906e-05  1.496315e-08
    957    931   2   0.50000     0.0600000   -0.1200000   2.494471e-04  1.671101e-07
    957    958   2   0.50000     0.0600000    0.0600000   6.128906e-05  1.496315e-08
    957    959   2   0.50000     0.0600000    0.0600000   6.128906e-05  1.496315e-08
    929    932   2   0.50000    -0.1200000    0.4500000   1.575021e-03  3.561100e-06
    929    960   2   0.50000    -0.1200000    0.0600000   1.599888e-04  9.721644e-08
    929    961   2   0.50000    -0.1200000    0.0600000   1.599888e-04  9.721644e-08
    958    932   2   0.50000     0.0600000    0.4500000   3.869820e-04  3.188634e-07
    958    960   2   0.50000     0.0600000    0.0600000   3.930919e-05  8.704828e-09
    958    961   2   0.50000     0.0600000    0.0600000   3.930919e-05  8.704828e-09
    959    932   2   0.50000     0.0600000    0.4500000   3.869820e-04  3.188634e-07
    959    960   2   0.50000     0.0600000    0.0600000   3.930919e-05  8.704828e-09
    959    961   2   0.50000     0.0600000    0.0600000   3.930919e-05  8.704828e-09
    930    933   2   0.50000    -0.1200000   -0.4500000   1.095425e-03  1.218041e-06
    930    962   2   0.50000    -0.1200000    0.0000000   1.599888e-04  9.721644e-08
    960    933   2   0.50000     0.0600000   -0.4500000   1.726228e-04  6.344822e-08
    960    962   2   0.50000     0.0600000    0.0000000   2.521187e-05  5.064042e-09
    961    933   2   0.50000     0.0600000   -0.4500000   1.726228e-04  6.344822e-08
    961    962   2   0.50000     0.0600000    0.0000000   2.521187e-05  5.064042e-09

[ angles ]
; ai  aj  ak
      2      1     49   1    108.5000    460.2400
      1      2      3   1    109.5000    418.4000
      1      2     21   1    109.5000    292.8800
      1      2     22   1    109.5000    292.8800
      3      2     21   1    110.7000    313.8000
      3      2     22   1    110.7000    313.8000
     21      2     22   1    107.8000    276.1440
      2      3      4   1    112.7000    488.2728
      2      3     23   1    110.7000    313.8000
      2      3     24   1    110.7000    313.8000
      4      3     23   1    110.7000    313.8000
      4      3     24   1    110.7000    313.8000
     23      3     24   1    107.8000    276.1440
      3      4      5   1    112.7000    488.2728
      3      4     25   1    110.7000    313.8000
      3      4     26   1    110.7000    313.8000
      5      4     25   1    110.7000    313.8000
      5      4     26   1    110.7000    313.8000
     25      4     26   1    107.8000    276.1440
      4      5      6   1    112.7000    488.2728
      4      5     27   1    110.7000    313.8000
      4      5     28   1    110.7000    313.8000
      6      5     27   1    110.7000    313.8000
      6      5     28   1    110.7000    313.8000
     27      5     28   1    107.8000    276.1440
      5      6      7   1    112.7000    488.2728
      5      6     29   1    110.7000    313.8000
      5      6     30   1    110.7000    313.8000
      7      6     29   1    110.7000    313.8000
      7      6     30   1    110.7000    313.8000
     29      6     30   1    107.8000    276.1440
      6      7      8   1    112.7000    488.2728
      6      7     31   1    110.7000    313.8000
      6      7     32   1    110.7000    313.8000
      8      7     31   1    110.7000    313.8000
      8      7     32   1    110.7000    313.8000
     31      7     32   1    107.8000    276.1440
      7      8      9   1    112.7000    488.2728
      7      8     33   1    110.7000    313.8000
      7      8     34   1    110.7000    313.8000
      9      8     33   1    110.7000    313.8000
      9      8     34   1    110.7000    313.8000
     33      8     34   1    107.8000    276.1440
      8      9     10   1    112.7000    488.2728
      8      9     35   1    110.7000    313.8000
      8      9     36   1    110.7000    313.8000
     10      9     35   1    110.7000    313.8000
     10      9     36   1    110.7000    313.8000
     35      9     36   1    107.8000    276.1440
      9     10     11   1    112.7000    488.2728
      9     10     37   1    110.7000    313.8000
      9     10     38   1    110.7000    313.8000
     11     10     37   1    110.7000    313.8000
     11     10     38   1    110.7000    313.8000
     37     10     38   1    107.8000    276.1440
     10     11     12   1    109.5000    418.4000
     10     11     39   1    110.7000    313.8000
     10     11     40   1    110.7000    313.8000
     12     11     39   1    109.5000    292.8800
     12     11     40   1    109.5000    292.8800
     39     11     40   1    107.8000    276.1440
     11     12     13   1    116.9000    694.5440
     12     13     14   1    123.4000    694.5440
     12     13     15   1    111.4000    677.8080
     14     13     15   1    120.4000    669.4400
     13     15     16   1    111.1000    527.1840
     13     15     41   1    109.5000    292.8800
     13     15     42   1    109.5000    292.8800
     16     15     41   1    110.7000    313.8000
     16     15     42   1    110.7000    313.8000
     41     15     42   1    107.8000    276.1440
     15     16     17   1    112.7000    488.2728
     15     16     43   1    110.7000    313.8000
     15     16     44   1    110.7000    313.8000
     17     16     43   1    110.7000    313.8000
     17     16     44   1    110.7000    313.8000
     43     16     44   1    107.8000    276.1440
     16     17     18   1    112.7000    488.2728
     16     17     45   1    110.7000    313.8000
     16     17     46   1    110.7000    313.8000
     18     17     45   1    110.7000    313.8000
     18     17     46   1    110.7000    313.8000
     45     17     46   1    107.8000    276.1440
     17     18     19   1    111.1000    527.1840
     17     18     47   1    110.7000    313.8000
     17     18     48   1    110.7000    313.8000
     19     18     47   1    109.5000    292.8800
     19     18     48   1    109.5000    292.8800
     47     18     48   1    107.8000    276.1440
     18     19     20   1    120.4000    669.4400
     18     19     50   1    111.4000    677.8080
     20     19     50   1    123.4000    694.5440
     19     50     51   1    116.9000    694.5440
     50     51     52   1    109.5000    418.4000
     50     51     70   1    109.5000    292.8800
     50     51     71   1    109.5000    292.8800
     52     51     70   1    110.7000    313.8000
     52     51     71   1    110.7000    313.8000
     70     51     71   1    107.8000    276.1440
     51     52     53   1    112.7000    488.2728
     51     52     72   1    110.7000    313.8000
     51     52     73   1    110.7000    313.8000
     53     52     72   1    110.7000    313.8000
     53     52     73   1    110.7000    313.8000
     72     52     73   1    107.8000    276.1440
     52     53     54   1    112.7000    488.2728
     52     53     74   1    110.7000    313.8000
     52     53     75   1    110.7000    313.8000
     54     53     74   1    110.7000    313.8000
     54     53     75   1    110.7000    313.8000
     74     53     75   1    107.8000    276.1440
     53     54     55   1    112.7000    488.2728
     53     54     76   1    110.7000    313.8000
     53     54     77   1    110.7000    313.8000
     55     54     76   1    110.7000    313.8000
     55     54     77   1    110.7000    313.8000
     76     54     77   1    107.8000    276.1440
     54     55     56   1    112.7000    488.2728
     54     55     78   1    110.7000    313.8000
     54     55     79   1    110.7000    313.8000
     56     55     78   1    110.7000    313.8000
     56     55     79   1    110.7000    313.8000
     78     55     79   1    107.8000    276.1440
     55     56     57   1    112.7000    488.2728
     55     56     80   1    110.7000    313.8000
     55     56     81   1    110.7000    313.8000
     57     56     80   1    110.7000    313.8000
     57     56     81   1    110.7000    313.8000
     80     56     81   1    107.8000    276.1440
     56     57     58   1    112.7000    488.2728
     56     57     82   1    110.7000    313.8000
     56     57     83   1    110.7000    313.8000
     58     57     82   1    110.7000    313.8000
     58     57     83   1    110.7000    313.8000
     82     57     83   1    107.8000    276.1440
     57     58     59   1    112.7000    488.2728
     57     58     84   1    110.7000    313.8000
     57     58     85   1    110.7000    313.8000
     59     58     84   1    110.7000    313.8000
     59     58     85   1    110.7000    313.8000
     84     58     85   1    107.8000    276.1440
     58     59     60   1    112.7000    488.2728
     58     59     86   1    110.7000    313.8000
     58     59     87   1    110.7000    313.8000
     60     59     86   1    110.7000    313.8000
     60     59     87   1    110.7000    313.8000
     86     59     87   1    107.8000    276.1440
     59     60     61   1    109.5000    418.4000
     59     60     88   1    110.7000    313.8000
     59     60     89   1    110.7000    313.8000
     61     60     88   1    109.5000    292.8800
     61     60     89   1    109.5000    292.8800
     88     60     89   1    107.8000    276.1440
     60     61     62   1    116.9000    694.5440
     61     62     63   1    123.4000    694.5440
     61     62     64   1    111.4000    677.8080
     63     62     64   1    120.4000    669.4400
     62     64     65   1    111.1000    527.1840
     62     64     90   1    109.5000    292.8800
     62     64     91   1    109.5000    292.8800
     65     64     90   1    110.7000    313.8000
     65     64     91   1    110.7000    313.8000
     90     64     91   1    107.8000    276.1440
     64     65     66   1    112.7000    488.2728
     64     65     92   1    110.7000    313.8000
     64     65     93   1    110.7000    313.8000
     66     65     92   1    110.7000    313.8000
     66     65     93   1    110.7000    313.8000
     92     65     93   1    107.8000    276.1440
     65     66     67   1    112.7000    488.2728
     65     66     94   1    110.7000    313.8000
     65     66     95   1    110.7000    313.8000
     67     66     94   1    110.7000    313.8000
     67     66     95   1    110.7000    313.8000
     94     66     95   1    107.8000    276.1440
     66     67     68   1    111.1000    527.1840
     66     67     96   1    110.7000    313.8000
     66     67     97   1    110.7000    313.8000
     68     67     96   1    109.5000    292.8800
     68     67     97   1    109.5000    292.8800
     96     67     97   1    107.8000    276.1440
     67     68     69   1    120.4000    669.4400
     67     68     98   1    111.4000    677.8080
     69     68     98   1    123.4000    694.5440
     68     98     99   1    116.9000    694.5440
     98     99    100   1    109.5000    418.4000
     98     99    118   1    109.5000    292.8800
     98     99    119   1    109.5000    292.8800
    100     99    118   1    110.7000    313.8000
    100     99    119   1    110.7000    313.8000
    118     99    119   1    107.8000    276.1440
     99    100    101   1    112.7000    488.2728
     99    100    120   1    110.7000    313.8000
     99    100    121   1    110.7000    313.8000
    101    100    120   1    110.7000    313.8000
    101    100    121   1    110.7000    313.8000
    120    100    121   1    107.8000    276.1440
    100    101    102   1    112.7000    488.2728
    100    101    122   1    110.7000    313.8000
    100    101    123   1    110.7000    313.8000
    102    101    122   1    110.7000    313.8000
    102    101    123   1    110.7000    313.8000
    122    101    123   1    107.8000    276.1440
    101    102    103   1    112.7000    488.2728
    101    102    124   1    110.7000    313.8000
    101    102    125   1    110.7000    313.8000
    103    102    124   1    110.7000    313.8000
    103    102    125   1    110.7000    313.8000
    124    102    125   1    107.8000    276.1440
    102    103    104   1    112.7000    488.2728
    102    103    126   1    110.7000    313.8000
    102    103    127   1    110.7000    313.8000
    104    103    126   1    110.7000    313.8000
    104    103    127   1    110.7000    313.8000
    126    103    127   1    107.8000    276.1440
    103    104    105   1    112.7000    488.2728
    103    104    128   1    110.7000    313.8000
    103    104    129   1    110.7000    313.8000
    105    104    128   1    110.7000    313.8000
    105    104    129   1    110.7000    313.8000
    128    104    129   1    107.8000    276.1440
    104    105    106   1    112.7000    488.2728
    104    105    130   1    110.7000    313.8000
    104    105    131   1    110.7000    313.8000
    106    105    130   1    110.7000    313.8000
    106    105    131   1    110.7000    313.8000
    130    105    131   1    107.8000    276.1440
    105    106    107   1    112.7000    488.2728
    105    106    132   1    110.7000    313.8000
    105    106    133   1    110.7000    313.8000
    107    106    132   1    110.7000    313.8000
    107    106    133   1    110.7000    313.8000
    132    106    133   1    107.8000    276.1440
    106    107    108   1    112.7000    488.2728
    106    107    134   1    110.7000    313.8000
    106    107    135   1    110.7000    313.8000
    108    107    134   1    110.7000    313.8000
    108    107    135   1    110.7000    313.8000
    134    107    135   1    107.8000    276.1440
    107    108    109   1    109.5000    418.4000
    107    108    136   1    110.7000    313.8000
    107    108    137   1    110.7000    313.8000
    109    108    136   1    109.5000    292.8800
    109    108    137   1    109.5000    292.8800
    136    108    137   1    107.8000    276.1440
    108    109    110   1    116.9000    694.5440
    109    110    111   1    123.4000    694.5440
    109    110    112   1    111.4000    677.8080
    111    110    112   1    120.4000    669.4400
    110    112    113   1    111.1000    527.1840
    110    112    138   1    109.5000    292.8800
    110    112    139   1    109.5000    292.8800
    113    112    138   1    110.7000    313.8000
    113    112    139   1    110.7000    313.8000
    138    112    139   1    107.8000    276.1440
    112    113    114   1    112.7000    488.2728
    112    113    140   1    110.7000    313.8000
    112    113    141   1    110.7000    313.8000
    114    113    140   1    110.7000    313.8000
    114    113    141   1    110.7000    313.8000
    140    113    141   1    107.8000    276.1440
    113    114    115   1    112.7000    488.2728
    113    114    142   1    110.7000    313.8000
    113    114    143   1    110.7000    313.8000
    115    114    142   1    110.7000    313.8000
    115    114    143   1    110.7000    313.8000
    142    114    143   1    107.8000    276.1440
    114    115    116   1    111.1000    527.1840
    114    115    144   1    110.7000    313.8000
    114    115    145   1    110.7000    313.8000
    116    115    144   1    109.5000    292.8800
    116    115    145   1    109.5000    292.8800
    144    115    145   1    107.8000    276.1440
    115    116    117   1    120.4000    669.4400
    115    116    146   1    111.4000    677.8080
    117    116    146   1    123.4000    694.5440
    116    146    147   1    116.9000    694.5440
    146    147    148   1    109.5000    418.4000
    146    147    166   1    109.5000    292.8800
    146    147    167   1    109.5000    292.8800
    148    147    166   1    110.7000    313.8000
    148    147    167   1    110.7000    313.8000
    166    147    167   1    107.8000    276.1440
    147    148    149   1    112.7000    488.2728
    147    148    168   1    110.7000    313.8000
    147    148    169   1    110.7000    313.8000
    149    148    168   1    110.7000    313.8000
    149    148    169   1    110.7000    313.8000
    168    148    169   1    107.8000    276.1440
    148    149    150   1    112.7000    488.2728
    148    149    170   1    110.7000    313.8000
    148    149    171   1    110.7000    313.8000
    150    149    170   1    110.7000    313.8000
    150    149    171   1    110.7000    313.8000
    170    149    171   1    107.8000    276.1440
    149    150    151   1    112.7000    488.2728
    149    150    172   1    110.7000    313.8000
    149    150    173   1    110.7000    313.8000
    151    150    172   1    110.7000    313.8000
    151    150    173   1    110.7000    313.8000
    172    150    173   1    107.8000    276.1440
    150    151    152   1    112.7000    488.2728
    150    151    174   1    110.7000    313.8000
    150    151    175   1    110.7000    313.8000
    152    151    174   1    110.7000    313.8000
    152    151    175   1    110.7000    313.8000
    174    151    175   1    107.8000    276.1440
    151    152    153   1    112.7000    488.2728
    151    152    176   1    110.7000    313.8000
    151    152    177   1    110.7000    313.8000
    153    152    176   1    110.7000    313.8000
    153    152    177   1    110.7000    313.8000
    176    152    177   1    107.8000    276.1440
    152    153    154   1    112.7000    488.2728
    152    153    178   1    110.7000    313.8000
    152    153    179   1    110.7000    313.8000
    154    153    178   1    110.7000    313.8000
    154    153    179   1    110.7000    313.8000
    178    153    179   1    107.8000    276.1440
    153    154    155   1    112.7000    488.2728
    153    154    180   1    110.7000    313.8000
    153    154    181   1    110.7000    313.8000
    155    154    180   1    110.7000    313.8000
    155    154    181   1    110.7000    313.8000
    180    154    181   1    107.8000    276.1440
    154    155    156   1    112.7000    488.2728
    154    155    182   1    110.7000    313.8000
    154    155    183   1    110.7000    313.8000
    156    155    182   1    110.7000    313.8000
    156    155    183   1    110.7000    313.8000
    182    155    183   1    107.8000    276.1440
    155    156    157   1    109.5000    418.4000
    155    156    184   1    110.7000    313.8000
    155    156    185   1    110.7000    313.8000
    157    156    184   1    109.5000    292.8800
    157    156    185   1    109.5000    292.8800
    184    156    185   1    107.8000    276.1440
    156    157    158   1    116.9000    694.5440
    157    158    159   1    123.4000    694.5440
    157    158    160   1    111.4000    677.8080
    159    158    160   1    120.4000    669.4400
    158    160    161   1    111.1000    527.1840
    158    160    186   1    109.5000    292.8800
    158    160    187   1    109.5000    292.8800
    161    160    186   1    110.7000    313.8000
    161    160    187   1    110.7000    313.8000
    186    160    187   1    107.8000    276.1440
    160    161    162   1    112.7000    488.2728
    160    161    188   1    110.7000    313.8000
    160    161    189   1    110.7000    313.8000
    162    161    188   1    110.7000    313.8000
    162    161    189   1    110.7000    313.8000
    188    161    189   1    107.8000    276.1440
    161    162    163   1    112.7000    488.2728
    161    162    190   1    110.7000    313.8000
    161    162    191   1    110.7000    313.8000
    163    162    190   1    110.7000    313.8000
    163    162    191   1    110.7000    313.8000
    190    162    191   1    107.8000    276.1440
    162    163    164   1    111.1000    527.1840
    162    163    192   1    110.7000    313.8000
    162    163    193   1    110.7000    313.8000
    164    163    192   1    109.5000    292.8800
    164    163    193   1    109.5000    292.8800
    192    163    193   1    107.8000    276.1440
    163    164    165   1    120.4000    669.4400
    163    164    194   1    111.4000    677.8080
    165    164    194   1    123.4000    694.5440
    164    194    195   1    116.9000    694.5440
    194    195    196   1    109.5000    418.4000
    194    195    214   1    109.5000    292.8800
    194    195    215   1    109.5000    292.8800
    196    195    214   1    110.7000    313.8000
    196    195    215   1    110.7000    313.8000
    214    195    215   1    107.8000    276.1440
    195    196    197   1    112.7000    488.2728
    195    196    216   1    110.7000    313.8000
    195    196    217   1    110.7000    313.8000
    197    196    216   1    110.7000    313.8000
    197    196    217   1    110.7000    313.8000
    216    196    217   1    107.8000    276.1440
    196    197    198   1    112.7000    488.2728
    196    197    218   1    110.7000    313.8000
    196    197    219   1    110.7000    313.8000
    198    197    218   1    110.7000    313.8000
    198    197    219   1    110.7000    313.8000
    218    197    219   1    107.8000    276.1440
    197    198    199   1    112.7000    488.2728
    197    198    220   1    110.7000    313.8000
    197    198    221   1    110.7000    313.8000
    199    198    220   1    110.7000    313.8000
    199    198    221   1    110.7000    313.8000
    220    198    221   1    107.8000    276.1440
    198    199    200   1    112.7000    488.2728
    198    199    222   1    110.7000    313.8000
    198    199    223   1    110.7000    313.8000
    200    199    222   1    110.7000    313.8000
    200    199    223   1    110.7000    313.8000
    222    199    223   1    107.8000    276.1440
    199    200    201   1    112.7000    488.2728
    199    200    224   1    110.7000    313.8000
    199    200    225   1    110.7000    313.8000
    201    200    224   1    110.7000    313.8000
    201    200    225   1    110.7000    313.8000
    224    200    225   1    107.8000    276.1440
    200    201    202   1    112.7000    488.2728
    200    201    226   1    110.7000    313.8000
    200    201    227   1    110.7000    313.8000
    202    201    226   1    110.7000    313.8000
    202    201    227   1    110.7000    313.8000
    226    201    227   1    107.8000    276.1440
    201    202    203   1    112.7000    488.2728
    201    202    228   1    110.7000    313.8000
    201    202    229   1    110.7000    313.8000
    203    202    228   1    110.7000    313.8000
    203    202    229   1    110.7000    313.8000
    228    202    229   1    107.8000    276.1440
    202    203    204   1    112.7000    488.2728
    202    203    230   1    110.7000    313.8000
    202    203    231   1    110.7000    313.8000
    204    203    230   1    110.7000    313.8000
    204    203    231   1    110.7000    313.8000
    230    203    231   1    107.8000    276.1440
    203    204    205   1    109.5000    418.4000
    203    204    232   1    110.7000    313.8000
    203    204    233   1    110.7000    313.8000
    205    204    232   1    109.5000    292.8800
    205    204    233   1    109.5000    292.8800
    232    204    233   1    107.8000    276.1440
    204    205    206   1    116.9000    694.5440
    205    206    207   1    123.4000    694.5440
    205    206    208   1    111.4000    677.8080
    207    206    208   1    120.4000    669.4400
    206    208    209   1    111.1000    527.1840
    206    208    234   1    109.5000    292.8800
    206    208    235   1    109.5000    292.8800
    209    208    234   1    110.7000    313.8000
    209    208    235   1    110.7000    313.8000
    234    208    235   1    107.8000    276.1440
    208    209    210   1    112.7000    488.2728
    208    209    236   1    110.7000    313.8000
    208    209    237   1    110.7000    313.8000
    210    209    236   1    110.7000    313.8000
    210    209    237   1    110.7000    313.8000
    236    209    237   1    107.8000    276.1440
    209    210    211   1    112.7000    488.2728
    209    210    238   1    110.7000    313.8000
    209    210    239   1    110.7000    313.8000
    211    210    238   1    110.7000    313.8000
    211    210    239   1    110.7000    313.8000
    238    210    239   1    107.8000    276.1440
    210    211    212   1    111.1000    527.1840
    210    211    240   1    110.7000    313.8000
    210    211    241   1    110.7000    313.8000
    212    211    240   1    109.5000    292.8800
    212    211    241   1    109.5000    292.8800
    240    211    241   1    107.8000    276.1440
    211    212    213   1    120.4000    669.4400
    211    212    242   1    111.4000    677.8080
    213    212    242   1    123.4000    694.5440
    212    242    243   1    116.9000    694.5440
    242    243    244   1    109.5000    418.4000
    242    243    262   1    109.5000    292.8800
    242    243    263   1    109.5000    292.8800
    244    243    262   1    110.7000    313.8000
    244    243    263   1    110.7000    313.8000
    262    243    263   1    107.8000    276.1440
    243    244    245   1    112.7000    488.2728
    243    244    264   1    110.7000    313.8000
    243    244    265   1    110.7000    313.8000
    245    244    264   1    110.7000    313.8000
    245    244    265   1    110.7000    313.8000
    264    244    265   1    107.8000    276.1440
    244    245    246   1    112.7000    488.2728
    244    245    266   1    110.7000    313.8000
    244    245    267   1    110.7000    313.8000
    246    245    266   1    110.7000    313.8000
    246    245    267   1    110.7000    313.8000
    266    245    267   1    107.8000    276.1440
    245    246    247   1    112.7000    488.2728
    245    246    268   1    110.7000    313.8000
    245    246    269   1    110.7000    313.8000
    247    246    268   1    110.7000    313.8000
    247    246    269   1    110.7000    313.8000
    268    246    269   1    107.8000    276.1440
    246    247    248   1    112.7000    488.2728
    246    247    270   1    110.7000    313.8000
    246    247    271   1    110.7000    313.8000
    248    247    270   1    110.7000    313.8000
    248    247    271   1    110.7000    313.8000
    270    247    271   1    107.8000    276.1440
    247    248    249   1    112.7000    488.2728
    247    248    272   1    110.7000    313.8000
    247    248    273   1    110.7000    313.8000
    249    248    272   1    110.7000    313.8000
    249    248    273   1    110.7000    313.8000
    272    248    273   1    107.8000    276.1440
    248    249    250   1    112.7000    488.2728
    248    249    274   1    110.7000    313.8000
    248    249    275   1    110.7000    313.8000
    250    249    274   1    110.7000    313.8000
    250    249    275   1    110.7000    313.8000
    274    249    275   1    107.8000    276.1440
    249    250    251   1    112.7000    488.2728
    249    250    276   1    110.7000    313.8000
    249    250    277   1    110.7000    313.8000
    251    250    276   1    110.7000    313.8000
    251    250    277   1    110.7000    313.8000
    276    250    277   1    107.8000    276.1440
    250    251    252   1    112.7000    488.2728
    250    251    278   1    110.7000    313.8000
    250    251    279   1    110.7000    313.8000
    252    251    278   1    110.7000    313.8000
    252    251    279   1    110.7000    313.8000
    278    251    279   1    107.8000    276.1440
    251    252    253   1    109.5000    418.4000
    251    252    280   1    110.7000    313.8000
    251    252    281   1    110.7000    313.8000
    253    252    280   1    109.5000    292.8800
    253    252    281   1    109.5000    292.8800
    280    252    281   1    107.8000    276.1440
    252    253    254   1    116.9000    694.5440
    253    254    255   1    123.4000    694.5440
    253    254    256   1    111.4000    677.8080
    255    254    256   1    120.4000    669.4400
    254    256    257   1    111.1000    527.1840
    254    256    282   1    109.5000    292.8800
    254    256    283   1    109.5000    292.8800
    257    256    282   1    110.7000    313.8000
    257    256    283   1    110.7000    313.8000
    282    256    283   1    107.8000    276.1440
    256    257    258   1    112.7000    488.2728
    256    257    284   1    110.7000    313.8000
    256    257    285   1    110.7000    313.8000
    258    257    284   1    110.7000    313.8000
    258    257    285   1    110.7000    313.8000
    284    257    285   1    107.8000    276.1440
    257    258    259   1    112.7000    488.2728
    257    258    286   1    110.7000    313.8000
    257    258    287   1    110.7000    313.8000
    259    258    286   1    110.7000    313.8000
    259    258    287   1    110.7000    313.8000
    286    258    287   1    107.8000    276.1440
    258    259    260   1    111.1000    527.1840
    258    259    288   1    110.7000    313.8000
    258    259    289   1    110.7000    313.8000
    260    259    288   1    109.5000    292.8800
    260    259    289   1    109.5000    292.8800
    288    259    289   1    107.8000    276.1440
    259    260    261   1    120.4000    669.4400
    259    260    290   1    111.4000    677.8080
    261    260    290   1    123.4000    694.5440
    260    290    291   1    116.9000    694.5440
    290    291    292   1    109.5000    418.4000
    290    291    310   1    109.5000    292.8800
    290    291    311   1    109.5000    292.8800
    292    291    310   1    110.7000    313.8000
    292    291    311   1    110.7000    313.8000
    310    291    311   1    107.8000    276.1440
    291    292    293   1    112.7000    488.2728
    291    292    312   1    110.7000    313.8000
    291    292    313   1    110.7000    313.8000
    293    292    312   1    110.7000    313.8000
    293    292    313   1    110.7000    313.8000
    312    292    313   1    107.8000    276.1440
    292    293    294   1    112.7000    488.2728
    292    293    314   1    110.7000    313.8000
    292    293    315   1    110.7000    313.8000
    294    293    314   1    110.7000    313.8000
    294    293    315   1    110.7000    313.8000
    314    293    315   1    107.8000    276.1440
    293    294    295   1    112.7000    488.2728
    293    294    316   1    110.7000    313.8000
    293    294    317   1    110.7000    313.8000
    295    294    316   1    110.7000    313.8000
    295    294    317   1    110.7000    313.8000
    316    294    317   1    107.8000    276.1440
    294    295    296   1    112.7000    488.2728
    294    295    318   1    110.7000    313.8000
    294    295    319   1    110.7000    313.8000
    296    295    318   1    110.7000    313.8000
    296    295    319   1    110.7000    313.8000
    318    295    319   1    107.8000    276.1440
    295    296    297   1    112.7000    488.2728
    295    296    320   1    110.7000    313.8000
    295    296    321   1    110.7000    313.8000
    297    296    320   1    110.7000    313.8000
    297    296    321   1    110.7000    313.8000
    320    296    321   1    107.8000    276.1440
    296    297    298   1    112.7000    488.2728
    296    297    322   1    110.7000    313.8000
    296    297    323   1    110.7000    313.8000
    298    297    322   1    110.7000    313.8000
    298    297    323   1    110.7000    313.8000
    322    297    323   1    107.8000    276.1440
    297    298    299   1    112.7000    488.2728
    297    298    324   1    110.7000    313.8000
    297    298    325   1    110.7000    313.8000
    299    298    324   1    110.7000    313.8000
    299    298    325   1    110.7000    313.8000
    324    298    325   1    107.8000    276.1440
    298    299    300   1    112.7000    488.2728
    298    299    326   1    110.7000    313.8000
    298    299    327   1    110.7000    313.8000
    300    299    326   1    110.7000    313.8000
    300    299    327   1    110.7000    313.8000
    326    299    327   1    107.8000    276.1440
    299    300    301   1    109.5000    418.4000
    299    300    328   1    110.7000    313.8000
    299    300    329   1    110.7000    313.8000
    301    300    328   1    109.5000    292.8800
    301    300    329   1    109.5000    292.8800
    328    300    329   1    107.8000    276.1440
    300    301    302   1    116.9000    694.5440
    301    302    303   1    123.4000    694.5440
    301    302    304   1    111.4000    677.8080
    303    302    304   1    120.4000    669.4400
    302    304    305   1    111.1000    527.1840
    302    304    330   1    109.5000    292.8800
    302    304    331   1    109.5000    292.8800
    305    304    330   1    110.7000    313.8000
    305    304    331   1    110.7000    313.8000
    330    304    331   1    107.8000    276.1440
    304    305    306   1    112.7000    488.2728
    304    305    332   1    110.7000    313.8000
    304    305    333   1    110.7000    313.8000
    306    305    332   1    110.7000    313.8000
    306    305    333   1    110.7000    313.8000
    332    305    333   1    107.8000    276.1440
    305    306    307   1    112.7000    488.2728
    305    306    334   1    110.7000    313.8000
    305    306    335   1    110.7000    313.8000
    307    306    334   1    110.7000    313.8000
    307    306    335   1    110.7000    313.8000
    334    306    335   1    107.8000    276.1440
    306    307    308   1    111.1000    527.1840
    306    307    336   1    110.7000    313.8000
    306    307    337   1    110.7000    313.8000
    308    307    336   1    109.5000    292.8800
    308    307    337   1    109.5000    292.8800
    336    307    337   1    107.8000    276.1440
    307    308    309   1    120.4000    669.4400
    307    308    338   1    111.4000    677.8080
    309    308    338   1    123.4000    694.5440
    308    338    339   1    116.9000    694.5440
    338    339    340   1    109.5000    418.4000
    338    339    358   1    109.5000    292.8800
    338    339    359   1    109.5000    292.8800
    340    339    358   1    110.7000    313.8000
    340    339    359   1    110.7000    313.8000
    358    339    359   1    107.8000    276.1440
    339    340    341   1    112.7000    488.2728
    339    340    360   1    110.7000    313.8000
    339    340    361   1    110.7000    313.8000
    341    340    360   1    110.7000    313.8000
    341    340    361   1    110.7000    313.8000
    360    340    361   1    107.8000    276.1440
    340    341    342   1    112.7000    488.2728
    340    341    362   1    110.7000    313.8000
    340    341    363   1    110.7000    313.8000
    342    341    362   1    110.7000    313.8000
    342    341    363   1    110.7000    313.8000
    362    341    363   1    107.8000    276.1440
    341    342    343   1    112.7000    488.2728
    341    342    364   1    110.7000    313.8000
    341    342    365   1    110.7000    313.8000
    343    342    364   1    110.7000    313.8000
    343    342    365   1    110.7000    313.8000
    364    342    365   1    107.8000    276.1440
    342    343    344   1    112.7000    488.2728
    342    343    366   1    110.7000    313.8000
    342    343    367   1    110.7000    313.8000
    344    343    366   1    110.7000    313.8000
    344    343    367   1    110.7000    313.8000
    366    343    367   1    107.8000    276.1440
    343    344    345   1    112.7000    488.2728
    343    344    368   1    110.7000    313.8000
    343    344    369   1    110.7000    313.8000
    345    344    368   1    110.7000    313.8000
    345    344    369   1    110.7000    313.8000
    368    344    369   1    107.8000    276.1440
    344    345    346   1    112.7000    488.2728
    344    345    370   1    110.7000    313.8000
    344    345    371   1    110.7000    313.8000
    346    345    370   1    110.7000    313.8000
    346    345    371   1    110.7000    313.8000
    370    345    371   1    107.8000    276.1440
    345    346    347   1    112.7000    488.2728
    345    346    372   1    110.7000    313.8000
    345    346    373   1    110.7000    313.8000
    347    346    372   1    110.7000    313.8000
    347    346    373   1    110.7000    313.8000
    372    346    373   1    107.8000    276.1440
    346    347    348   1    112.7000    488.2728
    346    347    374   1    110.7000    313.8000
    346    347    375   1    110.7000    313.8000
    348    347    374   1    110.7000    313.8000
    348    347    375   1    110.7000    313.8000
    374    347    375   1    107.8000    276.1440
    347    348    349   1    109.5000    418.4000
    347    348    376   1    110.7000    313.8000
    347    348    377   1    110.7000    313.8000
    349    348    376   1    109.5000    292.8800
    349    348    377   1    109.5000    292.8800
    376    348    377   1    107.8000    276.1440
    348    349    350   1    116.9000    694.5440
    349    350    351   1    123.4000    694.5440
    349    350    352   1    111.4000    677.8080
    351    350    352   1    120.4000    669.4400
    350    352    353   1    111.1000    527.1840
    350    352    378   1    109.5000    292.8800
    350    352    379   1    109.5000    292.8800
    353    352    378   1    110.7000    313.8000
    353    352    379   1    110.7000    313.8000
    378    352    379   1    107.8000    276.1440
    352    353    354   1    112.7000    488.2728
    352    353    380   1    110.7000    313.8000
    352    353    381   1    110.7000    313.8000
    354    353    380   1    110.7000    313.8000
    354    353    381   1    110.7000    313.8000
    380    353    381   1    107.8000    276.1440
    353    354    355   1    112.7000    488.2728
    353    354    382   1    110.7000    313.8000
    353    354    383   1    110.7000    313.8000
    355    354    382   1    110.7000    313.8000
    355    354    383   1    110.7000    313.8000
    382    354    383   1    107.8000    276.1440
    354    355    356   1    111.1000    527.1840
    354    355    384   1    110.7000    313.8000
    354    355    385   1    110.7000    313.8000
    356    355    384   1    109.5000    292.8800
    356    355    385   1    109.5000    292.8800
    384    355    385   1    107.8000    276.1440
    355    356    357   1    120.4000    669.4400
    355    356    386   1    111.4000    677.8080
    357    356    386   1    123.4000    694.5440
    356    386    387   1    116.9000    694.5440
    386    387    388   1    109.5000    418.4000
    386    387    406   1    109.5000    292.8800
    386    387    407   1    109.5000    292.8800
    388    387    406   1    110.7000    313.8000
    388    387    407   1    110.7000    313.8000
    406    387    407   1    107.8000    276.1440
    387    388    389   1    112.7000    488.2728
    387    388    408   1    110.7000    313.8000
    387    388    409   1    110.7000    313.8000
    389    388    408   1    110.7000    313.8000
    389    388    409   1    110.7000    313.8000
    408    388    409   1    107.8000    276.1440
    388    389    390   1    112.7000    488.2728
    388    389    410   1    110.7000    313.8000
    388    389    411   1    110.7000    313.8000
    390    389    410   1    110.7000    313.8000
    390    389    411   1    110.7000    313.8000
    410    389    411   1    107.8000    276.1440
    389    390    391   1    112.7000    488.2728
    389    390    412   1    110.7000    313.8000
    389    390    413   1    110.7000    313.8000
    391    390    412   1    110.7000    313.8000
    391    390    413   1    110.7000    313.8000
    412    390    413   1    107.8000    276.1440
    390    391    392   1    112.7000    488.2728
    390    391    414   1    110.7000    313.8000
    390    391    415   1    110.7000    313.8000
    392    391    414   1    110.7000    313.8000
    392    391    415   1    110.7000    313.8000
    414    391    415   1    107.8000    276.1440
    391    392    393   1    112.7000    488.2728
    391    392    416   1    110.7000    313.8000
    391    392    417   1    110.7000    313.8000
    393    392    416   1    110.7000    313.8000
    393    392    417   1    110.7000    313.8000
    416    392    417   1    107.8000    276.1440
    392    393    394   1    112.7000    488.2728
    392    393    418   1    110.7000    313.8000
    392    393    419   1    110.7000    313.8000
    394    393    418   1    110.7000    313.8000
    394    393    419   1    110.7000    313.8000
    418    393    419   1    107.8000    276.1440
    393    394    395   1    112.7000    488.2728
    393    394    420   1    110.7000    313.8000
    393    394    421   1    110.7000    313.8000
    395    394    420   1    110.7000    313.8000
    395    394    421   1    110.7000    313.8000
    420    394    421   1    107.8000    276.1440
    394    395    396   1    112.7000    488.2728
    394    395    422   1    110.7000    313.8000
    394    395    423   1    110.7000    313.8000
    396    395    422   1    110.7000    313.8000
    396    395    423   1    110.7000    313.8000
    422    395    423   1    107.8000    276.1440
    395    396    397   1    109.5000    418.4000
    395    396    424   1    110.7000    313.8000
    395    396    425   1    110.7000    313.8000
    397    396    424   1    109.5000    292.8800
    397    396    425   1    109.5000    292.8800
    424    396    425   1    107.8000    276.1440
    396    397    398   1    116.9000    694.5440
    397    398    399   1    123.4000    694.5440
    397    398    400   1    111.4000    677.8080
    399    398    400   1    120.4000    669.4400
    398    400    401   1    111.1000    527.1840
    398    400    426   1    109.5000    292.8800
    398    400    427   1    109.5000    292.8800
    401    400    426   1    110.7000    313.8000
    401    400    427   1    110.7000    313.8000
    426    400    427   1    107.8000    276.1440
    400    401    402   1    112.7000    488.2728
    400    401    428   1    110.7000    313.8000
    400    401    429   1    110.7000    313.8000
    402    401    428   1    110.7000    313.8000
    402    401    429   1    110.7000    313.8000
    428    401    429   1    107.8000    276.1440
    401    402    403   1    112.7000    488.2728
    401    402    430   1    110.7000    313.8000
    401    402    431   1    110.7000    313.8000
    403    402    430   1    110.7000    313.8000
    403    402    431   1    110.7000    313.8000
    430    402    431   1    107.8000    276.1440
    402    403    404   1    111.1000    527.1840
    402    403    432   1    110.7000    313.8000
    402    403    433   1    110.7000    313.8000
    404    403    432   1    109.5000    292.8800
    404    403    433   1    109.5000    292.8800
    432    403    433   1    107.8000    276.1440
    403    404    405   1    120.4000    669.4400
    403    404    434   1    111.4000    677.8080
    405    404    434   1    123.4000    694.5440
    404    434    435   1    116.9000    694.5440
    434    435    436   1    109.5000    418.4000
    434    435    454   1    109.5000    292.8800
    434    435    455   1    109.5000    292.8800
    436    435    454   1    110.7000    313.8000
    436    435    455   1    110.7000    313.8000
    454    435    455   1    107.8000    276.1440
    435    436    437   1    112.7000    488.2728
    435    436    456   1    110.7000    313.8000
    435    436    457   1    110.7000    313.8000
    437    436    456   1    110.7000    313.8000
    437    436    457   1    110.7000    313.8000
    456    436    457   1    107.8000    276.1440
    436    437    438   1    112.7000    488.2728
    436    437    458   1    110.7000    313.8000
    436    437    459   1    110.7000    313.8000
    438    437    458   1    110.7000    313.8000
    438    437    459   1    110.7000    313.8000
    458    437    459   1    107.8000    276.1440
    437    438    439   1    112.7000    488.2728
    437    438    460   1    110.7000    313.8000
    437    438    461   1    110.7000    313.8000
    439    438    460   1    110.7000    313.8000
    439    438    461   1    110.7000    313.8000
    460    438    461   1    107.8000    276.1440
    438    439    440   1    112.7000    488.2728
    438    439    462   1    110.7000    313.8000
    438    439    463   1    110.7000    313.8000
    440    439    462   1    110.7000    313.8000
    440    439    463   1    110.7000    313.8000
    462    439    463   1    107.8000    276.1440
    439    440    441   1    112.7000    488.2728
    439    440    464   1    110.7000    313.8000
    439    440    465   1    110.7000    313.8000
    441    440    464   1    110.7000    313.8000
    441    440    465   1    110.7000    313.8000
    464    440    465   1    107.8000    276.1440
    440    441    442   1    112.7000    488.2728
    440    441    466   1    110.7000    313.8000
    440    441    467   1    110.7000    313.8000
    442    441    466   1    110.7000    313.8000
    442    441    467   1    110.7000    313.8000
    466    441    467   1    107.8000    276.1440
    441    442    443   1    112.7000    488.2728
    441    442    468   1    110.7000    313.8000
    441    442    469   1    110.7000    313.8000
    443    442    468   1    110.7000    313.8000
    443    442    469   1    110.7000    313.8000
    468    442    469   1    107.8000    276.1440
    442    443    444   1    112.7000    488.2728
    442    443    470   1    110.7000    313.8000
    442    443    471   1    110.7000    313.8000
    444    443    470   1    110.7000    313.8000
    444    443    471   1    110.7000    313.8000
    470    443    471   1    107.8000    276.1440
    443    444    445   1    109.5000    418.4000
    443    444    472   1    110.7000    313.8000
    443    444    473   1    110.7000    313.8000
    445    444    472   1    109.5000    292.8800
    445    444    473   1    109.5000    292.8800
    472    444    473   1    107.8000    276.1440
    444    445    446   1    116.9000    694.5440
    445    446    447   1    123.4000    694.5440
    445    446    448   1    111.4000    677.8080
    447    446    448   1    120.4000    669.4400
    446    448    449   1    111.1000    527.1840
    446    448    474   1    109.5000    292.8800
    446    448    475   1    109.5000    292.8800
    449    448    474   1    110.7000    313.8000
    449    448    475   1    110.7000    313.8000
    474    448    475   1    107.8000    276.1440
    448    449    450   1    112.7000    488.2728
    448    449    476   1    110.7000    313.8000
    448    449    477   1    110.7000    313.8000
    450    449    476   1    110.7000    313.8000
    450    449    477   1    110.7000    313.8000
    476    449    477   1    107.8000    276.1440
    449    450    451   1    112.7000    488.2728
    449    450    478   1    110.7000    313.8000
    449    450    479   1    110.7000    313.8000
    451    450    478   1    110.7000    313.8000
    451    450    479   1    110.7000    313.8000
    478    450    479   1    107.8000    276.1440
    450    451    452   1    111.1000    527.1840
    450    451    480   1    110.7000    313.8000
    450    451    481   1    110.7000    313.8000
    452    451    480   1    109.5000    292.8800
    452    451    481   1    109.5000    292.8800
    480    451    481   1    107.8000    276.1440
    451    452    453   1    120.4000    669.4400
    451    452    482   1    111.4000    677.8080
    453    452    482   1    123.4000    694.5440
    452    482    483   1    116.9000    694.5440
    482    483    484   1    109.5000    418.4000
    482    483    502   1    109.5000    292.8800
    482    483    503   1    109.5000    292.8800
    484    483    502   1    110.7000    313.8000
    484    483    503   1    110.7000    313.8000
    502    483    503   1    107.8000    276.1440
    483    484    485   1    112.7000    488.2728
    483    484    504   1    110.7000    313.8000
    483    484    505   1    110.7000    313.8000
    485    484    504   1    110.7000    313.8000
    485    484    505   1    110.7000    313.8000
    504    484    505   1    107.8000    276.1440
    484    485    486   1    112.7000    488.2728
    484    485    506   1    110.7000    313.8000
    484    485    507   1    110.7000    313.8000
    486    485    506   1    110.7000    313.8000
    486    485    507   1    110.7000    313.8000
    506    485    507   1    107.8000    276.1440
    485    486    487   1    112.7000    488.2728
    485    486    508   1    110.7000    313.8000
    485    486    509   1    110.7000    313.8000
    487    486    508   1    110.7000    313.8000
    487    486    509   1    110.7000    313.8000
    508    486    509   1    107.8000    276.1440
    486    487    488   1    112.7000    488.2728
    486    487    510   1    110.7000    313.8000
    486    487    511   1    110.7000    313.8000
    488    487    510   1    110.7000    313.8000
    488    487    511   1    110.7000    313.8000
    510    487    511   1    107.8000    276.1440
    487    488    489   1    112.7000    488.2728
    487    488    512   1    110.7000    313.8000
    487    488    513   1    110.7000    313.8000
    489    488    512   1    110.7000    313.8000
    489    488    513   1    110.7000    313.8000
    512    488    513   1    107.8000    276.1440
    488    489    490   1    112.7000    488.2728
    488    489    514   1    110.7000    313.8000
    488    489    515   1    110.7000    313.8000
    490    489    514   1    110.7000    313.8000
    490    489    515   1    110.7000    313.8000
    514    489    515   1    107.8000    276.1440
    489    490    491   1    112.7000    488.2728
    489    490    516   1    110.7000    313.8000
    489    490    517   1    110.7000    313.8000
    491    490    516   1    110.7000    313.8000
    491    490    517   1    110.7000    313.8000
    516    490    517   1    107.8000    276.1440
    490    491    492   1    112.7000    488.2728
    490    491    518   1    110.7000    313.8000
    490    491    519   1    110.7000    313.8000
    492    491    518   1    110.7000    313.8000
    492    491    519   1    110.7000    313.8000
    518    491    519   1    107.8000    276.1440
    491    492    493   1    109.5000    418.4000
    491    492    520   1    110.7000    313.8000
    491    492    521   1    110.7000    313.8000
    493    492    520   1    109.5000    292.8800
    493    492    521   1    109.5000    292.8800
    520    492    521   1    107.8000    276.1440
    492    493    494   1    116.9000    694.5440
    493    494    495   1    123.4000    694.5440
    493    494    496   1    111.4000    677.8080
    495    494    496   1    120.4000    669.4400
    494    496    497   1    111.1000    527.1840
    494    496    522   1    109.5000    292.8800
    494    496    523   1    109.5000    292.8800
    497    496    522   1    110.7000    313.8000
    497    496    523   1    110.7000    313.8000
    522    496    523   1    107.8000    276.1440
    496    497    498   1    112.7000    488.2728
    496    497    524   1    110.7000    313.8000
    496    497    525   1    110.7000    313.8000
    498    497    524   1    110.7000    313.8000
    498    497    525   1    110.7000    313.8000
    524    497    525   1    107.8000    276.1440
    497    498    499   1    112.7000    488.2728
    497    498    526   1    110.7000    313.8000
    497    498    527   1    110.7000    313.8000
    499    498    526   1    110.7000    313.8000
    499    498    527   1    110.7000    313.8000
    526    498    527   1    107.8000    276.1440
    498    499    500   1    111.1000    527.1840
    498    499    528   1    110.7000    313.8000
    498    499    529   1    110.7000    313.8000
    500    499    528   1    109.5000    292.8800
    500    499    529   1    109.5000    292.8800
    528    499    529   1    107.8000    276.1440
    499    500    501   1    120.4000    669.4400
    499    500    530   1    111.4000    677.8080
    501    500    530   1    123.4000    694.5440
    500    530    531   1    116.9000    694.5440
    530    531    532   1    109.5000    418.4000
    530    531    550   1    109.5000    292.8800
    530    531    551   1    109.5000    292.8800
    532    531    550   1    110.7000    313.8000
    532    531    551   1    110.7000    313.8000
    550    531    551   1    107.8000    276.1440
    531    532    533   1    112.7000    488.2728
    531    532    552   1    110.7000    313.8000
    531    532    553   1    110.7000    313.8000
    533    532    552   1    110.7000    313.8000
    533    532    553   1    110.7000    313.8000
    552    532    553   1    107.8000    276.1440
    532    533    534   1    112.7000    488.2728
    532    533    554   1    110.7000    313.8000
    532    533    555   1    110.7000    313.8000
    534    533    554   1    110.7000    313.8000
    534    533    555   1    110.7000    313.8000
    554    533    555   1    107.8000    276.1440
    533    534    535   1    112.7000    488.2728
    533    534    556   1    110.7000    313.8000
    533    534    557   1    110.7000    313.8000
    535    534    556   1    110.7000    313.8000
    535    534    557   1    110.7000    313.8000
    556    534    557   1    107.8000    276.1440
    534    535    536   1    112.7000    488.2728
    534    535    558   1    110.7000    313.8000
    534    535    559   1    110.7000    313.8000
    536    535    558   1    110.7000    313.8000
    536    535    559   1    110.7000    313.8000
    558    535    559   1    107.8000    276.1440
    535    536    537   1    112.7000    488.2728
    535    536    560   1    110.7000    313.8000
    535    536    561   1    110.7000    313.8000
    537    536    560   1    110.7000    313.8000
    537    536    561   1    110.7000    313.8000
    560    536    561   1    107.8000    276.1440
    536    537    538   1    112.7000    488.2728
    536    537    562   1    110.7000    313.8000
    536    537    563   1    110.7000    313.8000
    538    537    562   1    110.7000    313.8000
    538    537    563   1    110.7000    313.8000
    562    537    563   1    107.8000    276.1440
    537    538    539   1    112.7000    488.2728
    537    538    564   1    110.7000    313.8000
    537    538    565   1    110.7000    313.8000
    539    538    564   1    110.7000    313.8000
    539    538    565   1    110.7000    313.8000
    564    538    565   1    107.8000    276.1440
    538    539    540   1    112.7000    488.2728
    538    539    566   1    110.7000    313.8000
    538    539    567   1    110.7000    313.8000
    540    539    566   1    110.7000    313.8000
    540    539    567   1    110.7000    313.8000
    566    539    567   1    107.8000    276.1440
    539    540    541   1    109.5000    418.4000
    539    540    568   1    110.7000    313.8000
    539    540    569   1    110.7000    313.8000
    541    540    568   1    109.5000    292.8800
    541    540    569   1    109.5000    292.8800
    568    540    569   1    107.8000    276.1440
    540    541    542   1    116.9000    694.5440
    541    542    543   1    123.4000    694.5440
    541    542    544   1    111.4000    677.8080
    543    542    544   1    120.4000    669.4400
    542    544    545   1    111.1000    527.1840
    542    544    570   1    109.5000    292.8800
    542    544    571   1    109.5000    292.8800
    545    544    570   1    110.7000    313.8000
    545    544    571   1    110.7000    313.8000
    570    544    571   1    107.8000    276.1440
    544    545    546   1    112.7000    488.2728
    544    545    572   1    110.7000    313.8000
    544    545    573   1    110.7000    313.8000
    546    545    572   1    110.7000    313.8000
    546    545    573   1    110.7000    313.8000
    572    545    573   1    107.8000    276.1440
    545    546    547   1    112.7000    488.2728
    545    546    574   1    110.7000    313.8000
    545    546    575   1    110.7000    313.8000
    547    546    574   1    110.7000    313.8000
    547    546    575   1    110.7000    313.8000
    574    546    575   1    107.8000    276.1440
    546    547    548   1    111.1000    527.1840
    546    547    576   1    110.7000    313.8000
    546    547    577   1    110.7000    313.8000
    548    547    576   1    109.5000    292.8800
    548    547    577   1    109.5000    292.8800
    576    547    577   1    107.8000    276.1440
    547    548    549   1    120.4000    669.4400
    547    548    578   1    111.4000    677.8080
    549    548    578   1    123.4000    694.5440
    548    578    579   1    116.9000    694.5440
    578    579    580   1    109.5000    418.4000
    578    579    598   1    109.5000    292.8800
    578    579    599   1    109.5000    292.8800
    580    579    598   1    110.7000    313.8000
    580    579    599   1    110.7000    313.8000
    598    579    599   1    107.8000    276.1440
    579    580    581   1    112.7000    488.2728
    579    580    600   1    110.7000    313.8000
    579    580    601   1    110.7000    313.8000
    581    580    600   1    110.7000    313.8000
    581    580    601   1    110.7000    313.8000
    600    580    601   1    107.8000    276.1440
    580    581    582   1    112.7000    488.2728
    580    581    602   1    110.7000    313.8000
    580    581    603   1    110.7000    313.8000
    582    581    602   1    110.7000    313.8000
    582    581    603   1    110.7000    313.8000
    602    581    603   1    107.8000    276.1440
    581    582    583   1    112.7000    488.2728
    581    582    604   1    110.7000    313.8000
    581    582    605   1    110.7000    313.8000
    583    582    604   1    110.7000    313.8000
    583    582    605   1    110.7000    313.8000
    604    582    605   1    107.8000    276.1440
    582    583    584   1    112.7000    488.2728
    582    583    606   1    110.7000    313.8000
    582    583    607   1    110.7000    313.8000
    584    583    606   1    110.7000    313.8000
    584    583    607   1    110.7000    313.8000
    606    583    607   1    107.8000    276.1440
    583    584    585   1    112.7000    488.2728
    583    584    608   1    110.7000    313.8000
    583    584    609   1    110.7000    313.8000
    585    584    608   1    110.7000    313.8000
    585    584    609   1    110.7000    313.8000
    608    584    609   1    107.8000    276.1440
    584    585    586   1    112.7000    488.2728
    584    585    610   1    110.7000    313.8000
    584    585    611   1    110.7000    313.8000
    586    585    610   1    110.7000    313.8000
    586    585    611   1    110.7000    313.8000
    610    585    611   1    107.8000    276.1440
    585    586    587   1    112.7000    488.2728
    585    586    612   1    110.7000    313.8000
    585    586    613   1    110.7000    313.8000
    587    586    612   1    110.7000    313.8000
    587    586    613   1    110.7000    313.8000
    612    586    613   1    107.8000    276.1440
    586    587    588   1    112.7000    488.2728
    586    587    614   1    110.7000    313.8000
    586    587    615   1    110.7000    313.8000
    588    587    614   1    110.7000    313.8000
    588    587    615   1    110.7000    313.8000
    614    587    615   1    107.8000    276.1440
    587    588    589   1    109.5000    418.4000
    587    588    616   1    110.7000    313.8000
    587    588    617   1    110.7000    313.8000
    589    588    616   1    109.5000    292.8800
    589    588    617   1    109.5000    292.8800
    616    588    617   1    107.8000    276.1440
    588    589    590   1    116.9000    694.5440
    589    590    591   1    123.4000    694.5440
    589    590    592   1    111.4000    677.8080
    591    590    592   1    120.4000    669.4400
    590    592    593   1    111.1000    527.1840
    590    592    618   1    109.5000    292.8800
    590    592    619   1    109.5000    292.8800
    593    592    618   1    110.7000    313.8000
    593    592    619   1    110.7000    313.8000
    618    592    619   1    107.8000    276.1440
    592    593    594   1    112.7000    488.2728
    592    593    620   1    110.7000    313.8000
    592    593    621   1    110.7000    313.8000
    594    593    620   1    110.7000    313.8000
    594    593    621   1    110.7000    313.8000
    620    593    621   1    107.8000    276.1440
    593    594    595   1    112.7000    488.2728
    593    594    622   1    110.7000    313.8000
    593    594    623   1    110.7000    313.8000
    595    594    622   1    110.7000    313.8000
    595    594    623   1    110.7000    313.8000
    622    594    623   1    107.8000    276.1440
    594    595    596   1    111.1000    527.1840
    594    595    624   1    110.7000    313.8000
    594    595    625   1    110.7000    313.8000
    596    595    624   1    109.5000    292.8800
    596    595    625   1    109.5000    292.8800
    624    595    625   1    107.8000    276.1440
    595    596    597   1    120.4000    669.4400
    595    596    626   1    111.4000    677.8080
    597    596    626   1    123.4000    694.5440
    596    626    627   1    116.9000    694.5440
    626    627    628   1    109.5000    418.4000
    626    627    646   1    109.5000    292.8800
    626    627    647   1    109.5000    292.8800
    628    627    646   1    110.7000    313.8000
    628    627    647   1    110.7000    313.8000
    646    627    647   1    107.8000    276.1440
    627    628    629   1    112.7000    488.2728
    627    628    648   1    110.7000    313.8000
    627    628    649   1    110.7000    313.8000
    629    628    648   1    110.7000    313.8000
    629    628    649   1    110.7000    313.8000
    648    628    649   1    107.8000    276.1440
    628    629    630   1    112.7000    488.2728
    628    629    650   1    110.7000    313.8000
    628    629    651   1    110.7000    313.8000
    630    629    650   1    110.7000    313.8000
    630    629    651   1    110.7000    313.8000
    650    629    651   1    107.8000    276.1440
    629    630    631   1    112.7000    488.2728
    629    630    652   1    110.7000    313.8000
    629    630    653   1    110.7000    313.8000
    631    630    652   1    110.7000    313.8000
    631    630    653   1    110.7000    313.8000
    652    630    653   1    107.8000    276.1440
    630    631    632   1    112.7000    488.2728
    630    631    654   1    110.7000    313.8000
    630    631    655   1    110.7000    313.8000
    632    631    654   1    110.7000    313.8000
    632    631    655   1    110.7000    313.8000
    654    631    655   1    107.8000    276.1440
    631    632    633   1    112.7000    488.2728
    631    632    656   1    110.7000    313.8000
    631    632    657   1    110.7000    313.8000
    633    632    656   1    110.7000    313.8000
    633    632    657   1    110.7000    313.8000
    656    632    657   1    107.8000    276.1440
    632    633    634   1    112.7000    488.2728
    632    633    658   1    110.7000    313.8000
    632    633    659   1    110.7000    313.8000
    634    633    658   1    110.7000    313.8000
    634    633    659   1    110.7000    313.8000
    658    633    659   1    107.8000    276.1440
    633    634    635   1    112.7000    488.2728
    633    634    660   1    110.7000    313.8000
    633    634    661   1    110.7000    313.8000
    635    634    660   1    110.7000    313.8000
    635    634    661   1    110.7000    313.8000
    660    634    661   1    107.8000    276.1440
    634    635    636   1    112.7000    488.2728
    634    635    662   1    110.7000    313.8000
    634    635    663   1    110.7000    313.8000
    636    635    662   1    110.7000    313.8000
    636    635    663   1    110.7000    313.8000
    662    635    663   1    107.8000    276.1440
    635    636    637   1    109.5000    418.4000
    635    636    664   1    110.7000    313.8000
    635    636    665   1    110.7000    313.8000
    637    636    664   1    109.5000    292.8800
    637    636    665   1    109.5000    292.8800
    664    636    665   1    107.8000    276.1440
    636    637    638   1    116.9000    694.5440
    637    638    639   1    123.4000    694.5440
    637    638    640   1    111.4000    677.8080
    639    638    640   1    120.4000    669.4400
    638    640    641   1    111.1000    527.1840
    638    640    666   1    109.5000    292.8800
    638    640    667   1    109.5000    292.8800
    641    640    666   1    110.7000    313.8000
    641    640    667   1    110.7000    313.8000
    666    640    667   1    107.8000    276.1440
    640    641    642   1    112.7000    488.2728
    640    641    668   1    110.7000    313.8000
    640    641    669   1    110.7000    313.8000
    642    641    668   1    110.7000    313.8000
    642    641    669   1    110.7000    313.8000
    668    641    669   1    107.8000    276.1440
    641    642    643   1    112.7000    488.2728
    641    642    670   1    110.7000    313.8000
    641    642    671   1    110.7000    313.8000
    643    642    670   1    110.7000    313.8000
    643    642    671   1    110.7000    313.8000
    670    642    671   1    107.8000    276.1440
    642    643    644   1    111.1000    527.1840
    642    643    672   1    110.7000    313.8000
    642    643    673   1    110.7000    313.8000
    644    643    672   1    109.5000    292.8800
    644    643    673   1    109.5000    292.8800
    672    643    673   1    107.8000    276.1440
    643    644    645   1    120.4000    669.4400
    643    644    674   1    111.4000    677.8080
    645    644    674   1    123.4000    694.5440
    644    674    675   1    116.9000    694.5440
    674    675    676   1    109.5000    418.4000
    674    675    694   1    109.5000    292.8800
    674    675    695   1    109.5000    292.8800
    676    675    694   1    110.7000    313.8000
    676    675    695   1    110.7000    313.8000
    694    675    695   1    107.8000    276.1440
    675    676    677   1    112.7000    488.2728
    675    676    696   1    110.7000    313.8000
    675    676    697   1    110.7000    313.8000
    677    676    696   1    110.7000    313.8000
    677    676    697   1    110.7000    313.8000
    696    676    697   1    107.8000    276.1440
    676    677    678   1    112.7000    488.2728
    676    677    698   1    110.7000    313.8000
    676    677    699   1    110.7000    313.8000
    678    677    698   1    110.7000    313.8000
    678    677    699   1    110.7000    313.8000
    698    677    699   1    107.8000    276.1440
    677    678    679   1    112.7000    488.2728
    677    678    700   1    110.7000    313.8000
    677    678    701   1    110.7000    313.8000
    679    678    700   1    110.7000    313.8000
    679    678    701   1    110.7000    313.8000
    700    678    701   1    107.8000    276.1440
    678    679    680   1    112.7000    488.2728
    678    679    702   1    110.7000    313.8000
    678    679    703   1    110.7000    313.8000
    680    679    702   1    110.7000    313.8000
    680    679    703   1    110.7000    313.8000
    702    679    703   1    107.8000    276.1440
    679    680    681   1    112.7000    488.2728
    679    680    704   1    110.7000    313.8000
    679    680    705   1    110.7000    313.8000
    681    680    704   1    110.7000    313.8000
    681    680    705   1    110.7000    313.8000
    704    680    705   1    107.8000    276.1440
    680    681    682   1    112.7000    488.2728
    680    681    706   1    110.7000    313.8000
    680    681    707   1    110.7000    313.8000
    682    681    706   1    110.7000    313.8000
    682    681    707   1    110.7000    313.8000
    706    681    707   1    107.8000    276.1440
    681    682    683   1    112.7000    488.2728
    681    682    708   1    110.7000    313.8000
    681    682    709   1    110.7000    313.8000
    683    682    708   1    110.7000    313.8000
    683    682    709   1    110.7000    313.8000
    708    682    709   1    107.8000    276.1440
    682    683    684   1    112.7000    488.2728
    682    683    710   1    110.7000    313.8000
    682    683    711   1    110.7000    313.8000
    684    683    710   1    110.7000    313.8000
    684    683    711   1    110.7000    313.8000
    710    683    711   1    107.8000    276.1440
    683    684    685   1    109.5000    418.4000
    683    684    712   1    110.7000    313.8000
    683    684    713   1    110.7000    313.8000
    685    684    712   1    109.5000    292.8800
    685    684    713   1    109.5000    292.8800
    712    684    713   1    107.8000    276.1440
    684    685    686   1    116.9000    694.5440
    685    686    687   1    123.4000    694.5440
    685    686    688   1    111.4000    677.8080
    687    686    688   1    120.4000    669.4400
    686    688    689   1    111.1000    527.1840
    686    688    714   1    109.5000    292.8800
    686    688    715   1    109.5000    292.8800
    689    688    714   1    110.7000    313.8000
    689    688    715   1    110.7000    313.8000
    714    688    715   1    107.8000    276.1440
    688    689    690   1    112.7000    488.2728
    688    689    716   1    110.7000    313.8000
    688    689    717   1    110.7000    313.8000
    690    689    716   1    110.7000    313.8000
    690    689    717   1    110.7000    313.8000
    716    689    717   1    107.8000    276.1440
    689    690    691   1    112.7000    488.2728
    689    690    718   1    110.7000    313.8000
    689    690    719   1    110.7000    313.8000
    691    690    718   1    110.7000    313.8000
    691    690    719   1    110.7000    313.8000
    718    690    719   1    107.8000    276.1440
    690    691    692   1    111.1000    527.1840
    690    691    720   1    110.7000    313.8000
    690    691    721   1    110.7000    313.8000
    692    691    720   1    109.5000    292.8800
    692    691    721   1    109.5000    292.8800
    720    691    721   1    107.8000    276.1440
    691    692    693   1    120.4000    669.4400
    691    692    722   1    111.4000    677.8080
    693    692    722   1    123.4000    694.5440
    692    722    723   1    116.9000    694.5440
    722    723    724   1    109.5000    418.4000
    722    723    742   1    109.5000    292.8800
    722    723    743   1    109.5000    292.8800
    724    723    742   1    110.7000    313.8000
    724    723    743   1    110.7000    313.8000
    742    723    743   1    107.8000    276.1440
    723    724    725   1    112.7000    488.2728
    723    724    744   1    110.7000    313.8000
    723    724    745   1    110.7000    313.8000
    725    724    744   1    110.7000    313.8000
    725    724    745   1    110.7000    313.8000
    744    724    745   1    107.8000    276.1440
    724    725    726   1    112.7000    488.2728
    724    725    746   1    110.7000    313.8000
    724    725    747   1    110.7000    313.8000
    726    725    746   1    110.7000    313.8000
    726    725    747   1    110.7000    313.8000
    746    725    747   1    107.8000    276.1440
    725    726    727   1    112.7000    488.2728
    725    726    748   1    110.7000    313.8000
    725    726    749   1    110.7000    313.8000
    727    726    748   1    110.7000    313.8000
    727    726    749   1    110.7000    313.8000
    748    726    749   1    107.8000    276.1440
    726    727    728   1    112.7000    488.2728
    726    727    750   1    110.7000    313.8000
    726    727    751   1    110.7000    313.8000
    728    727    750   1    110.7000    313.8000
    728    727    751   1    110.7000    313.8000
    750    727    751   1    107.8000    276.1440
    727    728    729   1    112.7000    488.2728
    727    728    752   1    110.7000    313.8000
    727    728    753   1    110.7000    313.8000
    729    728    752   1    110.7000    313.8000
    729    728    753   1    110.7000    313.8000
    752    728    753   1    107.8000    276.1440
    728    729    730   1    112.7000    488.2728
    728    729    754   1    110.7000    313.8000
    728    729    755   1    110.7000    313.8000
    730    729    754   1    110.7000    313.8000
    730    729    755   1    110.7000    313.8000
    754    729    755   1    107.8000    276.1440
    729    730    731   1    112.7000    488.2728
    729    730    756   1    110.7000    313.8000
    729    730    757   1    110.7000    313.8000
    731    730    756   1    110.7000    313.8000
    731    730    757   1    110.7000    313.8000
    756    730    757   1    107.8000    276.1440
    730    731    732   1    112.7000    488.2728
    730    731    758   1    110.7000    313.8000
    730    731    759   1    110.7000    313.8000
    732    731    758   1    110.7000    313.8000
    732    731    759   1    110.7000    313.8000
    758    731    759   1    107.8000    276.1440
    731    732    733   1    109.5000    418.4000
    731    732    760   1    110.7000    313.8000
    731    732    761   1    110.7000    313.8000
    733    732    760   1    109.5000    292.8800
    733    732    761   1    109.5000    292.8800
    760    732    761   1    107.8000    276.1440
    732    733    734   1    116.9000    694.5440
    733    734    735   1    123.4000    694.5440
    733    734    736   1    111.4000    677.8080
    735    734    736   1    120.4000    669.4400
    734    736    737   1    111.1000    527.1840
    734    736    762   1    109.5000    292.8800
    734    736    763   1    109.5000    292.8800
    737    736    762   1    110.7000    313.8000
    737    736    763   1    110.7000    313.8000
    762    736    763   1    107.8000    276.1440
    736    737    738   1    112.7000    488.2728
    736    737    764   1    110.7000    313.8000
    736    737    765   1    110.7000    313.8000
    738    737    764   1    110.7000    313.8000
    738    737    765   1    110.7000    313.8000
    764    737    765   1    107.8000    276.1440
    737    738    739   1    112.7000    488.2728
    737    738    766   1    110.7000    313.8000
    737    738    767   1    110.7000    313.8000
    739    738    766   1    110.7000    313.8000
    739    738    767   1    110.7000    313.8000
    766    738    767   1    107.8000    276.1440
    738    739    740   1    111.1000    527.1840
    738    739    768   1    110.7000    313.8000
    738    739    769   1    110.7000    313.8000
    740    739    768   1    109.5000    292.8800
    740    739    769   1    109.5000    292.8800
    768    739    769   1    107.8000    276.1440
    739    740    741   1    120.4000    669.4400
    739    740    770   1    111.4000    677.8080
    741    740    770   1    123.4000    694.5440
    740    770    771   1    116.9000    694.5440
    770    771    772   1    109.5000    418.4000
    770    771    790   1    109.5000    292.8800
    770    771    791   1    109.5000    292.8800
    772    771    790   1    110.7000    313.8000
    772    771    791   1    110.7000    313.8000
    790    771    791   1    107.8000    276.1440
    771    772    773   1    112.7000    488.2728
    771    772    792   1    110.7000    313.8000
    771    772    793   1    110.7000    313.8000
    773    772    792   1    110.7000    313.8000
    773    772    793   1    110.7000    313.8000
    792    772    793   1    107.8000    276.1440
    772    773    774   1    112.7000    488.2728
    772    773    794   1    110.7000    313.8000
    772    773    795   1    110.7000    313.8000
    774    773    794   1    110.7000    313.8000
    774    773    795   1    110.7000    313.8000
    794    773    795   1    107.8000    276.1440
    773    774    775   1    112.7000    488.2728
    773    774    796   1    110.7000    313.8000
    773    774    797   1    110.7000    313.8000
    775    774    796   1    110.7000    313.8000
    775    774    797   1    110.7000    313.8000
    796    774    797   1    107.8000    276.1440
    774    775    776   1    112.7000    488.2728
    774    775    798   1    110.7000    313.8000
    774    775    799   1    110.7000    313.8000
    776    775    798   1    110.7000    313.8000
    776    775    799   1    110.7000    313.8000
    798    775    799   1    107.8000    276.1440
    775    776    777   1    112.7000    488.2728
    775    776    800   1    110.7000    313.8000
    775    776    801   1    110.7000    313.8000
    777    776    800   1    110.7000    313.8000
    777    776    801   1    110.7000    313.8000
    800    776    801   1    107.8000    276.1440
    776    777    778   1    112.7000    488.2728
    776    777    802   1    110.7000    313.8000
    776    777    803   1    110.7000    313.8000
    778    777    802   1    110.7000    313.8000
    778    777    803   1    110.7000    313.8000
    802    777    803   1    107.8000    276.1440
    777    778    779   1    112.7000    488.2728
    777    778    804   1    110.7000    313.8000
    777    778    805   1    110.7000    313.8000
    779    778    804   1    110.7000    313.8000
    779    778    805   1    110.7000    313.8000
    804    778    805   1    107.8000    276.1440
    778    779    780   1    112.7000    488.2728
    778    779    806   1    110.7000    313.8000
    778    779    807   1    110.7000    313.8000
    780    779    806   1    110.7000    313.8000
    780    779    807   1    110.7000    313.8000
    806    779    807   1    107.8000    276.1440
    779    780    781   1    109.5000    418.4000
    779    780    808   1    110.7000    313.8000
    779    780    809   1    110.7000    313.8000
    781    780    808   1    109.5000    292.8800
    781    780    809   1    109.5000    292.8800
    808    780    809   1    107.8000    276.1440
    780    781    782   1    116.9000    694.5440
    781    782    783   1    123.4000    694.5440
    781    782    784   1    111.4000    677.8080
    783    782    784   1    120.4000    669.4400
    782    784    785   1    111.1000    527.1840
    782    784    810   1    109.5000    292.8800
    782    784    811   1    109.5000    292.8800
    785    784    810   1    110.7000    313.8000
    785    784    811   1    110.7000    313.8000
    810    784    811   1    107.8000    276.1440
    784    785    786   1    112.7000    488.2728
    784    785    812   1    110.7000    313.8000
    784    785    813   1    110.7000    313.8000
    786    785    812   1    110.7000    313.8000
    786    785    813   1    110.7000    313.8000
    812    785    813   1    107.8000    276.1440
    785    786    787   1    112.7000    488.2728
    785    786    814   1    110.7000    313.8000
    785    786    815   1    110.7000    313.8000
    787    786    814   1    110.7000    313.8000
    787    786    815   1    110.7000    313.8000
    814    786    815   1    107.8000    276.1440
    786    787    788   1    111.1000    527.1840
    786    787    816   1    110.7000    313.8000
    786    787    817   1    110.7000    313.8000
    788    787    816   1    109.5000    292.8800
    788    787    817   1    109.5000    292.8800
    816    787    817   1    107.8000    276.1440
    787    788    789   1    120.4000    669.4400
    787    788    818   1    111.4000    677.8080
    789    788    818   1    123.4000    694.5440
    788    818    819   1    116.9000    694.5440
    818    819    820   1    109.5000    418.4000
    818    819    838   1    109.5000    292.8800
    818    819    839   1    109.5000    292.8800
    820    819    838   1    110.7000    313.8000
    820    819    839   1    110.7000    313.8000
    838    819    839   1    107.8000    276.1440
    819    820    821   1    112.7000    488.2728
    819    820    840   1    110.7000    313.8000
    819    820    841   1    110.7000    313.8000
    821    820    840   1    110.7000    313.8000
    821    820    841   1    110.7000    313.8000
    840    820    841   1    107.8000    276.1440
    820    821    822   1    112.7000    488.2728
    820    821    842   1    110.7000    313.8000
    820    821    843   1    110.7000    313.8000
    822    821    842   1    110.7000    313.8000
    822    821    843   1    110.7000    313.8000
    842    821    843   1    107.8000    276.1440
    821    822    823   1    112.7000    488.2728
    821    822    844   1    110.7000    313.8000
    821    822    845   1    110.7000    313.8000
    823    822    844   1    110.7000    313.8000
    823    822    845   1    110.7000    313.8000
    844    822    845   1    107.8000    276.1440
    822    823    824   1    112.7000    488.2728
    822    823    846   1    110.7000    313.8000
    822    823    847   1    110.7000    313.8000
    824    823    846   1    110.7000    313.8000
    824    823    847   1    110.7000    313.8000
    846    823    847   1    107.8000    276.1440
    823    824    825   1    112.7000    488.2728
    823    824    848   1    110.7000    313.8000
    823    824    849   1    110.7000    313.8000
    825    824    848   1    110.7000    313.8000
    825    824    849   1    110.7000    313.8000
    848    824    849   1    107.8000    276.1440
    824    825    826   1    112.7000    488.2728
    824    825    850   1    110.7000    313.8000
    824    825    851   1    110.7000    313.8000
    826    825    850   1    110.7000    313.8000
    826    825    851   1    110.7000    313.8000
    850    825    851   1    107.8000    276.1440
    825    826    827   1    112.7000    488.2728
    825    826    852   1    110.7000    313.8000
    825    826    853   1    110.7000    313.8000
    827    826    852   1    110.7000    313.8000
    827    826    853   1    110.7000    313.8000
    852    826    853   1    107.8000    276.1440
    826    827    828   1    112.7000    488.2728
    826    827    854   1    110.7000    313.8000
    826    827    855   1    110.7000    313.8000
    828    827    854   1    110.7000    313.8000
    828    827    855   1    110.7000    313.8000
    854    827    855   1    107.8000    276.1440
    827    828    829   1    109.5000    418.4000
    827    828    856   1    110.7000    313.8000
    827    828    857   1    110.7000    313.8000
    829    828    856   1    109.5000    292.8800
    829    828    857   1    109.5000    292.8800
    856    828    857   1    107.8000    276.1440
    828    829    830   1    116.9000    694.5440
    829    830    831   1    123.4000    694.5440
    829    830    832   1    111.4000    677.8080
    831    830    832   1    120.4000    669.4400
    830    832    833   1    111.1000    527.1840
    830    832    858   1    109.5000    292.8800
    830    832    859   1    109.5000    292.8800
    833    832    858   1    110.7000    313.8000
    833    832    859   1    110.7000    313.8000
    858    832    859   1    107.8000    276.1440
    832    833    834   1    112.7000    488.2728
    832    833    860   1    110.7000    313.8000
    832    833    861   1    110.7000    313.8000
    834    833    860   1    110.7000    313.8000
    834    833    861   1    110.7000    313.8000
    860    833    861   1    107.8000    276.1440
    833    834    835   1    112.7000    488.2728
    833    834    862   1    110.7000    313.8000
    833    834    863   1    110.7000    313.8000
    835    834    862   1    110.7000    313.8000
    835    834    863   1    110.7000    313.8000
    862    834    863   1    107.8000    276.1440
    834    835    836   1    111.1000    527.1840
    834    835    864   1    110.7000    313.8000
    834    835    865   1    110.7000    313.8000
    836    835    864   1    109.5000    292.8800
    836    835    865   1    109.5000    292.8800
    864    835    865   1    107.8000    276.1440
    835    836    837   1    120.4000    669.4400
    835    836    866   1    111.4000    677.8080
    837    836    866   1    123.4000    694.5440
    836    866    867   1    116.9000    694.5440
    866    867    868   1    109.5000    418.4000
    866    867    886   1    109.5000    292.8800
    866    867    887   1    109.5000    292.8800
    868    867    886   1    110.7000    313.8000
    868    867    887   1    110.7000    313.8000
    886    867    887   1    107.8000    276.1440
    867    868    869   1    112.7000    488.2728
    867    868    888   1    110.7000    313.8000
    867    868    889   1    110.7000    313.8000
    869    868    888   1    110.7000    313.8000
    869    868    889   1    110.7000    313.8000
    888    868    889   1    107.8000    276.1440
    868    869    870   1    112.7000    488.2728
    868    869    890   1    110.7000    313.8000
    868    869    891   1    110.7000    313.8000
    870    869    890   1    110.7000    313.8000
    870    869    891   1    110.7000    313.8000
    890    869    891   1    107.8000    276.1440
    869    870    871   1    112.7000    488.2728
    869    870    892   1    110.7000    313.8000
    869    870    893   1    110.7000    313.8000
    871    870    892   1    110.7000    313.8000
    871    870    893   1    110.7000    313.8000
    892    870    893   1    107.8000    276.1440
    870    871    872   1    112.7000    488.2728
    870    871    894   1    110.7000    313.8000
    870    871    895   1    110.7000    313.8000
    872    871    894   1    110.7000    313.8000
    872    871    895   1    110.7000    313.8000
    894    871    895   1    107.8000    276.1440
    871    872    873   1    112.7000    488.2728
    871    872    896   1    110.7000    313.8000
    871    872    897   1    110.7000    313.8000
    873    872    896   1    110.7000    313.8000
    873    872    897   1    110.7000    313.8000
    896    872    897   1    107.8000    276.1440
    872    873    874   1    112.7000    488.2728
    872    873    898   1    110.7000    313.8000
    872    873    899   1    110.7000    313.8000
    874    873    898   1    110.7000    313.8000
    874    873    899   1    110.7000    313.8000
    898    873    899   1    107.8000    276.1440
    873    874    875   1    112.7000    488.2728
    873    874    900   1    110.7000    313.8000
    873    874    901   1    110.7000    313.8000
    875    874    900   1    110.7000    313.8000
    875    874    901   1    110.7000    313.8000
    900    874    901   1    107.8000    276.1440
    874    875    876   1    112.7000    488.2728
    874    875    902   1    110.7000    313.8000
    874    875    903   1    110.7000    313.8000
    876    875    902   1    110.7000    313.8000
    876    875    903   1    110.7000    313.8000
    902    875    903   1    107.8000    276.1440
    875    876    877   1    109.5000    418.4000
    875    876    904   1    110.7000    313.8000
    875    876    905   1    110.7000    313.8000
    877    876    904   1    109.5000    292.8800
    877    876    905   1    109.5000    292.8800
    904    876    905   1    107.8000    276.1440
    876    877    878   1    116.9000    694.5440
    877    878    879   1    123.4000    694.5440
    877    878    880   1    111.4000    677.8080
    879    878    880   1    120.4000    669.4400
    878    880    881   1    111.1000    527.1840
    878    880    906   1    109.5000    292.8800
    878    880    907   1    109.5000    292.8800
    881    880    906   1    110.7000    313.8000
    881    880    907   1    110.7000    313.8000
    906    880    907   1    107.8000    276.1440
    880    881    882   1    112.7000    488.2728
    880    881    908   1    110.7000    313.8000
    880    881    909   1    110.7000    313.8000
    882    881    908   1    110.7000    313.8000
    882    881    909   1    110.7000    313.8000
    908    881    909   1    107.8000    276.1440
    881    882    883   1    112.7000    488.2728
    881    882    910   1    110.7000    313.8000
    881    882    911   1    110.7000    313.8000
    883    882    910   1    110.7000    313.8000
    883    882    911   1    110.7000    313.8000
    910    882    911   1    107.8000    276.1440
    882    883    884   1    111.1000    527.1840
    882    883    912   1    110.7000    313.8000
    882    883    913   1    110.7000    313.8000
    884    883    912   1    109.5000    292.8800
    884    883    913   1    109.5000    292.8800
    912    883    913   1    107.8000    276.1440
    883    884    885   1    120.4000    669.4400
    883    884    914   1    111.4000    677.8080
    885    884    914   1    123.4000    694.5440
    884    914    915   1    116.9000    694.5440
    914    915    916   1    109.5000    418.4000
    914    915    934   1    109.5000    292.8800
    914    915    935   1    109.5000    292.8800
    916    915    934   1    110.7000    313.8000
    916    915    935   1    110.7000    313.8000
    934    915    935   1    107.8000    276.1440
    915    916    917   1    112.7000    488.2728
    915    916    936   1    110.7000    313.8000
    915    916    937   1    110.7000    313.8000
    917    916    936   1    110.7000    313.8000
    917    916    937   1    110.7000    313.8000
    936    916    937   1    107.8000    276.1440
    916    917    918   1    112.7000    488.2728
    916    917    938   1    110.7000    313.8000
    916    917    939   1    110.7000    313.8000
    918    917    938   1    110.7000    313.8000
    918    917    939   1    110.7000    313.8000
    938    917    939   1    107.8000    276.1440
    917    918    919   1    112.7000    488.2728
    917    918    940   1    110.7000    313.8000
    917    918    941   1    110.7000    313.8000
    919    918    940   1    110.7000    313.8000
    919    918    941   1    110.7000    313.8000
    940    918    941   1    107.8000    276.1440
    918    919    920   1    112.7000    488.2728
    918    919    942   1    110.7000    313.8000
    918    919    943   1    110.7000    313.8000
    920    919    942   1    110.7000    313.8000
    920    919    943   1    110.7000    313.8000
    942    919    943   1    107.8000    276.1440
    919    920    921   1    112.7000    488.2728
    919    920    944   1    110.7000    313.8000
    919    920    945   1    110.7000    313.8000
    921    920    944   1    110.7000    313.8000
    921    920    945   1    110.7000    313.8000
    944    920    945   1    107.8000    276.1440
    920    921    922   1    112.7000    488.2728
    920    921    946   1    110.7000    313.8000
    920    921    947   1    110.7000    313.8000
    922    921    946   1    110.7000    313.8000
    922    921    947   1    110.7000    313.8000
    946    921    947   1    107.8000    276.1440
    921    922    923   1    112.7000    488.2728
    921    922    948   1    110.7000    313.8000
    921    922    949   1    110.7000    313.8000
    923    922    948   1    110.7000    313.8000
    923    922    949   1    110.7000    313.8000
    948    922    949   1    107.8000    276.1440
    922    923    924   1    112.7000    488.2728
    922    923    950   1    110.7000    313.8000
    922    923    951   1    110.7000    313.8000
    924    923    950   1    110.7000    313.8000
    924    923    951   1    110.7000    313.8000
    950    923    951   1    107.8000    276.1440
    923    924    925   1    109.5000    418.4000
    923    924    952   1    110.7000    313.8000
    923    924    953   1    110.7000    313.8000
    925    924    952   1    109.5000    292.8800
    925    924    953   1    109.5000    292.8800
    952    924    953   1    107.8000    276.1440
    924    925    926   1    116.9000    694.5440
    925    926    927   1    123.4000    694.5440
    925    926    928   1    111.4000    677.8080
    927    926    928   1    120.4000    669.4400
    926    928    929   1    111.1000    527.1840
    926    928    954   1    109.5000    292.8800
    926    928    955   1    109.5000    292.8800
    929    928    954   1    110.7000    313.8000
    929    928    955   1    110.7000    313.8000
    954    928    955   1    107.8000    276.1440
    928    929    930   1    112.7000    488.2728
    928    929    956   1    110.7000    313.8000
    928    929    957   1    110.7000    313.8000
    930    929    956   1    110.7000    313.8000
    930    929    957   1    110.7000    313.8000
    956    929    957   1    107.8000    276.1440
    929    930    931   1    112.7000    488.2728
    929    930    958   1    110.7000    313.8000
    929    930    959   1    110.7000    313.8000
    931    930    958   1    110.7000    313.8000
    931    930    959   1    110.7000    313.8000
    958    930    959   1    107.8000    276.1440
    930    931    932   1    111.1000    527.1840
    930    931    960   1    110.7000    313.8000
    930    931    961   1    110.7000    313.8000
    932    931    960   1    109.5000    292.8800
    932    931    961   1    109.5000    292.8800
    960    931    961   1    107.8000    276.1440
    931    932    933   1    120.4000    669.4400
    931    932    962   1    115.0000    292.8800
    933    932    962   1    123.0000    292.8800

[ dihedrals ]
; Proper dihedrals
     49      1      2      3   5    -0.97069    -0.79078     1.77820  0.0
     49      1      2     21   5     0.00000     0.00000     1.62758  0.0
     49      1      2     22   5     0.00000     0.00000     1.62758  0.0
      1      2      3      4   5     7.23832    -1.46440     1.74054  0.0
      1      2      3     23   5     0.00000     0.00000     1.95811  0.0
      1      2      3     24   5     0.00000     0.00000     1.95811  0.0
     21      2      3      4   5     0.00000     0.00000     1.25520  0.0
     21      2      3     23   5     0.00000     0.00000     1.25520  0.0
     21      2      3     24   5     0.00000     0.00000     1.25520  0.0
     22      2      3      4   5     0.00000     0.00000     1.25520  0.0
     22      2      3     23   5     0.00000     0.00000     1.25520  0.0
     22      2      3     24   5     0.00000     0.00000     1.25520  0.0
      2      3      4      5   5     4.74884    -0.63178     1.67360  0.0
      2      3      4     25   5     0.00000     0.00000     1.25520  0.0
      2      3      4     26   5     0.00000     0.00000     1.25520  0.0
     23      3      4      5   5     0.00000     0.00000     1.25520  0.0
     23      3      4     25   5     0.00000     0.00000     1.25520  0.0
     23      3      4     26   5     0.00000     0.00000     1.25520  0.0
     24      3      4      5   5     0.00000     0.00000     1.25520  0.0
     24      3      4     25   5     0.00000     0.00000     1.25520  0.0
     24      3      4     26   5     0.00000     0.00000     1.25520  0.0
      3      4      5      6   5     4.74884    -0.63178     1.67360  0.0
      3      4      5     27   5     0.00000     0.00000     1.25520  0.0
      3      4      5     28   5     0.00000     0.00000     1.25520  0.0
     25      4      5      6   5     0.00000     0.00000     1.25520  0.0
     25      4      5     27   5     0.00000     0.00000     1.25520  0.0
     25      4      5     28   5     0.00000     0.00000     1.25520  0.0
     26      4      5      6   5     0.00000     0.00000     1.25520  0.0
     26      4      5     27   5     0.00000     0.00000     1.25520  0.0
     26      4      5     28   5     0.00000     0.00000     1.25520  0.0
      4      5      6      7   5     4.74884    -0.63178     1.67360  0.0
      4      5      6     29   5     0.00000     0.00000     1.25520  0.0
      4      5      6     30   5     0.00000     0.00000     1.25520  0.0
     27      5      6      7   5     0.00000     0.00000     1.25520  0.0
     27      5      6     29   5     0.00000     0.00000     1.25520  0.0
     27      5      6     30   5     0.00000     0.00000     1.25520  0.0
     28      5      6      7   5     0.00000     0.00000     1.25520  0.0
     28      5      6     29   5     0.00000     0.00000     1.25520  0.0
     28      5      6     30   5     0.00000     0.00000     1.25520  0.0
      5      6      7      8   5     4.74884    -0.63178     1.67360  0.0
      5      6      7     31   5     0.00000     0.00000     1.25520  0.0
      5      6      7     32   5     0.00000     0.00000     1.25520  0.0
     29      6      7      8   5     0.00000     0.00000     1.25520  0.0
     29      6      7     31   5     0.00000     0.00000     1.25520  0.0
     29      6      7     32   5     0.00000     0.00000     1.25520  0.0
     30      6      7      8   5     0.00000     0.00000     1.25520  0.0
     30      6      7     31   5     0.00000     0.00000     1.25520  0.0
     30      6      7     32   5     0.00000     0.00000     1.25520  0.0
      6      7      8      9   5     4.74884    -0.63178     1.67360  0.0
      6      7      8     33   5     0.00000     0.00000     1.25520  0.0
      6      7      8     34   5     0.00000     0.00000     1.25520  0.0
     31      7      8      9   5     0.00000     0.00000     1.25520  0.0
     31      7      8     33   5     0.00000     0.00000     1.25520  0.0
     31      7      8     34   5     0.00000     0.00000     1.25520  0.0
     32      7      8      9   5     0.00000     0.00000     1.25520  0.0
     32      7      8     33   5     0.00000     0.00000     1.25520  0.0
     32      7      8     34   5     0.00000     0.00000     1.25520  0.0
      7      8      9     10   5     4.74884    -0.63178     1.67360  0.0
      7      8      9     35   5     0.00000     0.00000     1.25520  0.0
      7      8      9     36   5     0.00000     0.00000     1.25520  0.0
     33      8      9     10   5     0.00000     0.00000     1.25520  0.0
     33      8      9     35   5     0.00000     0.00000     1.25520  0.0
     33      8      9     36   5     0.00000     0.00000     1.25520  0.0
     34      8      9     10   5     0.00000     0.00000     1.25520  0.0
     34      8      9     35   5     0.00000     0.00000     1.25520  0.0
     34      8      9     36   5     0.00000     0.00000     1.25520  0.0
      8      9     10     11   5     4.74884    -0.63178     1.67360  0.0
      8      9     10     37   5     0.00000     0.00000     1.25520  0.0
      8      9     10     38   5     0.00000     0.00000     1.25520  0.0
     35      9     10     11   5     0.00000     0.00000     1.25520  0.0
     35      9     10     37   5     0.00000     0.00000     1.25520  0.0
     35      9     10     38   5     0.00000     0.00000     1.25520  0.0
     36      9     10     11   5     0.00000     0.00000     1.25520  0.0
     36      9     10     37   5     0.00000     0.00000     1.25520  0.0
     36      9     10     38   5     0.00000     0.00000     1.25520  0.0
      9     10     11     12   5     5.25092    -2.58990     2.28446  0.0
      9     10     11     39   5     0.00000     0.00000     1.25520  0.0
      9     10     11     40   5     0.00000     0.00000     1.25520  0.0
     37     10     11     12   5     0.00000     0.00000     1.95811  0.0
     37     10     11     39   5     0.00000     0.00000     1.25520  0.0
     37     10     11     40   5     0.00000     0.00000     1.25520  0.0
     38     10     11     12   5     0.00000     0.00000     1.95811  0.0
     38     10     11     39   5     0.00000     0.00000     1.25520  0.0
     38     10     11     40   5     0.00000     0.00000     1.25520  0.0
     10     11     12     13   5    -2.16731    -3.93296     0.98324  0.0
     39     11     12     13   5     0.00000     0.00000     0.67362  0.0
     40     11     12     13   5     0.00000     0.00000     0.67362  0.0
     11     12     13     14   5     0.00000    25.10400     0.00000  0.0
     11     12     13     15   5    13.65239    24.43456     0.00000  0.0
     12     13     15     16   5     0.00000     0.00000     3.07524  0.0
     12     13     15     41   5     0.00000     0.00000     0.00000  0.0
     12     13     15     42   5     0.00000     0.00000     0.00000  0.0
     14     13     15     16   5     0.00000     2.52295     0.00000  0.0
     14     13     15     41   5     0.00000     0.00000     0.00000  0.0
     14     13     15     42   5     0.00000     0.00000     0.00000  0.0
     13     15     16     17   5    -8.00818    -1.52298     2.46438  0.0
     13     15     16     43   5     0.00000     0.00000    -0.94140  0.0
     13     15     16     44   5     0.00000     0.00000    -0.94140  0.0
     41     15     16     17   5     0.00000     0.00000     1.25520  0.0
     41     15     16     43   5     0.00000     0.00000     1.25520  0.0
     41     15     16     44   5     0.00000     0.00000     1.25520  0.0
     42     15     16     17   5     0.00000     0.00000     1.25520  0.0
     42     15     16     43   5     0.00000     0.00000     1.25520  0.0
     42     15     16     44   5     0.00000     0.00000     1.25520  0.0
     15     16     17     18   5     4.74884    -0.63178     1.67360  0.0
     15     16     17     45   5     0.00000     0.00000     1.25520  0.0
     15     16     17     46   5     0.00000     0.00000     1.25520  0.0
     43     16     17     18   5     0.00000     0.00000     1.25520  0.0
     43     16     17     45   5     0.00000     0.00000     1.25520  0.0
     43     16     17     46   5     0.00000     0.00000     1.25520  0.0
     44     16     17     18   5     0.00000     0.00000     1.25520  0.0
     44     16     17     45   5     0.00000     0.00000     1.25520  0.0
     44     16     17     46   5     0.00000     0.00000     1.25520  0.0
     16     17     18     19   5    -8.00818    -1.52298     2.46438  0.0
     16     17     18     47   5     0.00000     0.00000     1.25520  0.0
     16     17     18     48   5     0.00000     0.00000     1.25520  0.0
     45     17     18     19   5     0.00000     0.00000    -0.94140  0.0
     45     17     18     47   5     0.00000     0.00000     1.25520  0.0
     45     17     18     48   5     0.00000     0.00000     1.25520  0.0
     46     17     18     19   5     0.00000     0.00000    -0.94140  0.0
     46     17     18     47   5     0.00000     0.00000     1.25520  0.0
     46     17     18     48   5     0.00000     0.00000     1.25520  0.0
     17     18     19     20   5     0.00000     2.52295     0.00000  0.0
     17     18     19     50   5     0.00000     0.00000     3.07524  0.0
     47     18     19     20   5     0.00000     0.00000     0.00000  0.0
     47     18     19     50   5     0.00000     0.00000     0.00000  0.0
     48     18     19     20   5     0.00000     0.00000     0.00000  0.0
     48     18     19     50   5     0.00000     0.00000     0.00000  0.0
     18     19     50     51   5    13.65239    24.43456     0.00000  0.0
     20     19     50     51   5     0.00000    25.10400     0.00000  0.0
     19     50     51     52   5    -2.16731    -3.93296     0.98324  0.0
     19     50     51     70   5     0.00000     0.00000     0.67362  0.0
     19     50     51     71   5     0.00000     0.00000     0.67362  0.0
     50     51     52     53   5     5.25092    -2.58990     2.28446  0.0
     50     51     52     72   5     0.00000     0.00000     1.95811  0.0
     50     51     52     73   5     0.00000     0.00000     1.95811  0.0
     70     51     52     53   5     0.00000     0.00000     1.25520  0.0
     70     51     52     72   5     0.00000     0.00000     1.25520  0.0
     70     51     52     73   5     0.00000     0.00000     1.25520  0.0
     71     51     52     53   5     0.00000     0.00000     1.25520  0.0
     71     51     52     72   5     0.00000     0.00000     1.25520  0.0
     71     51     52     73   5     0.00000     0.00000     1.25520  0.0
     51     52     53     54   5     4.74884    -0.63178     1.67360  0.0
     51     52     53     74   5     0.00000     0.00000     1.25520  0.0
     51     52     53     75   5     0.00000     0.00000     1.25520  0.0
     72     52     53     54   5     0.00000     0.00000     1.25520  0.0
     72     52     53     74   5     0.00000     0.00000     1.25520  0.0
     72     52     53     75   5     0.00000     0.00000     1.25520  0.0
     73     52     53     54   5     0.00000     0.00000     1.25520  0.0
     73     52     53     74   5     0.00000     0.00000     1.25520  0.0
     73     52     53     75   5     0.00000     0.00000     1.25520  0.0
     52     53     54     55   5     4.74884    -0.63178     1.67360  0.0
     52     53     54     76   5     0.00000     0.00000     1.25520  0.0
     52     53     54     77   5     0.00000     0.00000     1.25520  0.0
     74     53     54     55   5     0.00000     0.00000     1.25520  0.0
     74     53     54     76   5     0.00000     0.00000     1.25520  0.0
     74     53     54     77   5     0.00000     0.00000     1.25520  0.0
     75     53     54     55   5     0.00000     0.00000     1.25520  0.0
     75     53     54     76   5     0.00000     0.00000     1.25520  0.0
     75     53     54     77   5     0.00000     0.00000     1.25520  0.0
     53     54     55     56   5     4.74884    -0.63178     1.67360  0.0
     53     54     55     78   5     0.00000     0.00000     1.25520  0.0
     53     54     55     79   5     0.00000     0.00000     1.25520  0.0
     76     54     55     56   5     0.00000     0.00000     1.25520  0.0
     76     54     55     78   5     0.00000     0.00000     1.25520  0.0
     76     54     55     79   5     0.00000     0.00000     1.25520  0.0
     77     54     55     56   5     0.00000     0.00000     1.25520  0.0
     77     54     55     78   5     0.00000     0.00000     1.25520  0.0
     77     54     55     79   5     0.00000     0.00000     1.25520  0.0
     54     55     56     57   5     4.74884    -0.63178     1.67360  0.0
     54     55     56     80   5     0.00000     0.00000     1.25520  0.0
     54     55     56     81   5     0.00000     0.00000     1.25520  0.0
     78     55     56     57   5     0.00000     0.00000     1.25520  0.0
     78     55     56     80   5     0.00000     0.00000     1.25520  0.0
     78     55     56     81   5     0.00000     0.00000     1.25520  0.0
     79     55     56     57   5     0.00000     0.00000     1.25520  0.0
     79     55     56     80   5     0.00000     0.00000     1.25520  0.0
     79     55     56     81   5     0.00000     0.00000     1.25520  0.0
     55     56     57     58   5     4.74884    -0.63178     1.67360  0.0
     55     56     57     82   5     0.00000     0.00000     1.25520  0.0
     55     56     57     83   5     0.00000     0.00000     1.25520  0.0
     80     56     57     58   5     0.00000     0.00000     1.25520  0.0
     80     56     57     82   5     0.00000     0.00000     1.25520  0.0
     80     56     57     83   5     0.00000     0.00000     1.25520  0.0
     81     56     57     58   5     0.00000     0.00000     1.25520  0.0
     81     56     57     82   5     0.00000     0.00000     1.25520  0.0
     81     56     57     83   5     0.00000     0.00000     1.25520  0.0
     56     57     58     59   5     4.74884    -0.63178     1.67360  0.0
     56     57     58     84   5     0.00000     0.00000     1.25520  0.0
     56     57     58     85   5     0.00000     0.00000     1.25520  0.0
     82     57     58     59   5     0.00000     0.00000     1.25520  0.0
     82     57     58     84   5     0.00000     0.00000     1.25520  0.0
     82     57     58     85   5     0.00000     0.00000     1.25520  0.0
     83     57     58     59   5     0.00000     0.00000     1.25520  0.0
     83     57     58     84   5     0.00000     0.00000     1.25520  0.0
     83     57     58     85   5     0.00000     0.00000     1.25520  0.0
     57     58     59     60   5     4.74884    -0.63178     1.67360  0.0
     57     58     59     86   5     0.00000     0.00000     1.25520  0.0
     57     58     59     87   5     0.00000     0.00000     1.25520  0.0
     84     58     59     60   5     0.00000     0.00000     1.25520  0.0
     84     58     59     86   5     0.00000     0.00000     1.25520  0.0
     84     58     59     87   5     0.00000     0.00000     1.25520  0.0
     85     58     59     60   5     0.00000     0.00000     1.25520  0.0
     85     58     59     86   5     0.00000     0.00000     1.25520  0.0
     85     58     59     87   5     0.00000     0.00000     1.25520  0.0
     58     59     60     61   5     5.25092    -2.58990     2.28446  0.0
     58     59     60     88   5     0.00000     0.00000     1.25520  0.0
     58     59     60     89   5     0.00000     0.00000     1.25520  0.0
     86     59     60     61   5     0.00000     0.00000     1.95811  0.0
     86     59     60     88   5     0.00000     0.00000     1.25520  0.0
     86     59     60     89   5     0.00000     0.00000     1.25520  0.0
     87     59     60     61   5     0.00000     0.00000     1.95811  0.0
     87     59     60     88   5     0.00000     0.00000     1.25520  0.0
     87     59     60     89   5     0.00000     0.00000     1.25520  0.0
     59     60     61     62   5    -2.16731    -3.93296     0.98324  0.0
     88     60     61     62   5     0.00000     0.00000     0.67362  0.0
     89     60     61     62   5     0.00000     0.00000     0.67362  0.0
     60     61     62     63   5     0.00000    25.10400     0.00000  0.0
     60     61     62     64   5    13.65239    24.43456     0.00000  0.0
     61     62     64     65   5     0.00000     0.00000     3.07524  0.0
     61     62     64     90   5     0.00000     0.00000     0.00000  0.0
     61     62     64     91   5     0.00000     0.00000     0.00000  0.0
     63     62     64     65   5     0.00000     2.52295     0.00000  0.0
     63     62     64     90   5     0.00000     0.00000     0.00000  0.0
     63     62     64     91   5     0.00000     0.00000     0.00000  0.0
     62     64     65     66   5    -8.00818    -1.52298     2.46438  0.0
     62     64     65     92   5     0.00000     0.00000    -0.94140  0.0
     62     64     65     93   5     0.00000     0.00000    -0.94140  0.0
     90     64     65     66   5     0.00000     0.00000     1.25520  0.0
     90     64     65     92   5     0.00000     0.00000     1.25520  0.0
     90     64     65     93   5     0.00000     0.00000     1.25520  0.0
     91     64     65     66   5     0.00000     0.00000     1.25520  0.0
     91     64     65     92   5     0.00000     0.00000     1.25520  0.0
     91     64     65     93   5     0.00000     0.00000     1.25520  0.0
     64     65     66     67   5     4.74884    -0.63178     1.67360  0.0
     64     65     66     94   5     0.00000     0.00000     1.25520  0.0
     64     65     66     95   5     0.00000     0.00000     1.25520  0.0
     92     65     66     67   5     0.00000     0.00000     1.25520  0.0
     92     65     66     94   5     0.00000     0.00000     1.25520  0.0
     92     65     66     95   5     0.00000     0.00000     1.25520  0.0
     93     65     66     67   5     0.00000     0.00000     1.25520  0.0
     93     65     66     94   5     0.00000     0.00000     1.25520  0.0
     93     65     66     95   5     0.00000     0.00000     1.25520  0.0
     65     66     67     68   5    -8.00818    -1.52298     2.46438  0.0
     65     66     67     96   5     0.00000     0.00000     1.25520  0.0
     65     66     67     97   5     0.00000     0.00000     1.25520  0.0
     94     66     67     68   5     0.00000     0.00000    -0.94140  0.0
     94     66     67     96   5     0.00000     0.00000     1.25520  0.0
     94     66     67     97   5     0.00000     0.00000     1.25520  0.0
     95     66     67     68   5     0.00000     0.00000    -0.94140  0.0
     95     66     67     96   5     0.00000     0.00000     1.25520  0.0
     95     66     67     97   5     0.00000     0.00000     1.25520  0.0
     66     67     68     69   5     0.00000     2.52295     0.00000  0.0
     66     67     68     98   5     0.00000     0.00000     3.07524  0.0
     96     67     68     69   5     0.00000     0.00000     0.00000  0.0
     96     67     68     98   5     0.00000     0.00000     0.00000  0.0
     97     67     68     69   5     0.00000     0.00000     0.00000  0.0
     97     67     68     98   5     0.00000     0.00000     0.00000  0.0
     67     68     98     99   5    13.65239    24.43456     0.00000  0.0
     69     68     98     99   5     0.00000    25.10400     0.00000  0.0
     68     98     99    100   5    -2.16731    -3.93296     0.98324  0.0
     68     98     99    118   5     0.00000     0.00000     0.67362  0.0
     68     98     99    119   5     0.00000     0.00000     0.67362  0.0
     98     99    100    101   5     5.25092    -2.58990     2.28446  0.0
     98     99    100    120   5     0.00000     0.00000     1.95811  0.0
     98     99    100    121   5     0.00000     0.00000     1.95811  0.0
    118     99    100    101   5     0.00000     0.00000     1.25520  0.0
    118     99    100    120   5     0.00000     0.00000     1.25520  0.0
    118     99    100    121   5     0.00000     0.00000     1.25520  0.0
    119     99    100    101   5     0.00000     0.00000     1.25520  0.0
    119     99    100    120   5     0.00000     0.00000     1.25520  0.0
    119     99    100    121   5     0.00000     0.00000     1.25520  0.0
     99    100    101    102   5     4.74884    -0.63178     1.67360  0.0
     99    100    101    122   5     0.00000     0.00000     1.25520  0.0
     99    100    101    123   5     0.00000     0.00000     1.25520  0.0
    120    100    101    102   5     0.00000     0.00000     1.25520  0.0
    120    100    101    122   5     0.00000     0.00000     1.25520  0.0
    120    100    101    123   5     0.00000     0.00000     1.25520  0.0
    121    100    101    102   5     0.00000     0.00000     1.25520  0.0
    121    100    101    122   5     0.00000     0.00000     1.25520  0.0
    121    100    101    123   5     0.00000     0.00000     1.25520  0.0
    100    101    102    103   5     4.74884    -0.63178     1.67360  0.0
    100    101    102    124   5     0.00000     0.00000     1.25520  0.0
    100    101    102    125   5     0.00000     0.00000     1.25520  0.0
    122    101    102    103   5     0.00000     0.00000     1.25520  0.0
    122    101    102    124   5     0.00000     0.00000     1.25520  0.0
    122    101    102    125   5     0.00000     0.00000     1.25520  0.0
    123    101    102    103   5     0.00000     0.00000     1.25520  0.0
    123    101    102    124   5     0.00000     0.00000     1.25520  0.0
    123    101    102    125   5     0.00000     0.00000     1.25520  0.0
    101    102    103    104   5     4.74884    -0.63178     1.67360  0.0
    101    102    103    126   5     0.00000     0.00000     1.25520  0.0
    101    102    103    127   5     0.00000     0.00000     1.25520  0.0
    124    102    103    104   5     0.00000     0.00000     1.25520  0.0
    124    102    103    126   5     0.00000     0.00000     1.25520  0.0
    124    102    103    127   5     0.00000     0.00000     1.25520  0.0
    125    102    103    104   5     0.00000     0.00000     1.25520  0.0
    125    102    103    126   5     0.00000     0.00000     1.25520  0.0
    125    102    103    127   5     0.00000     0.00000     1.25520  0.0
    102    103    104    105   5     4.74884    -0.63178     1.67360  0.0
    102    103    104    128   5     0.00000     0.00000     1.25520  0.0
    102    103    104    129   5     0.00000     0.00000     1.25520  0.0
    126    103    104    105   5     0.00000     0.00000     1.25520  0.0
    126    103    104    128   5     0.00000     0.00000     1.25520  0.0
    126    103    104    129   5     0.00000     0.00000     1.25520  0.0
    127    103    104    105   5     0.00000     0.00000     1.25520  0.0
    127    103    104    128   5     0.00000     0.00000     1.25520  0.0
    127    103    104    129   5     0.00000     0.00000     1.25520  0.0
    103    104    105    106   5     4.74884    -0.63178     1.67360  0.0
    103    104    105    130   5     0.00000     0.00000     1.25520  0.0
    103    104    105    131   5     0.00000     0.00000     1.25520  0.0
    128    104    105    106   5     0.00000     0.00000     1.25520  0.0
    128    104    105    130   5     0.00000     0.00000     1.25520  0.0
    128    104    105    131   5     0.00000     0.00000     1.25520  0.0
    129    104    105    106   5     0.00000     0.00000     1.25520  0.0
    129    104    105    130   5     0.00000     0.00000     1.25520  0.0
    129    104    105    131   5     0.00000     0.00000     1.25520  0.0
    104    105    106    107   5     4.74884    -0.63178     1.67360  0.0
    104    105    106    132   5     0.00000     0.00000     1.25520  0.0
    104    105    106    133   5     0.00000     0.00000     1.25520  0.0
    130    105    106    107   5     0.00000     0.00000     1.25520  0.0
    130    105    106    132   5     0.00000     0.00000     1.25520  0.0
    130    105    106    133   5     0.00000     0.00000     1.25520  0.0
    131    105    106    107   5     0.00000     0.00000     1.25520  0.0
    131    105    106    132   5     0.00000     0.00000     1.25520  0.0
    131    105    106    133   5     0.00000     0.00000     1.25520  0.0
    105    106    107    108   5     4.74884    -0.63178     1.67360  0.0
    105    106    107    134   5     0.00000     0.00000     1.25520  0.0
    105    106    107    135   5     0.00000     0.00000     1.25520  0.0
    132    106    107    108   5     0.00000     0.00000     1.25520  0.0
    132    106    107    134   5     0.00000     0.00000     1.25520  0.0
    132    106    107    135   5     0.00000     0.00000     1.25520  0.0
    133    106    107    108   5     0.00000     0.00000     1.25520  0.0
    133    106    107    134   5     0.00000     0.00000     1.25520  0.0
    133    106    107    135   5     0.00000     0.00000     1.25520  0.0
    106    107    108    109   5     5.25092    -2.58990     2.28446  0.0
    106    107    108    136   5     0.00000     0.00000     1.25520  0.0
    106    107    108    137   5     0.00000     0.00000     1.25520  0.0
    134    107    108    109   5     0.00000     0.00000     1.95811  0.0
    134    107    108    136   5     0.00000     0.00000     1.25520  0.0
    134    107    108    137   5     0.00000     0.00000     1.25520  0.0
    135    107    108    109   5     0.00000     0.00000     1.95811  0.0
    135    107    108    136   5     0.00000     0.00000     1.25520  0.0
    135    107    108    137   5     0.00000     0.00000     1.25520  0.0
    107    108    109    110   5    -2.16731    -3.93296     0.98324  0.0
    136    108    109    110   5     0.00000     0.00000     0.67362  0.0
    137    108    109    110   5     0.00000     0.00000     0.67362  0.0
    108    109    110    111   5     0.00000    25.10400     0.00000  0.0
    108    109    110    112   5    13.65239    24.43456     0.00000  0.0
    109    110    112    113   5     0.00000     0.00000     3.07524  0.0
    109    110    112    138   5     0.00000     0.00000     0.00000  0.0
    109    110    112    139   5     0.00000     0.00000     0.00000  0.0
    111    110    112    113   5     0.00000     2.52295     0.00000  0.0
    111    110    112    138   5     0.00000     0.00000     0.00000  0.0
    111    110    112    139   5     0.00000     0.00000     0.00000  0.0
    110    112    113    114   5    -8.00818    -1.52298     2.46438  0.0
    110    112    113    140   5     0.00000     0.00000    -0.94140  0.0
    110    112    113    141   5     0.00000     0.00000    -0.94140  0.0
    138    112    113    114   5     0.00000     0.00000     1.25520  0.0
    138    112    113    140   5     0.00000     0.00000     1.25520  0.0
    138    112    113    141   5     0.00000     0.00000     1.25520  0.0
    139    112    113    114   5     0.00000     0.00000     1.25520  0.0
    139    112    113    140   5     0.00000     0.00000     1.25520  0.0
    139    112    113    141   5     0.00000     0.00000     1.25520  0.0
    112    113    114    115   5     4.74884    -0.63178     1.67360  0.0
    112    113    114    142   5     0.00000     0.00000     1.25520  0.0
    112    113    114    143   5     0.00000     0.00000     1.25520  0.0
    140    113    114    115   5     0.00000     0.00000     1.25520  0.0
    140    113    114    142   5     0.00000     0.00000     1.25520  0.0
    140    113    114    143   5     0.00000     0.00000     1.25520  0.0
    141    113    114    115   5     0.00000     0.00000     1.25520  0.0
    141    113    114    142   5     0.00000     0.00000     1.25520  0.0
    141    113    114    143   5     0.00000     0.00000     1.25520  0.0
    113    114    115    116   5    -8.00818    -1.52298     2.46438  0.0
    113    114    115    144   5     0.00000     0.00000     1.25520  0.0
    113    114    115    145   5     0.00000     0.00000     1.25520  0.0
    142    114    115    116   5     0.00000     0.00000    -0.94140  0.0
    142    114    115    144   5     0.00000     0.00000     1.25520  0.0
    142    114    115    145   5     0.00000     0.00000     1.25520  0.0
    143    114    115    116   5     0.00000     0.00000    -0.94140  0.0
    143    114    115    144   5     0.00000     0.00000     1.25520  0.0
    143    114    115    145   5     0.00000     0.00000     1.25520  0.0
    114    115    116    117   5     0.00000     2.52295     0.00000  0.0
    114    115    116    146   5     0.00000     0.00000     3.07524  0.0
    144    115    116    117   5     0.00000     0.00000     0.00000  0.0
    144    115    116    146   5     0.00000     0.00000     0.00000  0.0
    145    115    116    117   5     0.00000     0.00000     0.00000  0.0
    145    115    116    146   5     0.00000     0.00000     0.00000  0.0
    115    116    146    147   5    13.65239    24.43456     0.00000  0.0
    117    116    146    147   5     0.00000    25.10400     0.00000  0.0
    116    146    147    148   5    -2.16731    -3.93296     0.98324  0.0
    116    146    147    166   5     0.00000     0.00000     0.67362  0.0
    116    146    147    167   5     0.00000     0.00000     0.67362  0.0
    146    147    148    149   5     5.25092    -2.58990     2.28446  0.0
    146    147    148    168   5     0.00000     0.00000     1.95811  0.0
    146    147    148    169   5     0.00000     0.00000     1.95811  0.0
    166    147    148    149   5     0.00000     0.00000     1.25520  0.0
    166    147    148    168   5     0.00000     0.00000     1.25520  0.0
    166    147    148    169   5     0.00000     0.00000     1.25520  0.0
    167    147    148    149   5     0.00000     0.00000     1.25520  0.0
    167    147    148    168   5     0.00000     0.00000     1.25520  0.0
    167    147    148    169   5     0.00000     0.00000     1.25520  0.0
    147    148    149    150   5     4.74884    -0.63178     1.67360  0.0
    147    148    149    170   5     0.00000     0.00000     1.25520  0.0
    147    148    149    171   5     0.00000     0.00000     1.25520  0.0
    168    148    149    150   5     0.00000     0.00000     1.25520  0.0
    168    148    149    170   5     0.00000     0.00000     1.25520  0.0
    168    148    149    171   5     0.00000     0.00000     1.25520  0.0
    169    148    149    150   5     0.00000     0.00000     1.25520  0.0
    169    148    149    170   5     0.00000     0.00000     1.25520  0.0
    169    148    149    171   5     0.00000     0.00000     1.25520  0.0
    148    149    150    151   5     4.74884    -0.63178     1.67360  0.0
    148    149    150    172   5     0.00000     0.00000     1.25520  0.0
    148    149    150    173   5     0.00000     0.00000     1.25520  0.0
    170    149    150    151   5     0.00000     0.00000     1.25520  0.0
    170    149    150    172   5     0.00000     0.00000     1.25520  0.0
    170    149    150    173   5     0.00000     0.00000     1.25520  0.0
    171    149    150    151   5     0.00000     0.00000     1.25520  0.0
    171    149    150    172   5     0.00000     0.00000     1.25520  0.0
    171    149    150    173   5     0.00000     0.00000     1.25520  0.0
    149    150    151    152   5     4.74884    -0.63178     1.67360  0.0
    149    150    151    174   5     0.00000     0.00000     1.25520  0.0
    149    150    151    175   5     0.00000     0.00000     1.25520  0.0
    172    150    151    152   5     0.00000     0.00000     1.25520  0.0
    172    150    151    174   5     0.00000     0.00000     1.25520  0.0
    172    150    151    175   5     0.00000     0.00000     1.25520  0.0
    173    150    151    152   5     0.00000     0.00000     1.25520  0.0
    173    150    151    174   5     0.00000     0.00000     1.25520  0.0
    173    150    151    175   5     0.00000     0.00000     1.25520  0.0
    150    151    152    153   5     4.74884    -0.63178     1.67360  0.0
    150    151    152    176   5     0.00000     0.00000     1.25520  0.0
    150    151    152    177   5     0.00000     0.00000     1.25520  0.0
    174    151    152    153   5     0.00000     0.00000     1.25520  0.0
    174    151    152    176   5     0.00000     0.00000     1.25520  0.0
    174    151    152    177   5     0.00000     0.00000     1.25520  0.0
    175    151    152    153   5     0.00000     0.00000     1.25520  0.0
    175    151    152    176   5     0.00000     0.00000     1.25520  0.0
    175    151    152    177   5     0.00000     0.00000     1.25520  0.0
    151    152    153    154   5     4.74884    -0.63178     1.67360  0.0
    151    152    153    178   5     0.00000     0.00000     1.25520  0.0
    151    152    153    179   5     0.00000     0.00000     1.25520  0.0
    176    152    153    154   5     0.00000     0.00000     1.25520  0.0
    176    152    153    178   5     0.00000     0.00000     1.25520  0.0
    176    152    153    179   5     0.00000     0.00000     1.25520  0.0
    177    152    153    154   5     0.00000     0.00000     1.25520  0.0
    177    152    153    178   5     0.00000     0.00000     1.25520  0.0
    177    152    153    179   5     0.00000     0.00000     1.25520  0.0
    152    153    154    155   5     4.74884    -0.63178     1.67360  0.0
    152    153    154    180   5     0.00000     0.00000     1.25520  0.0
    152    153    154    181   5     0.00000     0.00000     1.25520  0.0
    178    153    154    155   5     0.00000     0.00000     1.25520  0.0
    178    153    154    180   5     0.00000     0.00000     1.25520  0.0
    178    153    154    181   5     0.00000     0.00000     1.25520  0.0
    179    153    154    155   5     0.00000     0.00000     1.25520  0.0
    179    153    154    180   5     0.00000     0.00000     1.25520  0.0
    179    153    154    181   5     0.00000     0.00000     1.25520  0.0
    153    154    155    156   5     4.74884    -0.63178     1.67360  0.0
    153    154    155    182   5     0.00000     0.00000     1.25520  0.0
    153    154    155    183   5     0.00000     0.00000     1.25520  0.0
    180    154    155    156   5     0.00000     0.00000     1.25520  0.0
    180    154    155    182   5     0.00000     0.00000     1.25520  0.0
    180    154    155    183   5     0.00000     0.00000     1.25520  0.0
    181    154    155    156   5     0.00000     0.00000     1.25520  0.0
    181    154    155    182   5     0.00000     0.00000     1.25520  0.0
    181    154    155    183   5     0.00000     0.00000     1.25520  0.0
    154    155    156    157   5     5.25092    -2.58990     2.28446  0.0
    154    155    156    184   5     0.00000     0.00000     1.25520  0.0
    154    155    156    185   5     0.00000     0.00000     1.25520  0.0
    182    155    156    157   5     0.00000     0.00000     1.95811  0.0
    182    155    156    184   5     0.00000     0.00000     1.25520  0.0
    182    155    156    185   5     0.00000     0.00000     1.25520  0.0
    183    155    156    157   5     0.00000     0.00000     1.95811  0.0
    183    155    156    184   5     0.00000     0.00000     1.25520  0.0
    183    155    156    185   5     0.00000     0.00000     1.25520  0.0
    155    156    157    158   5    -2.16731    -3.93296     0.98324  0.0
    184    156    157    158   5     0.00000     0.00000     0.67362  0.0
    185    156    157    158   5     0.00000     0.00000     0.67362  0.0
    156    157    158    159   5     0.00000    25.10400     0.00000  0.0
    156    157    158    160   5    13.65239    24.43456     0.00000  0.0
    157    158    160    161   5     0.00000     0.00000     3.07524  0.0
    157    158    160    186   5     0.00000     0.00000     0.00000  0.0
    157    158    160    187   5     0.00000     0.00000     0.00000  0.0
    159    158    160    161   5     0.00000     2.52295     0.00000  0.0
    159    158    160    186   5     0.00000     0.00000     0.00000  0.0
    159    158    160    187   5     0.00000     0.00000     0.00000  0.0
    158    160    161    162   5    -8.00818    -1.52298     2.46438  0.0
    158    160    161    188   5     0.00000     0.00000    -0.94140  0.0
    158    160    161    189   5     0.00000     0.00000    -0.94140  0.0
    186    160    161    162   5     0.00000     0.00000     1.25520  0.0
    186    160    161    188   5     0.00000     0.00000     1.25520  0.0
    186    160    161    189   5     0.00000     0.00000     1.25520  0.0
    187    160    161    162   5     0.00000     0.00000     1.25520  0.0
    187    160    161    188   5     0.00000     0.00000     1.25520  0.0
    187    160    161    189   5     0.00000     0.00000     1.25520  0.0
    160    161    162    163   5     4.74884    -0.63178     1.67360  0.0
    160    161    162    190   5     0.00000     0.00000     1.25520  0.0
    160    161    162    191   5     0.00000     0.00000     1.25520  0.0
    188    161    162    163   5     0.00000     0.00000     1.25520  0.0
    188    161    162    190   5     0.00000     0.00000     1.25520  0.0
    188    161    162    191   5     0.00000     0.00000     1.25520  0.0
    189    161    162    163   5     0.00000     0.00000     1.25520  0.0
    189    161    162    190   5     0.00000     0.00000     1.25520  0.0
    189    161    162    191   5     0.00000     0.00000     1.25520  0.0
    161    162    163    164   5    -8.00818    -1.52298     2.46438  0.0
    161    162    163    192   5     0.00000     0.00000     1.25520  0.0
    161    162    163    193   5     0.00000     0.00000     1.25520  0.0
    190    162    163    164   5     0.00000     0.00000    -0.94140  0.0
    190    162    163    192   5     0.00000     0.00000     1.25520  0.0
    190    162    163    193   5     0.00000     0.00000     1.25520  0.0
    191    162    163    164   5     0.00000     0.00000    -0.94140  0.0
    191    162    163    192   5     0.00000     0.00000     1.25520  0.0
    191    162    163    193   5     0.00000     0.00000     1.25520  0.0
    162    163    164    165   5     0.00000     2.52295     0.00000  0.0
    162    163    164    194   5     0.00000     0.00000     3.07524  0.0
    192    163    164    165   5     0.00000     0.00000     0.00000  0.0
    192    163    164    194   5     0.00000     0.00000     0.00000  0.0
    193    163    164    165   5     0.00000     0.00000     0.00000  0.0
    193    163    164    194   5     0.00000     0.00000     0.00000  0.0
    163    164    194    195   5    13.65239    24.43456     0.00000  0.0
    165    164    194    195   5     0.00000    25.10400     0.00000  0.0
    164    194    195    196   5    -2.16731    -3.93296     0.98324  0.0
    164    194    195    214   5     0.00000     0.00000     0.67362  0.0
    164    194    195    215   5     0.00000     0.00000     0.67362  0.0
    194    195    196    197   5     5.25092    -2.58990     2.28446  0.0
    194    195    196    216   5     0.00000     0.00000     1.95811  0.0
    194    195    196    217   5     0.00000     0.00000     1.95811  0.0
    214    195    196    197   5     0.00000     0.00000     1.25520  0.0
    214    195    196    216   5     0.00000     0.00000     1.25520  0.0
    214    195    196    217   5     0.00000     0.00000     1.25520  0.0
    215    195    196    197   5     0.00000     0.00000     1.25520  0.0
    215    195    196    216   5     0.00000     0.00000     1.25520  0.0
    215    195    196    217   5     0.00000     0.00000     1.25520  0.0
    195    196    197    198   5     4.74884    -0.63178     1.67360  0.0
    195    196    197    218   5     0.00000     0.00000     1.25520  0.0
    195    196    197    219   5     0.00000     0.00000     1.25520  0.0
    216    196    197    198   5     0.00000     0.00000     1.25520  0.0
    216    196    197    218   5     0.00000     0.00000     1.25520  0.0
    216    196    197    219   5     0.00000     0.00000     1.25520  0.0
    217    196    197    198   5     0.00000     0.00000     1.25520  0.0
    217    196    197    218   5     0.00000     0.00000     1.25520  0.0
    217    196    197    219   5     0.00000     0.00000     1.25520  0.0
    196    197    198    199   5     4.74884    -0.63178     1.67360  0.0
    196    197    198    220   5     0.00000     0.00000     1.25520  0.0
    196    197    198    221   5     0.00000     0.00000     1.25520  0.0
    218    197    198    199   5     0.00000     0.00000     1.25520  0.0
    218    197    198    220   5     0.00000     0.00000     1.25520  0.0
    218    197    198    221   5     0.00000     0.00000     1.25520  0.0
    219    197    198    199   5     0.00000     0.00000     1.25520  0.0
    219    197    198    220   5     0.00000     0.00000     1.25520  0.0
    219    197    198    221   5     0.00000     0.00000     1.25520  0.0
    197    198    199    200   5     4.74884    -0.63178     1.67360  0.0
    197    198    199    222   5     0.00000     0.00000     1.25520  0.0
    197    198    199    223   5     0.00000     0.00000     1.25520  0.0
    220    198    199    200   5     0.00000     0.00000     1.25520  0.0
    220    198    199    222   5     0.00000     0.00000     1.25520  0.0
    220    198    199    223   5     0.00000     0.00000     1.25520  0.0
    221    198    199    200   5     0.00000     0.00000     1.25520  0.0
    221    198    199    222   5     0.00000     0.00000     1.25520  0.0
    221    198    199    223   5     0.00000     0.00000     1.25520  0.0
    198    199    200    201   5     4.74884    -0.63178     1.67360  0.0
    198    199    200    224   5     0.00000     0.00000     1.25520  0.0
    198    199    200    225   5     0.00000     0.00000     1.25520  0.0
    222    199    200    201   5     0.00000     0.00000     1.25520  0.0
    222    199    200    224   5     0.00000     0.00000     1.25520  0.0
    222    199    200    225   5     0.00000     0.00000     1.25520  0.0
    223    199    200    201   5     0.00000     0.00000     1.25520  0.0
    223    199    200    224   5     0.00000     0.00000     1.25520  0.0
    223    199    200    225   5     0.00000     0.00000     1.25520  0.0
    199    200    201    202   5     4.74884    -0.63178     1.67360  0.0
    199    200    201    226   5     0.00000     0.00000     1.25520  0.0
    199    200    201    227   5     0.00000     0.00000     1.25520  0.0
    224    200    201    202   5     0.00000     0.00000     1.25520  0.0
    224    200    201    226   5     0.00000     0.00000     1.25520  0.0
    224    200    201    227   5     0.00000     0.00000     1.25520  0.0
    225    200    201    202   5     0.00000     0.00000     1.25520  0.0
    225    200    201    226   5     0.00000     0.00000     1.25520  0.0
    225    200    201    227   5     0.00000     0.00000     1.25520  0.0
    200    201    202    203   5     4.74884    -0.63178     1.67360  0.0
    200    201    202    228   5     0.00000     0.00000     1.25520  0.0
    200    201    202    229   5     0.00000     0.00000     1.25520  0.0
    226    201    202    203   5     0.00000     0.00000     1.25520  0.0
    226    201    202    228   5     0.00000     0.00000     1.25520  0.0
    226    201    202    229   5     0.00000     0.00000     1.25520  0.0
    227    201    202    203   5     0.00000     0.00000     1.25520  0.0
    227    201    202    228   5     0.00000     0.00000     1.25520  0.0
    227    201    202    229   5     0.00000     0.00000     1.25520  0.0
    201    202    203    204   5     4.74884    -0.63178     1.67360  0.0
    201    202    203    230   5     0.00000     0.00000     1.25520  0.0
    201    202    203    231   5     0.00000     0.00000     1.25520  0.0
    228    202    203    204   5     0.00000     0.00000     1.25520  0.0
    228    202    203    230   5     0.00000     0.00000     1.25520  0.0
    228    202    203    231   5     0.00000     0.00000     1.25520  0.0
    229    202    203    204   5     0.00000     0.00000     1.25520  0.0
    229    202    203    230   5     0.00000     0.00000     1.25520  0.0
    229    202    203    231   5     0.00000     0.00000     1.25520  0.0
    202    203    204    205   5     5.25092    -2.58990     2.28446  0.0
    202    203    204    232   5     0.00000     0.00000     1.25520  0.0
    202    203    204    233   5     0.00000     0.00000     1.25520  0.0
    230    203    204    205   5     0.00000     0.00000     1.95811  0.0
    230    203    204    232   5     0.00000     0.00000     1.25520  0.0
    230    203    204    233   5     0.00000     0.00000     1.25520  0.0
    231    203    204    205   5     0.00000     0.00000     1.95811  0.0
    231    203    204    232   5     0.00000     0.00000     1.25520  0.0
    231    203    204    233   5     0.00000     0.00000     1.25520  0.0
    203    204    205    206   5    -2.16731    -3.93296     0.98324  0.0
    232    204    205    206   5     0.00000     0.00000     0.67362  0.0
    233    204    205    206   5     0.00000     0.00000     0.67362  0.0
    204    205    206    207   5     0.00000    25.10400     0.00000  0.0
    204    205    206    208   5    13.65239    24.43456     0.00000  0.0
    205    206    208    209   5     0.00000     0.00000     3.07524  0.0
    205    206    208    234   5     0.00000     0.00000     0.00000  0.0
    205    206    208    235   5     0.00000     0.00000     0.00000  0.0
    207    206    208    209   5     0.00000     2.52295     0.00000  0.0
    207    206    208    234   5     0.00000     0.00000     0.00000  0.0
    207    206    208    235   5     0.00000     0.00000     0.00000  0.0
    206    208    209    210   5    -8.00818    -1.52298     2.46438  0.0
    206    208    209    236   5     0.00000     0.00000    -0.94140  0.0
    206    208    209    237   5     0.00000     0.00000    -0.94140  0.0
    234    208    209    210   5     0.00000     0.00000     1.25520  0.0
    234    208    209    236   5     0.00000     0.00000     1.25520  0.0
    234    208    209    237   5     0.00000     0.00000     1.25520  0.0
    235    208    209    210   5     0.00000     0.00000     1.25520  0.0
    235    208    209    236   5     0.00000     0.00000     1.25520  0.0
    235    208    209    237   5     0.00000     0.00000     1.25520  0.0
    208    209    210    211   5     4.74884    -0.63178     1.67360  0.0
    208    209    210    238   5     0.00000     0.00000     1.25520  0.0
    208    209    210    239   5     0.00000     0.00000     1.25520  0.0
    236    209    210    211   5     0.00000     0.00000     1.25520  0.0
    236    209    210    238   5     0.00000     0.00000     1.25520  0.0
    236    209    210    239   5     0.00000     0.00000     1.25520  0.0
    237    209    210    211   5     0.00000     0.00000     1.25520  0.0
    237    209    210    238   5     0.00000     0.00000     1.25520  0.0
    237    209    210    239   5     0.00000     0.00000     1.25520  0.0
    209    210    211    212   5    -8.00818    -1.52298     2.46438  0.0
    209    210    211    240   5     0.00000     0.00000     1.25520  0.0
    209    210    211    241   5     0.00000     0.00000     1.25520  0.0
    238    210    211    212   5     0.00000     0.00000    -0.94140  0.0
    238    210    211    240   5     0.00000     0.00000     1.25520  0.0
    238    210    211    241   5     0.00000     0.00000     1.25520  0.0
    239    210    211    212   5     0.00000     0.00000    -0.94140  0.0
    239    210    211    240   5     0.00000     0.00000     1.25520  0.0
    239    210    211    241   5     0.00000     0.00000     1.25520  0.0
    210    211    212    213   5     0.00000     2.52295     0.00000  0.0
    210    211    212    242   5     0.00000     0.00000     3.07524  0.0
    240    211    212    213   5     0.00000     0.00000     0.00000  0.0
    240    211    212    242   5     0.00000     0.00000     0.00000  0.0
    241    211    212    213   5     0.00000     0.00000     0.00000  0.0
    241    211    212    242   5     0.00000     0.00000     0.00000  0.0
    211    212    242    243   5    13.65239    24.43456     0.00000  0.0
    213    212    242    243   5     0.00000    25.10400     0.00000  0.0
    212    242    243    244   5    -2.16731    -3.93296     0.98324  0.0
    212    242    243    262   5     0.00000     0.00000     0.67362  0.0
    212    242    243    263   5     0.00000     0.00000     0.67362  0.0
    242    243    244    245   5     5.25092    -2.58990     2.28446  0.0
    242    243    244    264   5     0.00000     0.00000     1.95811  0.0
    242    243    244    265   5     0.00000     0.00000     1.95811  0.0
    262    243    244    245   5     0.00000     0.00000     1.25520  0.0
    262    243    244    264   5     0.00000     0.00000     1.25520  0.0
    262    243    244    265   5     0.00000     0.00000     1.25520  0.0
    263    243    244    245   5     0.00000     0.00000     1.25520  0.0
    263    243    244    264   5     0.00000     0.00000     1.25520  0.0
    263    243    244    265   5     0.00000     0.00000     1.25520  0.0
    243    244    245    246   5     4.74884    -0.63178     1.67360  0.0
    243    244    245    266   5     0.00000     0.00000     1.25520  0.0
    243    244    245    267   5     0.00000     0.00000     1.25520  0.0
    264    244    245    246   5     0.00000     0.00000     1.25520  0.0
    264    244    245    266   5     0.00000     0.00000     1.25520  0.0
    264    244    245    267   5     0.00000     0.00000     1.25520  0.0
    265    244    245    246   5     0.00000     0.00000     1.25520  0.0
    265    244    245    266   5     0.00000     0.00000     1.25520  0.0
    265    244    245    267   5     0.00000     0.00000     1.25520  0.0
    244    245    246    247   5     4.74884    -0.63178     1.67360  0.0
    244    245    246    268   5     0.00000     0.00000     1.25520  0.0
    244    245    246    269   5     0.00000     0.00000     1.25520  0.0
    266    245    246    247   5     0.00000     0.00000     1.25520  0.0
    266    245    246    268   5     0.00000     0.00000     1.25520  0.0
    266    245    246    269   5     0.00000     0.00000     1.25520  0.0
    267    245    246    247   5     0.00000     0.00000     1.25520  0.0
    267    245    246    268   5     0.00000     0.00000     1.25520  0.0
    267    245    246    269   5     0.00000     0.00000     1.25520  0.0
    245    246    247    248   5     4.74884    -0.63178     1.67360  0.0
    245    246    247    270   5     0.00000     0.00000     1.25520  0.0
    245    246    247    271   5     0.00000     0.00000     1.25520  0.0
    268    246    247    248   5     0.00000     0.00000     1.25520  0.0
    268    246    247    270   5     0.00000     0.00000     1.25520  0.0
    268    246    247    271   5     0.00000     0.00000     1.25520  0.0
    269    246    247    248   5     0.00000     0.00000     1.25520  0.0
    269    246    247    270   5     0.00000     0.00000     1.25520  0.0
    269    246    247    271   5     0.00000     0.00000     1.25520  0.0
    246    247    248    249   5     4.74884    -0.63178     1.67360  0.0
    246    247    248    272   5     0.00000     0.00000     1.25520  0.0
    246    247    248    273   5     0.00000     0.00000     1.25520  0.0
    270    247    248    249   5     0.00000     0.00000     1.25520  0.0
    270    247    248    272   5     0.00000     0.00000     1.25520  0.0
    270    247    248    273   5     0.00000     0.00000     1.25520  0.0
    271    247    248    249   5     0.00000     0.00000     1.25520  0.0
    271    247    248    272   5     0.00000     0.00000     1.25520  0.0
    271    247    248    273   5     0.00000     0.00000     1.25520  0.0
    247    248    249    250   5     4.74884    -0.63178     1.67360  0.0
    247    248    249    274   5     0.00000     0.00000     1.25520  0.0
    247    248    249    275   5     0.00000     0.00000     1.25520  0.0
    272    248    249    250   5     0.00000     0.00000     1.25520  0.0
    272    248    249    274   5     0.00000     0.00000     1.25520  0.0
    272    248    249    275   5     0.00000     0.00000     1.25520  0.0
    273    248    249    250   5     0.00000     0.00000     1.25520  0.0
    273    248    249    274   5     0.00000     0.00000     1.25520  0.0
    273    248    249    275   5     0.00000     0.00000     1.25520  0.0
    248    249    250    251   5     4.74884    -0.63178     1.67360  0.0
    248    249    250    276   5     0.00000     0.00000     1.25520  0.0
    248    249    250    277   5     0.00000     0.00000     1.25520  0.0
    274    249    250    251   5     0.00000     0.00000     1.25520  0.0
    274    249    250    276   5     0.00000     0.00000     1.25520  0.0
    274    249    250    277   5     0.00000     0.00000     1.25520  0.0
    275    249    250    251   5     0.00000     0.00000     1.25520  0.0
    275    249    250    276   5     0.00000     0.00000     1.25520  0.0
    275    249    250    277   5     0.00000     0.00000     1.25520  0.0
    249    250    251    252   5     4.74884    -0.63178     1.67360  0.0
    249    250    251    278   5     0.00000     0.00000     1.25520  0.0
    249    250    251    279   5     0.00000     0.00000     1.25520  0.0
    276    250    251    252   5     0.00000     0.00000     1.25520  0.0
    276    250    251    278   5     0.00000     0.00000     1.25520  0.0
    276    250    251    279   5     0.00000     0.00000     1.25520  0.0
    277    250    251    252   5     0.00000     0.00000     1.25520  0.0
    277    250    251    278   5     0.00000     0.00000     1.25520  0.0
    277    250    251    279   5     0.00000     0.00000     1.25520  0.0
    250    251    252    253   5     5.25092    -2.58990     2.28446  0.0
    250    251    252    280   5     0.00000     0.00000     1.25520  0.0
    250    251    252    281   5     0.00000     0.00000     1.25520  0.0
    278    251    252    253   5     0.00000     0.00000     1.95811  0.0
    278    251    252    280   5     0.00000     0.00000     1.25520  0.0
    278    251    252    281   5     0.00000     0.00000     1.25520  0.0
    279    251    252    253   5     0.00000     0.00000     1.95811  0.0
    279    251    252    280   5     0.00000     0.00000     1.25520  0.0
    279    251    252    281   5     0.00000     0.00000     1.25520  0.0
    251    252    253    254   5    -2.16731    -3.93296     0.98324  0.0
    280    252    253    254   5     0.00000     0.00000     0.67362  0.0
    281    252    253    254   5     0.00000     0.00000     0.67362  0.0
    252    253    254    255   5     0.00000    25.10400     0.00000  0.0
    252    253    254    256   5    13.65239    24.43456     0.00000  0.0
    253    254    256    257   5     0.00000     0.00000     3.07524  0.0
    253    254    256    282   5     0.00000     0.00000     0.00000  0.0
    253    254    256    283   5     0.00000     0.00000     0.00000  0.0
    255    254    256    257   5     0.00000     2.52295     0.00000  0.0
    255    254    256    282   5     0.00000     0.00000     0.00000  0.0
    255    254    256    283   5     0.00000     0.00000     0.00000  0.0
    254    256    257    258   5    -8.00818    -1.52298     2.46438  0.0
    254    256    257    284   5     0.00000     0.00000    -0.94140  0.0
    254    256    257    285   5     0.00000     0.00000    -0.94140  0.0
    282    256    257    258   5     0.00000     0.00000     1.25520  0.0
    282    256    257    284   5     0.00000     0.00000     1.25520  0.0
    282    256    257    285   5     0.00000     0.00000     1.25520  0.0
    283    256    257    258   5     0.00000     0.00000     1.25520  0.0
    283    256    257    284   5     0.00000     0.00000     1.25520  0.0
    283    256    257    285   5     0.00000     0.00000     1.25520  0.0
    256    257    258    259   5     4.74884    -0.63178     1.67360  0.0
    256    257    258    286   5     0.00000     0.00000     1.25520  0.0
    256    257    258    287   5     0.00000     0.00000     1.25520  0.0
    284    257    258    259   5     0.00000     0.00000     1.25520  0.0
    284    257    258    286   5     0.00000     0.00000     1.25520  0.0
    284    257    258    287   5     0.00000     0.00000     1.25520  0.0
    285    257    258    259   5     0.00000     0.00000     1.25520  0.0
    285    257    258    286   5     0.00000     0.00000     1.25520  0.0
    285    257    258    287   5     0.00000     0.00000     1.25520  0.0
    257    258    259    260   5    -8.00818    -1.52298     2.46438  0.0
    257    258    259    288   5     0.00000     0.00000     1.25520  0.0
    257    258    259    289   5     0.00000     0.00000     1.25520  0.0
    286    258    259    260   5     0.00000     0.00000    -0.94140  0.0
    286    258    259    288   5     0.00000     0.00000     1.25520  0.0
    286    258    259    289   5     0.00000     0.00000     1.25520  0.0
    287    258    259    260   5     0.00000     0.00000    -0.94140  0.0
    287    258    259    288   5     0.00000     0.00000     1.25520  0.0
    287    258    259    289   5     0.00000     0.00000     1.25520  0.0
    258    259    260    261   5     0.00000     2.52295     0.00000  0.0
    258    259    260    290   5     0.00000     0.00000     3.07524  0.0
    288    259    260    261   5     0.00000     0.00000     0.00000  0.0
    288    259    260    290   5     0.00000     0.00000     0.00000  0.0
    289    259    260    261   5     0.00000     0.00000     0.00000  0.0
    289    259    260    290   5     0.00000     0.00000     0.00000  0.0
    259    260    290    291   5    13.65239    24.43456     0.00000  0.0
    261    260    290    291   5     0.00000    25.10400     0.00000  0.0
    260    290    291    292   5    -2.16731    -3.93296     0.98324  0.0
    260    290    291    310   5     0.00000     0.00000     0.67362  0.0
    260    290    291    311   5     0.00000     0.00000     0.67362  0.0
    290    291    292    293   5     5.25092    -2.58990     2.28446  0.0
    290    291    292    312   5     0.00000     0.00000     1.95811  0.0
    290    291    292    313   5     0.00000     0.00000     1.95811  0.0
    310    291    292    293   5     0.00000     0.00000     1.25520  0.0
    310    291    292    312   5     0.00000     0.00000     1.25520  0.0
    310    291    292    313   5     0.00000     0.00000     1.25520  0.0
    311    291    292    293   5     0.00000     0.00000     1.25520  0.0
    311    291    292    312   5     0.00000     0.00000     1.25520  0.0
    311    291    292    313   5     0.00000     0.00000     1.25520  0.0
    291    292    293    294   5     4.74884    -0.63178     1.67360  0.0
    291    292    293    314   5     0.00000     0.00000     1.25520  0.0
    291    292    293    315   5     0.00000     0.00000     1.25520  0.0
    312    292    293    294   5     0.00000     0.00000     1.25520  0.0
    312    292    293    314   5     0.00000     0.00000     1.25520  0.0
    312    292    293    315   5     0.00000     0.00000     1.25520  0.0
    313    292    293    294   5     0.00000     0.00000     1.25520  0.0
    313    292    293    314   5     0.00000     0.00000     1.25520  0.0
    313    292    293    315   5     0.00000     0.00000     1.25520  0.0
    292    293    294    295   5     4.74884    -0.63178     1.67360  0.0
    292    293    294    316   5     0.00000     0.00000     1.25520  0.0
    292    293    294    317   5     0.00000     0.00000     1.25520  0.0
    314    293    294    295   5     0.00000     0.00000     1.25520  0.0
    314    293    294    316   5     0.00000     0.00000     1.25520  0.0
    314    293    294    317   5     0.00000     0.00000     1.25520  0.0
    315    293    294    295   5     0.00000     0.00000     1.25520  0.0
    315    293    294    316   5     0.00000     0.00000     1.25520  0.0
    315    293    294    317   5     0.00000     0.00000     1.25520  0.0
    293    294    295    296   5     4.74884    -0.63178     1.67360  0.0
    293    294    295    318   5     0.00000     0.00000     1.25520  0.0
    293    294    295    319   5     0.00000     0.00000     1.25520  0.0
    316    294    295    296   5     0.00000     0.00000     1.25520  0.0
    316    294    295    318   5     0.00000     0.00000     1.25520  0.0
    316    294    295    319   5     0.00000     0.00000     1.25520  0.0
    317    294    295    296   5     0.00000     0.00000     1.25520  0.0
    317    294    295    318   5     0.00000     0.00000     1.25520  0.0
    317    294    295    319   5     0.00000     0.00000     1.25520  0.0
    294    295    296    297   5     4.74884    -0.63178     1.67360  0.0
    294    295    296    320   5     0.00000     0.00000     1.25520  0.0
    294    295    296    321   5     0.00000     0.00000     1.25520  0.0
    318    295    296    297   5     0.00000     0.00000     1.25520  0.0
    318    295    296    320   5     0.00000     0.00000     1.25520  0.0
    318    295    296    321   5     0.00000     0.00000     1.25520  0.0
    319    295    296    297   5     0.00000     0.00000     1.25520  0.0
    319    295    296    320   5     0.00000     0.00000     1.25520  0.0
    319    295    296    321   5     0.00000     0.00000     1.25520  0.0
    295    296    297    298   5     4.74884    -0.63178     1.67360  0.0
    295    296    297    322   5     0.00000     0.00000     1.25520  0.0
    295    296    297    323   5     0.00000     0.00000     1.25520  0.0
    320    296    297    298   5     0.00000     0.00000     1.25520  0.0
    320    296    297    322   5     0.00000     0.00000     1.25520  0.0
    320    296    297    323   5     0.00000     0.00000     1.25520  0.0
    321    296    297    298   5     0.00000     0.00000     1.25520  0.0
    321    296    297    322   5     0.00000     0.00000     1.25520  0.0
    321    296    297    323   5     0.00000     0.00000     1.25520  0.0
    296    297    298    299   5     4.74884    -0.63178     1.67360  0.0
    296    297    298    324   5     0.00000     0.00000     1.25520  0.0
    296    297    298    325   5     0.00000     0.00000     1.25520  0.0
    322    297    298    299   5     0.00000     0.00000     1.25520  0.0
    322    297    298    324   5     0.00000     0.00000     1.25520  0.0
    322    297    298    325   5     0.00000     0.00000     1.25520  0.0
    323    297    298    299   5     0.00000     0.00000     1.25520  0.0
    323    297    298    324   5     0.00000     0.00000     1.25520  0.0
    323    297    298    325   5     0.00000     0.00000     1.25520  0.0
    297    298    299    300   5     4.74884    -0.63178     1.67360  0.0
    297    298    299    326   5     0.00000     0.00000     1.25520  0.0
    297    298    299    327   5     0.00000     0.00000     1.25520  0.0
    324    298    299    300   5     0.00000     0.00000     1.25520  0.0
    324    298    299    326   5     0.00000     0.00000     1.25520  0.0
    324    298    299    327   5     0.00000     0.00000     1.25520  0.0
    325    298    299    300   5     0.00000     0.00000     1.25520  0.0
    325    298    299    326   5     0.00000     0.00000     1.25520  0.0
    325    298    299    327   5     0.00000     0.00000     1.25520  0.0
    298    299    300    301   5     5.25092    -2.58990     2.28446  0.0
    298    299    300    328   5     0.00000     0.00000     1.25520  0.0
    298    299    300    329   5     0.00000     0.00000     1.25520  0.0
    326    299    300    301   5     0.00000     0.00000     1.95811  0.0
    326    299    300    328   5     0.00000     0.00000     1.25520  0.0
    326    299    300    329   5     0.00000     0.00000     1.25520  0.0
    327    299    300    301   5     0.00000     0.00000     1.95811  0.0
    327    299    300    328   5     0.00000     0.00000     1.25520  0.0
    327    299    300    329   5     0.00000     0.00000     1.25520  0.0
    299    300    301    302   5    -2.16731    -3.93296     0.98324  0.0
    328    300    301    302   5     0.00000     0.00000     0.67362  0.0
    329    300    301    302   5     0.00000     0.00000     0.67362  0.0
    300    301    302    303   5     0.00000    25.10400     0.00000  0.0
    300    301    302    304   5    13.65239    24.43456     0.00000  0.0
    301    302    304    305   5     0.00000     0.00000     3.07524  0.0
    301    302    304    330   5     0.00000     0.00000     0.00000  0.0
    301    302    304    331   5     0.00000     0.00000     0.00000  0.0
    303    302    304    305   5     0.00000     2.52295     0.00000  0.0
    303    302    304    330   5     0.00000     0.00000     0.00000  0.0
    303    302    304    331   5     0.00000     0.00000     0.00000  0.0
    302    304    305    306   5    -8.00818    -1.52298     2.46438  0.0
    302    304    305    332   5     0.00000     0.00000    -0.94140  0.0
    302    304    305    333   5     0.00000     0.00000    -0.94140  0.0
    330    304    305    306   5     0.00000     0.00000     1.25520  0.0
    330    304    305    332   5     0.00000     0.00000     1.25520  0.0
    330    304    305    333   5     0.00000     0.00000     1.25520  0.0
    331    304    305    306   5     0.00000     0.00000     1.25520  0.0
    331    304    305    332   5     0.00000     0.00000     1.25520  0.0
    331    304    305    333   5     0.00000     0.00000     1.25520  0.0
    304    305    306    307   5     4.74884    -0.63178     1.67360  0.0
    304    305    306    334   5     0.00000     0.00000     1.25520  0.0
    304    305    306    335   5     0.00000     0.00000     1.25520  0.0
    332    305    306    307   5     0.00000     0.00000     1.25520  0.0
    332    305    306    334   5     0.00000     0.00000     1.25520  0.0
    332    305    306    335   5     0.00000     0.00000     1.25520  0.0
    333    305    306    307   5     0.00000     0.00000     1.25520  0.0
    333    305    306    334   5     0.00000     0.00000     1.25520  0.0
    333    305    306    335   5     0.00000     0.00000     1.25520  0.0
    305    306    307    308   5    -8.00818    -1.52298     2.46438  0.0
    305    306    307    336   5     0.00000     0.00000     1.25520  0.0
    305    306    307    337   5     0.00000     0.00000     1.25520  0.0
    334    306    307    308   5     0.00000     0.00000    -0.94140  0.0
    334    306    307    336   5     0.00000     0.00000     1.25520  0.0
    334    306    307    337   5     0.00000     0.00000     1.25520  0.0
    335    306    307    308   5     0.00000     0.00000    -0.94140  0.0
    335    306    307    336   5     0.00000     0.00000     1.25520  0.0
    335    306    307    337   5     0.00000     0.00000     1.25520  0.0
    306    307    308    309   5     0.00000     2.52295     0.00000  0.0
    306    307    308    338   5     0.00000     0.00000     3.07524  0.0
    336    307    308    309   5     0.00000     0.00000     0.00000  0.0
    336    307    308    338   5     0.00000     0.00000     0.00000  0.0
    337    307    308    309   5     0.00000     0.00000     0.00000  0.0
    337    307    308    338   5     0.00000     0.00000     0.00000  0.0
    307    308    338    339   5    13.65239    24.43456     0.00000  0.0
    309    308    338    339   5     0.00000    25.10400     0.00000  0.0
    308    338    339    340   5    -2.16731    -3.93296     0.98324  0.0
    308    338    339    358   5     0.00000     0.00000     0.67362  0.0
    308    338    339    359   5     0.00000     0.00000     0.67362  0.0
    338    339    340    341   5     5.25092    -2.58990     2.28446  0.0
    338    339    340    360   5     0.00000     0.00000     1.95811  0.0
    338    339    340    361   5     0.00000     0.00000     1.95811  0.0
    358    339    340    341   5     0.00000     0.00000     1.25520  0.0
    358    339    340    360   5     0.00000     0.00000     1.25520  0.0
    358    339    340    361   5     0.00000     0.00000     1.25520  0.0
    359    339    340    341   5     0.00000     0.00000     1.25520  0.0
    359    339    340    360   5     0.00000     0.00000     1.25520  0.0
    359    339    340    361   5     0.00000     0.00000     1.25520  0.0
    339    340    341    342   5     4.74884    -0.63178     1.67360  0.0
    339    340    341    362   5     0.00000     0.00000     1.25520  0.0
    339    340    341    363   5     0.00000     0.00000     1.25520  0.0
    360    340    341    342   5     0.00000     0.00000     1.25520  0.0
    360    340    341    362   5     0.00000     0.00000     1.25520  0.0
    360    340    341    363   5     0.00000     0.00000     1.25520  0.0
    361    340    341    342   5     0.00000     0.00000     1.25520  0.0
    361    340    341    362   5     0.00000     0.00000     1.25520  0.0
    361    340    341    363   5     0.00000     0.00000     1.25520  0.0
    340    341    342    343   5     4.74884    -0.63178     1.67360  0.0
    340    341    342    364   5     0.00000     0.00000     1.25520  0.0
    340    341    342    365   5     0.00000     0.00000     1.25520  0.0
    362    341    342    343   5     0.00000     0.00000     1.25520  0.0
    362    341    342    364   5     0.00000     0.00000     1.25520  0.0
    362    341    342    365   5     0.00000     0.00000     1.25520  0.0
    363    341    342    343   5     0.00000     0.00000     1.25520  0.0
    363    341    342    364   5     0.00000     0.00000     1.25520  0.0
    363    341    342    365   5     0.00000     0.00000     1.25520  0.0
    341    342    343    344   5     4.74884    -0.63178     1.67360  0.0
    341    342    343    366   5     0.00000     0.00000     1.25520  0.0
    341    342    343    367   5     0.00000     0.00000     1.25520  0.0
    364    342    343    344   5     0.00000     0.00000     1.25520  0.0
    364    342    343    366   5     0.00000     0.00000     1.25520  0.0
    364    342    343    367   5     0.00000     0.00000     1.25520  0.0
    365    342    343    344   5     0.00000     0.00000     1.25520  0.0
    365    342    343    366   5     0.00000     0.00000     1.25520  0.0
    365    342    343    367   5     0.00000     0.00000     1.25520  0.0
    342    343    344    345   5     4.74884    -0.63178     1.67360  0.0
    342    343    344    368   5     0.00000     0.00000     1.25520  0.0
    342    343    344    369   5     0.00000     0.00000     1.25520  0.0
    366    343    344    345   5     0.00000     0.00000     1.25520  0.0
    366    343    344    368   5     0.00000     0.00000     1.25520  0.0
    366    343    344    369   5     0.00000     0.00000     1.25520  0.0
    367    343    344    345   5     0.00000     0.00000     1.25520  0.0
    367    343    344    368   5     0.00000     0.00000     1.25520  0.0
    367    343    344    369   5     0.00000     0.00000     1.25520  0.0
    343    344    345    346   5     4.74884    -0.63178     1.67360  0.0
    343    344    345    370   5     0.00000     0.00000     1.25520  0.0
    343    344    345    371   5     0.00000     0.00000     1.25520  0.0
    368    344    345    346   5     0.00000     0.00000     1.25520  0.0
    368    344    345    370   5     0.00000     0.00000     1.25520  0.0
    368    344    345    371   5     0.00000     0.00000     1.25520  0.0
    369    344    345    346   5     0.00000     0.00000     1.25520  0.0
    369    344    345    370   5     0.00000     0.00000     1.25520  0.0
    369    344    345    371   5     0.00000     0.00000     1.25520  0.0
    344    345    346    347   5     4.74884    -0.63178     1.67360  0.0
    344    345    346    372   5     0.00000     0.00000     1.25520  0.0
    344    345    346    373   5     0.00000     0.00000     1.25520  0.0
    370    345    346    347   5     0.00000     0.00000     1.25520  0.0
    370    345    346    372   5     0.00000     0.00000     1.25520  0.0
    370    345    346    373   5     0.00000     0.00000     1.25520  0.0
    371    345    346    347   5     0.00000     0.00000     1.25520  0.0
    371    345    346    372   5     0.00000     0.00000     1.25520  0.0
    371    345    346    373   5     0.00000     0.00000     1.25520  0.0
    345    346    347    348   5     4.74884    -0.63178     1.67360  0.0
    345    346    347    374   5     0.00000     0.00000     1.25520  0.0
    345    346    347    375   5     0.00000     0.00000     1.25520  0.0
    372    346    347    348   5     0.00000     0.00000     1.25520  0.0
    372    346    347    374   5     0.00000     0.00000     1.25520  0.0
    372    346    347    375   5     0.00000     0.00000     1.25520  0.0
    373    346    347    348   5     0.00000     0.00000     1.25520  0.0
    373    346    347    374   5     0.00000     0.00000     1.25520  0.0
    373    346    347    375   5     0.00000     0.00000     1.25520  0.0
    346    347    348    349   5     5.25092    -2.58990     2.28446  0.0
    346    347    348    376   5     0.00000     0.00000     1.25520  0.0
    346    347    348    377   5     0.00000     0.00000     1.25520  0.0
    374    347    348    349   5     0.00000     0.00000     1.95811  0.0
    374    347    348    376   5     0.00000     0.00000     1.25520  0.0
    374    347    348    377   5     0.00000     0.00000     1.25520  0.0
    375    347    348    349   5     0.00000     0.00000     1.95811  0.0
    375    347    348    376   5     0.00000     0.00000     1.25520  0.0
    375    347    348    377   5     0.00000     0.00000     1.25520  0.0
    347    348    349    350   5    -2.16731    -3.93296     0.98324  0.0
    376    348    349    350   5     0.00000     0.00000     0.67362  0.0
    377    348    349    350   5     0.00000     0.00000     0.67362  0.0
    348    349    350    351   5     0.00000    25.10400     0.00000  0.0
    348    349    350    352   5    13.65239    24.43456     0.00000  0.0
    349    350    352    353   5     0.00000     0.00000     3.07524  0.0
    349    350    352    378   5     0.00000     0.00000     0.00000  0.0
    349    350    352    379   5     0.00000     0.00000     0.00000  0.0
    351    350    352    353   5     0.00000     2.52295     0.00000  0.0
    351    350    352    378   5     0.00000     0.00000     0.00000  0.0
    351    350    352    379   5     0.00000     0.00000     0.00000  0.0
    350    352    353    354   5    -8.00818    -1.52298     2.46438  0.0
    350    352    353    380   5     0.00000     0.00000    -0.94140  0.0
    350    352    353    381   5     0.00000     0.00000    -0.94140  0.0
    378    352    353    354   5     0.00000     0.00000     1.25520  0.0
    378    352    353    380   5     0.00000     0.00000     1.25520  0.0
    378    352    353    381   5     0.00000     0.00000     1.25520  0.0
    379    352    353    354   5     0.00000     0.00000     1.25520  0.0
    379    352    353    380   5     0.00000     0.00000     1.25520  0.0
    379    352    353    381   5     0.00000     0.00000     1.25520  0.0
    352    353    354    355   5     4.74884    -0.63178     1.67360  0.0
    352    353    354    382   5     0.00000     0.00000     1.25520  0.0
    352    353    354    383   5     0.00000     0.00000     1.25520  0.0
    380    353    354    355   5     0.00000     0.00000     1.25520  0.0
    380    353    354    382   5     0.00000     0.00000     1.25520  0.0
    380    353    354    383   5     0.00000     0.00000     1.25520  0.0
    381    353    354    355   5     0.00000     0.00000     1.25520  0.0
    381    353    354    382   5     0.00000     0.00000     1.25520  0.0
    381    353    354    383   5     0.00000     0.00000     1.25520  0.0
    353    354    355    356   5    -8.00818    -1.52298     2.46438  0.0
    353    354    355    384   5     0.00000     0.00000     1.25520  0.0
    353    354    355    385   5     0.00000     0.00000     1.25520  0.0
    382    354    355    356   5     0.00000     0.00000    -0.94140  0.0
    382    354    355    384   5     0.00000     0.00000     1.25520  0.0
    382    354    355    385   5     0.00000     0.00000     1.25520  0.0
    383    354    355    356   5     0.00000     0.00000    -0.94140  0.0
    383    354    355    384   5     0.00000     0.00000     1.25520  0.0
    383    354    355    385   5     0.00000     0.00000     1.25520  0.0
    354    355    356    357   5     0.00000     2.52295     0.00000  0.0
    354    355    356    386   5     0.00000     0.00000     3.07524  0.0
    384    355    356    357   5     0.00000     0.00000     0.00000  0.0
    384    355    356    386   5     0.00000     0.00000     0.00000  0.0
    385    355    356    357   5     0.00000     0.00000     0.00000  0.0
    385    355    356    386   5     0.00000     0.00000     0.00000  0.0
    355    356    386    387   5    13.65239    24.43456     0.00000  0.0
    357    356    386    387   5     0.00000    25.10400     0.00000  0.0
    356    386    387    388   5    -2.16731    -3.93296     0.98324  0.0
    356    386    387    406   5     0.00000     0.00000     0.67362  0.0
    356    386    387    407   5     0.00000     0.00000     0.67362  0.0
    386    387    388    389   5     5.25092    -2.58990     2.28446  0.0
    386    387    388    408   5     0.00000     0.00000     1.95811  0.0
    386    387    388    409   5     0.00000     0.00000     1.95811  0.0
    406    387    388    389   5     0.00000     0.00000     1.25520  0.0
    406    387    388    408   5     0.00000     0.00000     1.25520  0.0
    406    387    388    409   5     0.00000     0.00000     1.25520  0.0
    407    387    388    389   5     0.00000     0.00000     1.25520  0.0
    407    387    388    408   5     0.00000     0.00000     1.25520  0.0
    407    387    388    409   5     0.00000     0.00000     1.25520  0.0
    387    388    389    390   5     4.74884    -0.63178     1.67360  0.0
    387    388    389    410   5     0.00000     0.00000     1.25520  0.0
    387    388    389    411   5     0.00000     0.00000     1.25520  0.0
    408    388    389    390   5     0.00000     0.00000     1.25520  0.0
    408    388    389    410   5     0.00000     0.00000     1.25520  0.0
    408    388    389    411   5     0.00000     0.00000     1.25520  0.0
    409    388    389    390   5     0.00000     0.00000     1.25520  0.0
    409    388    389    410   5     0.00000     0.00000     1.25520  0.0
    409    388    389    411   5     0.00000     0.00000     1.25520  0.0
    388    389    390    391   5     4.74884    -0.63178     1.67360  0.0
    388    389    390    412   5     0.00000     0.00000     1.25520  0.0
    388    389    390    413   5     0.00000     0.00000     1.25520  0.0
    410    389    390    391   5     0.00000     0.00000     1.25520  0.0
    410    389    390    412   5     0.00000     0.00000     1.25520  0.0
    410    389    390    413   5     0.00000     0.00000     1.25520  0.0
    411    389    390    391   5     0.00000     0.00000     1.25520  0.0
    411    389    390    412   5     0.00000     0.00000     1.25520  0.0
    411    389    390    413   5     0.00000     0.00000     1.25520  0.0
    389    390    391    392   5     4.74884    -0.63178     1.67360  0.0
    389    390    391    414   5     0.00000     0.00000     1.25520  0.0
    389    390    391    415   5     0.00000     0.00000     1.25520  0.0
    412    390    391    392   5     0.00000     0.00000     1.25520  0.0
    412    390    391    414   5     0.00000     0.00000     1.25520  0.0
    412    390    391    415   5     0.00000     0.00000     1.25520  0.0
    413    390    391    392   5     0.00000     0.00000     1.25520  0.0
    413    390    391    414   5     0.00000     0.00000     1.25520  0.0
    413    390    391    415   5     0.00000     0.00000     1.25520  0.0
    390    391    392    393   5     4.74884    -0.63178     1.67360  0.0
    390    391    392    416   5     0.00000     0.00000     1.25520  0.0
    390    391    392    417   5     0.00000     0.00000     1.25520  0.0
    414    391    392    393   5     0.00000     0.00000     1.25520  0.0
    414    391    392    416   5     0.00000     0.00000     1.25520  0.0
    414    391    392    417   5     0.00000     0.00000     1.25520  0.0
    415    391    392    393   5     0.00000     0.00000     1.25520  0.0
    415    391    392    416   5     0.00000     0.00000     1.25520  0.0
    415    391    392    417   5     0.00000     0.00000     1.25520  0.0
    391    392    393    394   5     4.74884    -0.63178     1.67360  0.0
    391    392    393    418   5     0.00000     0.00000     1.25520  0.0
    391    392    393    419   5     0.00000     0.00000     1.25520  0.0
    416    392    393    394   5     0.00000     0.00000     1.25520  0.0
    416    392    393    418   5     0.00000     0.00000     1.25520  0.0
    416    392    393    419   5     0.00000     0.00000     1.25520  0.0
    417    392    393    394   5     0.00000     0.00000     1.25520  0.0
    417    392    393    418   5     0.00000     0.00000     1.25520  0.0
    417    392    393    419   5     0.00000     0.00000     1.25520  0.0
    392    393    394    395   5     4.74884    -0.63178     1.67360  0.0
    392    393    394    420   5     0.00000     0.00000     1.25520  0.0
    392    393    394    421   5     0.00000     0.00000     1.25520  0.0
    418    393    394    395   5     0.00000     0.00000     1.25520  0.0
    418    393    394    420   5     0.00000     0.00000     1.25520  0.0
    418    393    394    421   5     0.00000     0.00000     1.25520  0.0
    419    393    394    395   5     0.00000     0.00000     1.25520  0.0
    419    393    394    420   5     0.00000     0.00000     1.25520  0.0
    419    393    394    421   5     0.00000     0.00000     1.25520  0.0
    393    394    395    396   5     4.74884    -0.63178     1.67360  0.0
    393    394    395    422   5     0.00000     0.00000     1.25520  0.0
    393    394    395    423   5     0.00000     0.00000     1.25520  0.0
    420    394    395    396   5     0.00000     0.00000     1.25520  0.0
    420    394    395    422   5     0.00000     0.00000     1.25520  0.0
    420    394    395    423   5     0.00000     0.00000     1.25520  0.0
    421    394    395    396   5     0.00000     0.00000     1.25520  0.0
    421    394    395    422   5     0.00000     0.00000     1.25520  0.0
    421    394    395    423   5     0.00000     0.00000     1.25520  0.0
    394    395    396    397   5     5.25092    -2.58990     2.28446  0.0
    394    395    396    424   5     0.00000     0.00000     1.25520  0.0
    394    395    396    425   5     0.00000     0.00000     1.25520  0.0
    422    395    396    397   5     0.00000     0.00000     1.95811  0.0
    422    395    396    424   5     0.00000     0.00000     1.25520  0.0
    422    395    396    425   5     0.00000     0.00000     1.25520  0.0
    423    395    396    397   5     0.00000     0.00000     1.95811  0.0
    423    395    396    424   5     0.00000     0.00000     1.25520  0.0
    423    395    396    425   5     0.00000     0.00000     1.25520  0.0
    395    396    397    398   5    -2.16731    -3.93296     0.98324  0.0
    424    396    397    398   5     0.00000     0.00000     0.67362  0.0
    425    396    397    398   5     0.00000     0.00000     0.67362  0.0
    396    397    398    399   5     0.00000    25.10400     0.00000  0.0
    396    397    398    400   5    13.65239    24.43456     0.00000  0.0
    397    398    400    401   5     0.00000     0.00000     3.07524  0.0
    397    398    400    426   5     0.00000     0.00000     0.00000  0.0
    397    398    400    427   5     0.00000     0.00000     0.00000  0.0
    399    398    400    401   5     0.00000     2.52295     0.00000  0.0
    399    398    400    426   5     0.00000     0.00000     0.00000  0.0
    399    398    400    427   5     0.00000     0.00000     0.00000  0.0
    398    400    401    402   5    -8.00818    -1.52298     2.46438  0.0
    398    400    401    428   5     0.00000     0.00000    -0.94140  0.0
    398    400    401    429   5     0.00000     0.00000    -0.94140  0.0
    426    400    401    402   5     0.00000     0.00000     1.25520  0.0
    426    400    401    428   5     0.00000     0.00000     1.25520  0.0
    426    400    401    429   5     0.00000     0.00000     1.25520  0.0
    427    400    401    402   5     0.00000     0.00000     1.25520  0.0
    427    400    401    428   5     0.00000     0.00000     1.25520  0.0
    427    400    401    429   5     0.00000     0.00000     1.25520  0.0
    400    401    402    403   5     4.74884    -0.63178     1.67360  0.0
    400    401    402    430   5     0.00000     0.00000     1.25520  0.0
    400    401    402    431   5     0.00000     0.00000     1.25520  0.0
    428    401    402    403   5     0.00000     0.00000     1.25520  0.0
    428    401    402    430   5     0.00000     0.00000     1.25520  0.0
    428    401    402    431   5     0.00000     0.00000     1.25520  0.0
    429    401    402    403   5     0.00000     0.00000     1.25520  0.0
    429    401    402    430   5     0.00000     0.00000     1.25520  0.0
    429    401    402    431   5     0.00000     0.00000     1.25520  0.0
    401    402    403    404   5    -8.00818    -1.52298     2.46438  0.0
    401    402    403    432   5     0.00000     0.00000     1.25520  0.0
    401    402    403    433   5     0.00000     0.00000     1.25520  0.0
    430    402    403    404   5     0.00000     0.00000    -0.94140  0.0
    430    402    403    432   5     0.00000     0.00000     1.25520  0.0
    430    402    403    433   5     0.00000     0.00000     1.25520  0.0
    431    402    403    404   5     0.00000     0.00000    -0.94140  0.0
    431    402    403    432   5     0.00000     0.00000     1.25520  0.0
    431    402    403    433   5     0.00000     0.00000     1.25520  0.0
    402    403    404    405   5     0.00000     2.52295     0.00000  0.0
    402    403    404    434   5     0.00000     0.00000     3.07524  0.0
    432    403    404    405   5     0.00000     0.00000     0.00000  0.0
    432    403    404    434   5     0.00000     0.00000     0.00000  0.0
    433    403    404    405   5     0.00000     0.00000     0.00000  0.0
    433    403    404    434   5     0.00000     0.00000     0.00000  0.0
    403    404    434    435   5    13.65239    24.43456     0.00000  0.0
    405    404    434    435   5     0.00000    25.10400     0.00000  0.0
    404    434    435    436   5    -2.16731    -3.93296     0.98324  0.0
    404    434    435    454   5     0.00000     0.00000     0.67362  0.0
    404    434    435    455   5     0.00000     0.00000     0.67362  0.0
    434    435    436    437   5     5.25092    -2.58990     2.28446  0.0
    434    435    436    456   5     0.00000     0.00000     1.95811  0.0
    434    435    436    457   5     0.00000     0.00000     1.95811  0.0
    454    435    436    437   5     0.00000     0.00000     1.25520  0.0
    454    435    436    456   5     0.00000     0.00000     1.25520  0.0
    454    435    436    457   5     0.00000     0.00000     1.25520  0.0
    455    435    436    437   5     0.00000     0.00000     1.25520  0.0
    455    435    436    456   5     0.00000     0.00000     1.25520  0.0
    455    435    436    457   5     0.00000     0.00000     1.25520  0.0
    435    436    437    438   5     4.74884    -0.63178     1.67360  0.0
    435    436    437    458   5     0.00000     0.00000     1.25520  0.0
    435    436    437    459   5     0.00000     0.00000     1.25520  0.0
    456    436    437    438   5     0.00000     0.00000     1.25520  0.0
    456    436    437    458   5     0.00000     0.00000     1.25520  0.0
    456    436    437    459   5     0.00000     0.00000     1.25520  0.0
    457    436    437    438   5     0.00000     0.00000     1.25520  0.0
    457    436    437    458   5     0.00000     0.00000     1.25520  0.0
    457    436    437    459   5     0.00000     0.00000     1.25520  0.0
    436    437    438    439   5     4.74884    -0.63178     1.67360  0.0
    436    437    438    460   5     0.00000     0.00000     1.25520  0.0
    436    437    438    461   5     0.00000     0.00000     1.25520  0.0
    458    437    438    439   5     0.00000     0.00000     1.25520  0.0
    458    437    438    460   5     0.00000     0.00000     1.25520  0.0
    458    437    438    461   5     0.00000     0.00000     1.25520  0.0
    459    437    438    439   5     0.00000     0.00000     1.25520  0.0
    459    437    438    460   5     0.00000     0.00000     1.25520  0.0
    459    437    438    461   5     0.00000     0.00000     1.25520  0.0
    437    438    439    440   5     4.74884    -0.63178     1.67360  0.0
    437    438    439    462   5     0.00000     0.00000     1.25520  0.0
    437    438    439    463   5     0.00000     0.00000     1.25520  0.0
    460    438    439    440   5     0.00000     0.00000     1.25520  0.0
    460    438    439    462   5     0.00000     0.00000     1.25520  0.0
    460    438    439    463   5     0.00000     0.00000     1.25520  0.0
    461    438    439    440   5     0.00000     0.00000     1.25520  0.0
    461    438    439    462   5     0.00000     0.00000     1.25520  0.0
    461    438    439    463   5     0.00000     0.00000     1.25520  0.0
    438    439    440    441   5     4.74884    -0.63178     1.67360  0.0
    438    439    440    464   5     0.00000     0.00000     1.25520  0.0
    438    439    440    465   5     0.00000     0.00000     1.25520  0.0
    462    439    440    441   5     0.00000     0.00000     1.25520  0.0
    462    439    440    464   5     0.00000     0.00000     1.25520  0.0
    462    439    440    465   5     0.00000     0.00000     1.25520  0.0
    463    439    440    441   5     0.00000     0.00000     1.25520  0.0
    463    439    440    464   5     0.00000     0.00000     1.25520  0.0
    463    439    440    465   5     0.00000     0.00000     1.25520  0.0
    439    440    441    442   5     4.74884    -0.63178     1.67360  0.0
    439    440    441    466   5     0.00000     0.00000     1.25520  0.0
    439    440    441    467   5     0.00000     0.00000     1.25520  0.0
    464    440    441    442   5     0.00000     0.00000     1.25520  0.0
    464    440    441    466   5     0.00000     0.00000     1.25520  0.0
    464    440    441    467   5     0.00000     0.00000     1.25520  0.0
    465    440    441    442   5     0.00000     0.00000     1.25520  0.0
    465    440    441    466   5     0.00000     0.00000     1.25520  0.0
    465    440    441    467   5     0.00000     0.00000     1.25520  0.0
    440    441    442    443   5     4.74884    -0.63178     1.67360  0.0
    440    441    442    468   5     0.00000     0.00000     1.25520  0.0
    440    441    442    469   5     0.00000     0.00000     1.25520  0.0
    466    441    442    443   5     0.00000     0.00000     1.25520  0.0
    466    441    442    468   5     0.00000     0.00000     1.25520  0.0
    466    441    442    469   5     0.00000     0.00000     1.25520  0.0
    467    441    442    443   5     0.00000     0.00000     1.25520  0.0
    467    441    442    468   5     0.00000     0.00000     1.25520  0.0
    467    441    442    469   5     0.00000     0.00000     1.25520  0.0
    441    442    443    444   5     4.74884    -0.63178     1.67360  0.0
    441    442    443    470   5     0.00000     0.00000     1.25520  0.0
    441    442    443    471   5     0.00000     0.00000     1.25520  0.0
    468    442    443    444   5     0.00000     0.00000     1.25520  0.0
    468    442    443    470   5     0.00000     0.00000     1.25520  0.0
    468    442    443    471   5     0.00000     0.00000     1.25520  0.0
    469    442    443    444   5     0.00000     0.00000     1.25520  0.0
    469    442    443    470   5     0.00000     0.00000     1.25520  0.0
    469    442    443    471   5     0.00000     0.00000     1.25520  0.0
    442    443    444    445   5     5.25092    -2.58990     2.28446  0.0
    442    443    444    472   5     0.00000     0.00000     1.25520  0.0
    442    443    444    473   5     0.00000     0.00000     1.25520  0.0
    470    443    444    445   5     0.00000     0.00000     1.95811  0.0
    470    443    444    472   5     0.00000     0.00000     1.25520  0.0
    470    443    444    473   5     0.00000     0.00000     1.25520  0.0
    471    443    444    445   5     0.00000     0.00000     1.95811  0.0
    471    443    444    472   5     0.00000     0.00000     1.25520  0.0
    471    443    444    473   5     0.00000     0.00000     1.25520  0.0
    443    444    445    446   5    -2.16731    -3.93296     0.98324  0.0
    472    444    445    446   5     0.00000     0.00000     0.67362  0.0
    473    444    445    446   5     0.00000     0.00000     0.67362  0.0
    444    445    446    447   5     0.00000    25.10400     0.00000  0.0
    444    445    446    448   5    13.65239    24.43456     0.00000  0.0
    445    446    448    449   5     0.00000     0.00000     3.07524  0.0
    445    446    448    474   5     0.00000     0.00000     0.00000  0.0
    445    446    448    475   5     0.00000     0.00000     0.00000  0.0
    447    446    448    449   5     0.00000     2.52295     0.00000  0.0
    447    446    448    474   5     0.00000     0.00000     0.00000  0.0
    447    446    448    475   5     0.00000     0.00000     0.00000  0.0
    446    448    449    450   5    -8.00818    -1.52298     2.46438  0.0
    446    448    449    476   5     0.00000     0.00000    -0.94140  0.0
    446    448    449    477   5     0.00000     0.00000    -0.94140  0.0
    474    448    449    450   5     0.00000     0.00000     1.25520  0.0
    474    448    449    476   5     0.00000     0.00000     1.25520  0.0
    474    448    449    477   5     0.00000     0.00000     1.25520  0.0
    475    448    449    450   5     0.00000     0.00000     1.25520  0.0
    475    448    449    476   5     0.00000     0.00000     1.25520  0.0
    475    448    449    477   5     0.00000     0.00000     1.25520  0.0
    448    449    450    451   5     4.74884    -0.63178     1.67360  0.0
    448    449    450    478   5     0.00000     0.00000     1.25520  0.0
    448    449    450    479   5     0.00000     0.00000     1.25520  0.0
    476    449    450    451   5     0.00000     0.00000     1.25520  0.0
    476    449    450    478   5     0.00000     0.00000     1.25520  0.0
    476    449    450    479   5     0.00000     0.00000     1.25520  0.0
    477    449    450    451   5     0.00000     0.00000     1.25520  0.0
    477    449    450    478   5     0.00000     0.00000     1.25520  0.0
    477    449    450    479   5     0.00000     0.00000     1.25520  0.0
    449    450    451    452   5    -8.00818    -1.52298     2.46438  0.0
    449    450    451    480   5     0.00000     0.00000     1.25520  0.0
    449    450    451    481   5     0.00000     0.00000     1.25520  0.0
    478    450    451    452   5     0.00000     0.00000    -0.94140  0.0
    478    450    451    480   5     0.00000     0.00000     1.25520  0.0
    478    450    451    481   5     0.00000     0.00000     1.25520  0.0
    479    450    451    452   5     0.00000     0.00000    -0.94140  0.0
    479    450    451    480   5     0.00000     0.00000     1.25520  0.0
    479    450    451    481   5     0.00000     0.00000     1.25520  0.0
    450    451    452    453   5     0.00000     2.52295     0.00000  0.0
    450    451    452    482   5     0.00000     0.00000     3.07524  0.0
    480    451    452    453   5     0.00000     0.00000     0.00000  0.0
    480    451    452    482   5     0.00000     0.00000     0.00000  0.0
    481    451    452    453   5     0.00000     0.00000     0.00000  0.0
    481    451    452    482   5     0.00000     0.00000     0.00000  0.0
    451    452    482    483   5    13.65239    24.43456     0.00000  0.0
    453    452    482    483   5     0.00000    25.10400     0.00000  0.0
    452    482    483    484   5    -2.16731    -3.93296     0.98324  0.0
    452    482    483    502   5     0.00000     0.00000     0.67362  0.0
    452    482    483    503   5     0.00000     0.00000     0.67362  0.0
    482    483    484    485   5     5.25092    -2.58990     2.28446  0.0
    482    483    484    504   5     0.00000     0.00000     1.95811  0.0
    482    483    484    505   5     0.00000     0.00000     1.95811  0.0
    502    483    484    485   5     0.00000     0.00000     1.25520  0.0
    502    483    484    504   5     0.00000     0.00000     1.25520  0.0
    502    483    484    505   5     0.00000     0.00000     1.25520  0.0
    503    483    484    485   5     0.00000     0.00000     1.25520  0.0
    503    483    484    504   5     0.00000     0.00000     1.25520  0.0
    503    483    484    505   5     0.00000     0.00000     1.25520  0.0
    483    484    485    486   5     4.74884    -0.63178     1.67360  0.0
    483    484    485    506   5     0.00000     0.00000     1.25520  0.0
    483    484    485    507   5     0.00000     0.00000     1.25520  0.0
    504    484    485    486   5     0.00000     0.00000     1.25520  0.0
    504    484    485    506   5     0.00000     0.00000     1.25520  0.0
    504    484    485    507   5     0.00000     0.00000     1.25520  0.0
    505    484    485    486   5     0.00000     0.00000     1.25520  0.0
    505    484    485    506   5     0.00000     0.00000     1.25520  0.0
    505    484    485    507   5     0.00000     0.00000     1.25520  0.0
    484    485    486    487   5     4.74884    -0.63178     1.67360  0.0
    484    485    486    508   5     0.00000     0.00000     1.25520  0.0
    484    485    486    509   5     0.00000     0.00000     1.25520  0.0
    506    485    486    487   5     0.00000     0.00000     1.25520  0.0
    506    485    486    508   5     0.00000     0.00000     1.25520  0.0
    506    485    486    509   5     0.00000     0.00000     1.25520  0.0
    507    485    486    487   5     0.00000     0.00000     1.25520  0.0
    507    485    486    508   5     0.00000     0.00000     1.25520  0.0
    507    485    486    509   5     0.00000     0.00000     1.25520  0.0
    485    486    487    488   5     4.74884    -0.63178     1.67360  0.0
    485    486    487    510   5     0.00000     0.00000     1.25520  0.0
    485    486    487    511   5     0.00000     0.00000     1.25520  0.0
    508    486    487    488   5     0.00000     0.00000     1.25520  0.0
    508    486    487    510   5     0.00000     0.00000     1.25520  0.0
    508    486    487    511   5     0.00000     0.00000     1.25520  0.0
    509    486    487    488   5     0.00000     0.00000     1.25520  0.0
    509    486    487    510   5     0.00000     0.00000     1.25520  0.0
    509    486    487    511   5     0.00000     0.00000     1.25520  0.0
    486    487    488    489   5     4.74884    -0.63178     1.67360  0.0
    486    487    488    512   5     0.00000     0.00000     1.25520  0.0
    486    487    488    513   5     0.00000     0.00000     1.25520  0.0
    510    487    488    489   5     0.00000     0.00000     1.25520  0.0
    510    487    488    512   5     0.00000     0.00000     1.25520  0.0
    510    487    488    513   5     0.00000     0.00000     1.25520  0.0
    511    487    488    489   5     0.00000     0.00000     1.25520  0.0
    511    487    488    512   5     0.00000     0.00000     1.25520  0.0
    511    487    488    513   5     0.00000     0.00000     1.25520  0.0
    487    488    489    490   5     4.74884    -0.63178     1.67360  0.0
    487    488    489    514   5     0.00000     0.00000     1.25520  0.0
    487    488    489    515   5     0.00000     0.00000     1.25520  0.0
    512    488    489    490   5     0.00000     0.00000     1.25520  0.0
    512    488    489    514   5     0.00000     0.00000     1.25520  0.0
    512    488    489    515   5     0.00000     0.00000     1.25520  0.0
    513    488    489    490   5     0.00000     0.00000     1.25520  0.0
    513    488    489    514   5     0.00000     0.00000     1.25520  0.0
    513    488    489    515   5     0.00000     0.00000     1.25520  0.0
    488    489    490    491   5     4.74884    -0.63178     1.67360  0.0
    488    489    490    516   5     0.00000     0.00000     1.25520  0.0
    488    489    490    517   5     0.00000     0.00000     1.25520  0.0
    514    489    490    491   5     0.00000     0.00000     1.25520  0.0
    514    489    490    516   5     0.00000     0.00000     1.25520  0.0
    514    489    490    517   5     0.00000     0.00000     1.25520  0.0
    515    489    490    491   5     0.00000     0.00000     1.25520  0.0
    515    489    490    516   5     0.00000     0.00000     1.25520  0.0
    515    489    490    517   5     0.00000     0.00000     1.25520  0.0
    489    490    491    492   5     4.74884    -0.63178     1.67360  0.0
    489    490    491    518   5     0.00000     0.00000     1.25520  0.0
    489    490    491    519   5     0.00000     0.00000     1.25520  0.0
    516    490    491    492   5     0.00000     0.00000     1.25520  0.0
    516    490    491    518   5     0.00000     0.00000     1.25520  0.0
    516    490    491    519   5     0.00000     0.00000     1.25520  0.0
    517    490    491    492   5     0.00000     0.00000     1.25520  0.0
    517    490    491    518   5     0.00000     0.00000     1.25520  0.0
    517    490    491    519   5     0.00000     0.00000     1.25520  0.0
    490    491    492    493   5     5.25092    -2.58990     2.28446  0.0
    490    491    492    520   5     0.00000     0.00000     1.25520  0.0
    490    491    492    521   5     0.00000     0.00000     1.25520  0.0
    518    491    492    493   5     0.00000     0.00000     1.95811  0.0
    518    491    492    520   5     0.00000     0.00000     1.25520  0.0
    518    491    492    521   5     0.00000     0.00000     1.25520  0.0
    519    491    492    493   5     0.00000     0.00000     1.95811  0.0
    519    491    492    520   5     0.00000     0.00000     1.25520  0.0
    519    491    492    521   5     0.00000     0.00000     1.25520  0.0
    491    492    493    494   5    -2.16731    -3.93296     0.98324  0.0
    520    492    493    494   5     0.00000     0.00000     0.67362  0.0
    521    492    493    494   5     0.00000     0.00000     0.67362  0.0
    492    493    494    495   5     0.00000    25.10400     0.00000  0.0
    492    493    494    496   5    13.65239    24.43456     0.00000  0.0
    493    494    496    497   5     0.00000     0.00000     3.07524  0.0
    493    494    496    522   5     0.00000     0.00000     0.00000  0.0
    493    494    496    523   5     0.00000     0.00000     0.00000  0.0
    495    494    496    497   5     0.00000     2.52295     0.00000  0.0
    495    494    496    522   5     0.00000     0.00000     0.00000  0.0
    495    494    496    523   5     0.00000     0.00000     0.00000  0.0
    494    496    497    498   5    -8.00818    -1.52298     2.46438  0.0
    494    496    497    524   5     0.00000     0.00000    -0.94140  0.0
    494    496    497    525   5     0.00000     0.00000    -0.94140  0.0
    522    496    497    498   5     0.00000     0.00000     1.25520  0.0
    522    496    497    524   5     0.00000     0.00000     1.25520  0.0
    522    496    497    525   5     0.00000     0.00000     1.25520  0.0
    523    496    497    498   5     0.00000     0.00000     1.25520  0.0
    523    496    497    524   5     0.00000     0.00000     1.25520  0.0
    523    496    497    525   5     0.00000     0.00000     1.25520  0.0
    496    497    498    499   5     4.74884    -0.63178     1.67360  0.0
    496    497    498    526   5     0.00000     0.00000     1.25520  0.0
    496    497    498    527   5     0.00000     0.00000     1.25520  0.0
    524    497    498    499   5     0.00000     0.00000     1.25520  0.0
    524    497    498    526   5     0.00000     0.00000     1.25520  0.0
    524    497    498    527   5     0.00000     0.00000     1.25520  0.0
    525    497    498    499   5     0.00000     0.00000     1.25520  0.0
    525    497    498    526   5     0.00000     0.00000     1.25520  0.0
    525    497    498    527   5     0.00000     0.00000     1.25520  0.0
    497    498    499    500   5    -8.00818    -1.52298     2.46438  0.0
    497    498    499    528   5     0.00000     0.00000     1.25520  0.0
    497    498    499    529   5     0.00000     0.00000     1.25520  0.0
    526    498    499    500   5     0.00000     0.00000    -0.94140  0.0
    526    498    499    528   5     0.00000     0.00000     1.25520  0.0
    526    498    499    529   5     0.00000     0.00000     1.25520  0.0
    527    498    499    500   5     0.00000     0.00000    -0.94140  0.0
    527    498    499    528   5     0.00000     0.00000     1.25520  0.0
    527    498    499    529   5     0.00000     0.00000     1.25520  0.0
    498    499    500    501   5     0.00000     2.52295     0.00000  0.0
    498    499    500    530   5     0.00000     0.00000     3.07524  0.0
    528    499    500    501   5     0.00000     0.00000     0.00000  0.0
    528    499    500    530   5     0.00000     0.00000     0.00000  0.0
    529    499    500    501   5     0.00000     0.00000     0.00000  0.0
    529    499    500    530   5     0.00000     0.00000     0.00000  0.0
    499    500    530    531   5    13.65239    24.43456     0.00000  0.0
    501    500    530    531   5     0.00000    25.10400     0.00000  0.0
    500    530    531    532   5    -2.16731    -3.93296     0.98324  0.0
    500    530    531    550   5     0.00000     0.00000     0.67362  0.0
    500    530    531    551   5     0.00000     0.00000     0.67362  0.0
    530    531    532    533   5     5.25092    -2.58990     2.28446  0.0
    530    531    532    552   5     0.00000     0.00000     1.95811  0.0
    530    531    532    553   5     0.00000     0.00000     1.95811  0.0
    550    531    532    533   5     0.00000     0.00000     1.25520  0.0
    550    531    532    552   5     0.00000     0.00000     1.25520  0.0
    550    531    532    553   5     0.00000     0.00000     1.25520  0.0
    551    531    532    533   5     0.00000     0.00000     1.25520  0.0
    551    531    532    552   5     0.00000     0.00000     1.25520  0.0
    551    531    532    553   5     0.00000     0.00000     1.25520  0.0
    531    532    533    534   5     4.74884    -0.63178     1.67360  0.0
    531    532    533    554   5     0.00000     0.00000     1.25520  0.0
    531    532    533    555   5     0.00000     0.00000     1.25520  0.0
    552    532    533    534   5     0.00000     0.00000     1.25520  0.0
    552    532    533    554   5     0.00000     0.00000     1.25520  0.0
    552    532    533    555   5     0.00000     0.00000     1.25520  0.0
    553    532    533    534   5     0.00000     0.00000     1.25520  0.0
    553    532    533    554   5     0.00000     0.00000     1.25520  0.0
    553    532    533    555   5     0.00000     0.00000     1.25520  0.0
    532    533    534    535   5     4.74884    -0.63178     1.67360  0.0
    532    533    534    556   5     0.00000     0.00000     1.25520  0.0
    532    533    534    557   5     0.00000     0.00000     1.25520  0.0
    554    533    534    535   5     0.00000     0.00000     1.25520  0.0
    554    533    534    556   5     0.00000     0.00000     1.25520  0.0
    554    533    534    557   5     0.00000     0.00000     1.25520  0.0
    555    533    534    535   5     0.00000     0.00000     1.25520  0.0
    555    533    534    556   5     0.00000     0.00000     1.25520  0.0
    555    533    534    557   5     0.00000     0.00000     1.25520  0.0
    533    534    535    536   5     4.74884    -0.63178     1.67360  0.0
    533    534    535    558   5     0.00000     0.00000     1.25520  0.0
    533    534    535    559   5     0.00000     0.00000     1.25520  0.0
    556    534    535    536   5     0.00000     0.00000     1.25520  0.0
    556    534    535    558   5     0.00000     0.00000     1.25520  0.0
    556    534    535    559   5     0.00000     0.00000     1.25520  0.0
    557    534    535    536   5     0.00000     0.00000     1.25520  0.0
    557    534    535    558   5     0.00000     0.00000     1.25520  0.0
    557    534    535    559   5     0.00000     0.00000     1.25520  0.0
    534    535    536    537   5     4.74884    -0.63178     1.67360  0.0
    534    535    536    560   5     0.00000     0.00000     1.25520  0.0
    534    535    536    561   5     0.00000     0.00000     1.25520  0.0
    558    535    536    537   5     0.00000     0.00000     1.25520  0.0
    558    535    536    560   5     0.00000     0.00000     1.25520  0.0
    558    535    536    561   5     0.00000     0.00000     1.25520  0.0
    559    535    536    537   5     0.00000     0.00000     1.25520  0.0
    559    535    536    560   5     0.00000     0.00000     1.25520  0.0
    559    535    536    561   5     0.00000     0.00000     1.25520  0.0
    535    536    537    538   5     4.74884    -0.63178     1.67360  0.0
    535    536    537    562   5     0.00000     0.00000     1.25520  0.0
    535    536    537    563   5     0.00000     0.00000     1.25520  0.0
    560    536    537    538   5     0.00000     0.00000     1.25520  0.0
    560    536    537    562   5     0.00000     0.00000     1.25520  0.0
    560    536    537    563   5     0.00000     0.00000     1.25520  0.0
    561    536    537    538   5     0.00000     0.00000     1.25520  0.0
    561    536    537    562   5     0.00000     0.00000     1.25520  0.0
    561    536    537    563   5     0.00000     0.00000     1.25520  0.0
    536    537    538    539   5     4.74884    -0.63178     1.67360  0.0
    536    537    538    564   5     0.00000     0.00000     1.25520  0.0
    536    537    538    565   5     0.00000     0.00000     1.25520  0.0
    562    537    538    539   5     0.00000     0.00000     1.25520  0.0
    562    537    538    564   5     0.00000     0.00000     1.25520  0.0
    562    537    538    565   5     0.00000     0.00000     1.25520  0.0
    563    537    538    539   5     0.00000     0.00000     1.25520  0.0
    563    537    538    564   5     0.00000     0.00000     1.25520  0.0
    563    537    538    565   5     0.00000     0.00000     1.25520  0.0
    537    538    539    540   5     4.74884    -0.63178     1.67360  0.0
    537    538    539    566   5     0.00000     0.00000     1.25520  0.0
    537    538    539    567   5     0.00000     0.00000     1.25520  0.0
    564    538    539    540   5     0.00000     0.00000     1.25520  0.0
    564    538    539    566   5     0.00000     0.00000     1.25520  0.0
    564    538    539    567   5     0.00000     0.00000     1.25520  0.0
    565    538    539    540   5     0.00000     0.00000     1.25520  0.0
    565    538    539    566   5     0.00000     0.00000     1.25520  0.0
    565    538    539    567   5     0.00000     0.00000     1.25520  0.0
    538    539    540    541   5     5.25092    -2.58990     2.28446  0.0
    538    539    540    568   5     0.00000     0.00000     1.25520  0.0
    538    539    540    569   5     0.00000     0.00000     1.25520  0.0
    566    539    540    541   5     0.00000     0.00000     1.95811  0.0
    566    539    540    568   5     0.00000     0.00000     1.25520  0.0
    566    539    540    569   5     0.00000     0.00000     1.25520  0.0
    567    539    540    541   5     0.00000     0.00000     1.95811  0.0
    567    539    540    568   5     0.00000     0.00000     1.25520  0.0
    567    539    540    569   5     0.00000     0.00000     1.25520  0.0
    539    540    541    542   5    -2.16731    -3.93296     0.98324  0.0
    568    540    541    542   5     0.00000     0.00000     0.67362  0.0
    569    540    541    542   5     0.00000     0.00000     0.67362  0.0
    540    541    542    543   5     0.00000    25.10400     0.00000  0.0
    540    541    542    544   5    13.65239    24.43456     0.00000  0.0
    541    542    544    545   5     0.00000     0.00000     3.07524  0.0
    541    542    544    570   5     0.00000     0.00000     0.00000  0.0
    541    542    544    571   5     0.00000     0.00000     0.00000  0.0
    543    542    544    545   5     0.00000     2.52295     0.00000  0.0
    543    542    544    570   5     0.00000     0.00000     0.00000  0.0
    543    542    544    571   5     0.00000     0.00000     0.00000  0.0
    542    544    545    546   5    -8.00818    -1.52298     2.46438  0.0
    542    544    545    572   5     0.00000     0.00000    -0.94140  0.0
    542    544    545    573   5     0.00000     0.00000    -0.94140  0.0
    570    544    545    546   5     0.00000     0.00000     1.25520  0.0
    570    544    545    572   5     0.00000     0.00000     1.25520  0.0
    570    544    545    573   5     0.00000     0.00000     1.25520  0.0
    571    544    545    546   5     0.00000     0.00000     1.25520  0.0
    571    544    545    572   5     0.00000     0.00000     1.25520  0.0
    571    544    545    573   5     0.00000     0.00000     1.25520  0.0
    544    545    546    547   5     4.74884    -0.63178     1.67360  0.0
    544    545    546    574   5     0.00000     0.00000     1.25520  0.0
    544    545    546    575   5     0.00000     0.00000     1.25520  0.0
    572    545    546    547   5     0.00000     0.00000     1.25520  0.0
    572    545    546    574   5     0.00000     0.00000     1.25520  0.0
    572    545    546    575   5     0.00000     0.00000     1.25520  0.0
    573    545    546    547   5     0.00000     0.00000     1.25520  0.0
    573    545    546    574   5     0.00000     0.00000     1.25520  0.0
    573    545    546    575   5     0.00000     0.00000     1.25520  0.0
    545    546    547    548   5    -8.00818    -1.52298     2.46438  0.0
    545    546    547    576   5     0.00000     0.00000     1.25520  0.0
    545    546    547    577   5     0.00000     0.00000     1.25520  0.0
    574    546    547    548   5     0.00000     0.00000    -0.94140  0.0
    574    546    547    576   5     0.00000     0.00000     1.25520  0.0
    574    546    547    577   5     0.00000     0.00000     1.25520  0.0
    575    546    547    548   5     0.00000     0.00000    -0.94140  0.0
    575    546    547    576   5     0.00000     0.00000     1.25520  0.0
    575    546    547    577   5     0.00000     0.00000     1.25520  0.0
    546    547    548    549   5     0.00000     2.52295     0.00000  0.0
    546    547    548    578   5     0.00000     0.00000     3.07524  0.0
    576    547    548    549   5     0.00000     0.00000     0.00000  0.0
    576    547    548    578   5     0.00000     0.00000     0.00000  0.0
    577    547    548    549   5     0.00000     0.00000     0.00000  0.0
    577    547    548    578   5     0.00000     0.00000     0.00000  0.0
    547    548    578    579   5    13.65239    24.43456     0.00000  0.0
    549    548    578    579   5     0.00000    25.10400     0.00000  0.0
    548    578    579    580   5    -2.16731    -3.93296     0.98324  0.0
    548    578    579    598   5     0.00000     0.00000     0.67362  0.0
    548    578    579    599   5     0.00000     0.00000     0.67362  0.0
    578    579    580    581   5     5.25092    -2.58990     2.28446  0.0
    578    579    580    600   5     0.00000     0.00000     1.95811  0.0
    578    579    580    601   5     0.00000     0.00000     1.95811  0.0
    598    579    580    581   5     0.00000     0.00000     1.25520  0.0
    598    579    580    600   5     0.00000     0.00000     1.25520  0.0
    598    579    580    601   5     0.00000     0.00000     1.25520  0.0
    599    579    580    581   5     0.00000     0.00000     1.25520  0.0
    599    579    580    600   5     0.00000     0.00000     1.25520  0.0
    599    579    580    601   5     0.00000     0.00000     1.25520  0.0
    579    580    581    582   5     4.74884    -0.63178     1.67360  0.0
    579    580    581    602   5     0.00000     0.00000     1.25520  0.0
    579    580    581    603   5     0.00000     0.00000     1.25520  0.0
    600    580    581    582   5     0.00000     0.00000     1.25520  0.0
    600    580    581    602   5     0.00000     0.00000     1.25520  0.0
    600    580    581    603   5     0.00000     0.00000     1.25520  0.0
    601    580    581    582   5     0.00000     0.00000     1.25520  0.0
    601    580    581    602   5     0.00000     0.00000     1.25520  0.0
    601    580    581    603   5     0.00000     0.00000     1.25520  0.0
    580    581    582    583   5     4.74884    -0.63178     1.67360  0.0
    580    581    582    604   5     0.00000     0.00000     1.25520  0.0
    580    581    582    605   5     0.00000     0.00000     1.25520  0.0
    602    581    582    583   5     0.00000     0.00000     1.25520  0.0
    602    581    582    604   5     0.00000     0.00000     1.25520  0.0
    602    581    582    605   5     0.00000     0.00000     1.25520  0.0
    603    581    582    583   5     0.00000     0.00000     1.25520  0.0
    603    581    582    604   5     0.00000     0.00000     1.25520  0.0
    603    581    582    605   5     0.00000     0.00000     1.25520  0.0
    581    582    583    584   5     4.74884    -0.63178     1.67360  0.0
    581    582    583    606   5     0.00000     0.00000     1.25520  0.0
    581    582    583    607   5     0.00000     0.00000     1.25520  0.0
    604    582    583    584   5     0.00000     0.00000     1.25520  0.0
    604    582    583    606   5     0.00000     0.00000     1.25520  0.0
    604    582    583    607   5     0.00000     0.00000     1.25520  0.0
    605    582    583    584   5     0.00000     0.00000     1.25520  0.0
    605    582    583    606   5     0.00000     0.00000     1.25520  0.0
    605    582    583    607   5     0.00000     0.00000     1.25520  0.0
    582    583    584    585   5     4.74884    -0.63178     1.67360  0.0
    582    583    584    608   5     0.00000     0.00000     1.25520  0.0
    582    583    584    609   5     0.00000     0.00000     1.25520  0.0
    606    583    584    585   5     0.00000     0.00000     1.25520  0.0
    606    583    584    608   5     0.00000     0.00000     1.25520  0.0
    606    583    584    609   5     0.00000     0.00000     1.25520  0.0
    607    583    584    585   5     0.00000     0.00000     1.25520  0.0
    607    583    584    608   5     0.00000     0.00000     1.25520  0.0
    607    583    584    609   5     0.00000     0.00000     1.25520  0.0
    583    584    585    586   5     4.74884    -0.63178     1.67360  0.0
    583    584    585    610   5     0.00000     0.00000     1.25520  0.0
    583    584    585    611   5     0.00000     0.00000     1.25520  0.0
    608    584    585    586   5     0.00000     0.00000     1.25520  0.0
    608    584    585    610   5     0.00000     0.00000     1.25520  0.0
    608    584    585    611   5     0.00000     0.00000     1.25520  0.0
    609    584    585    586   5     0.00000     0.00000     1.25520  0.0
    609    584    585    610   5     0.00000     0.00000     1.25520  0.0
    609    584    585    611   5     0.00000     0.00000     1.25520  0.0
    584    585    586    587   5     4.74884    -0.63178     1.67360  0.0
    584    585    586    612   5     0.00000     0.00000     1.25520  0.0
    584    585    586    613   5     0.00000     0.00000     1.25520  0.0
    610    585    586    587   5     0.00000     0.00000     1.25520  0.0
    610    585    586    612   5     0.00000     0.00000     1.25520  0.0
    610    585    586    613   5     0.00000     0.00000     1.25520  0.0
    611    585    586    587   5     0.00000     0.00000     1.25520  0.0
    611    585    586    612   5     0.00000     0.00000     1.25520  0.0
    611    585    586    613   5     0.00000     0.00000     1.25520  0.0
    585    586    587    588   5     4.74884    -0.63178     1.67360  0.0
    585    586    587    614   5     0.00000     0.00000     1.25520  0.0
    585    586    587    615   5     0.00000     0.00000     1.25520  0.0
    612    586    587    588   5     0.00000     0.00000     1.25520  0.0
    612    586    587    614   5     0.00000     0.00000     1.25520  0.0
    612    586    587    615   5     0.00000     0.00000     1.25520  0.0
    613    586    587    588   5     0.00000     0.00000     1.25520  0.0
    613    586    587    614   5     0.00000     0.00000     1.25520  0.0
    613    586    587    615   5     0.00000     0.00000     1.25520  0.0
    586    587    588    589   5     5.25092    -2.58990     2.28446  0.0
    586    587    588    616   5     0.00000     0.00000     1.25520  0.0
    586    587    588    617   5     0.00000     0.00000     1.25520  0.0
    614    587    588    589   5     0.00000     0.00000     1.95811  0.0
    614    587    588    616   5     0.00000     0.00000     1.25520  0.0
    614    587    588    617   5     0.00000     0.00000     1.25520  0.0
    615    587    588    589   5     0.00000     0.00000     1.95811  0.0
    615    587    588    616   5     0.00000     0.00000     1.25520  0.0
    615    587    588    617   5     0.00000     0.00000     1.25520  0.0
    587    588    589    590   5    -2.16731    -3.93296     0.98324  0.0
    616    588    589    590   5     0.00000     0.00000     0.67362  0.0
    617    588    589    590   5     0.00000     0.00000     0.67362  0.0
    588    589    590    591   5     0.00000    25.10400     0.00000  0.0
    588    589    590    592   5    13.65239    24.43456     0.00000  0.0
    589    590    592    593   5     0.00000     0.00000     3.07524  0.0
    589    590    592    618   5     0.00000     0.00000     0.00000  0.0
    589    590    592    619   5     0.00000     0.00000     0.00000  0.0
    591    590    592    593   5     0.00000     2.52295     0.00000  0.0
    591    590    592    618   5     0.00000     0.00000     0.00000  0.0
    591    590    592    619   5     0.00000     0.00000     0.00000  0.0
    590    592    593    594   5    -8.00818    -1.52298     2.46438  0.0
    590    592    593    620   5     0.00000     0.00000    -0.94140  0.0
    590    592    593    621   5     0.00000     0.00000    -0.94140  0.0
    618    592    593    594   5     0.00000     0.00000     1.25520  0.0
    618    592    593    620   5     0.00000     0.00000     1.25520  0.0
    618    592    593    621   5     0.00000     0.00000     1.25520  0.0
    619    592    593    594   5     0.00000     0.00000     1.25520  0.0
    619    592    593    620   5     0.00000     0.00000     1.25520  0.0
    619    592    593    621   5     0.00000     0.00000     1.25520  0.0
    592    593    594    595   5     4.74884    -0.63178     1.67360  0.0
    592    593    594    622   5     0.00000     0.00000     1.25520  0.0
    592    593    594    623   5     0.00000     0.00000     1.25520  0.0
    620    593    594    595   5     0.00000     0.00000     1.25520  0.0
    620    593    594    622   5     0.00000     0.00000     1.25520  0.0
    620    593    594    623   5     0.00000     0.00000     1.25520  0.0
    621    593    594    595   5     0.00000     0.00000     1.25520  0.0
    621    593    594    622   5     0.00000     0.00000     1.25520  0.0
    621    593    594    623   5     0.00000     0.00000     1.25520  0.0
    593    594    595    596   5    -8.00818    -1.52298     2.46438  0.0
    593    594    595    624   5     0.00000     0.00000     1.25520  0.0
    593    594    595    625   5     0.00000     0.00000     1.25520  0.0
    622    594    595    596   5     0.00000     0.00000    -0.94140  0.0
    622    594    595    624   5     0.00000     0.00000     1.25520  0.0
    622    594    595    625   5     0.00000     0.00000     1.25520  0.0
    623    594    595    596   5     0.00000     0.00000    -0.94140  0.0
    623    594    595    624   5     0.00000     0.00000     1.25520  0.0
    623    594    595    625   5     0.00000     0.00000     1.25520  0.0
    594    595    596    597   5     0.00000     2.52295     0.00000  0.0
    594    595    596    626   5     0.00000     0.00000     3.07524  0.0
    624    595    596    597   5     0.00000     0.00000     0.00000  0.0
    624    595    596    626   5     0.00000     0.00000     0.00000  0.0
    625    595    596    597   5     0.00000     0.00000     0.00000  0.0
    625    595    596    626   5     0.00000     0.00000     0.00000  0.0
    595    596    626    627   5    13.65239    24.43456     0.00000  0.0
    597    596    626    627   5     0.00000    25.10400     0.00000  0.0
    596    626    627    628   5    -2.16731    -3.93296     0.98324  0.0
    596    626    627    646   5     0.00000     0.00000     0.67362  0.0
    596    626    627    647   5     0.00000     0.00000     0.67362  0.0
    626    627    628    629   5     5.25092    -2.58990     2.28446  0.0
    626    627    628    648   5     0.00000     0.00000     1.95811  0.0
    626    627    628    649   5     0.00000     0.00000     1.95811  0.0
    646    627    628    629   5     0.00000     0.00000     1.25520  0.0
    646    627    628    648   5     0.00000     0.00000     1.25520  0.0
    646    627    628    649   5     0.00000     0.00000     1.25520  0.0
    647    627    628    629   5     0.00000     0.00000     1.25520  0.0
    647    627    628    648   5     0.00000     0.00000     1.25520  0.0
    647    627    628    649   5     0.00000     0.00000     1.25520  0.0
    627    628    629    630   5     4.74884    -0.63178     1.67360  0.0
    627    628    629    650   5     0.00000     0.00000     1.25520  0.0
    627    628    629    651   5     0.00000     0.00000     1.25520  0.0
    648    628    629    630   5     0.00000     0.00000     1.25520  0.0
    648    628    629    650   5     0.00000     0.00000     1.25520  0.0
    648    628    629    651   5     0.00000     0.00000     1.25520  0.0
    649    628    629    630   5     0.00000     0.00000     1.25520  0.0
    649    628    629    650   5     0.00000     0.00000     1.25520  0.0
    649    628    629    651   5     0.00000     0.00000     1.25520  0.0
    628    629    630    631   5     4.74884    -0.63178     1.67360  0.0
    628    629    630    652   5     0.00000     0.00000     1.25520  0.0
    628    629    630    653   5     0.00000     0.00000     1.25520  0.0
    650    629    630    631   5     0.00000     0.00000     1.25520  0.0
    650    629    630    652   5     0.00000     0.00000     1.25520  0.0
    650    629    630    653   5     0.00000     0.00000     1.25520  0.0
    651    629    630    631   5     0.00000     0.00000     1.25520  0.0
    651    629    630    652   5     0.00000     0.00000     1.25520  0.0
    651    629    630    653   5     0.00000     0.00000     1.25520  0.0
    629    630    631    632   5     4.74884    -0.63178     1.67360  0.0
    629    630    631    654   5     0.00000     0.00000     1.25520  0.0
    629    630    631    655   5     0.00000     0.00000     1.25520  0.0
    652    630    631    632   5     0.00000     0.00000     1.25520  0.0
    652    630    631    654   5     0.00000     0.00000     1.25520  0.0
    652    630    631    655   5     0.00000     0.00000     1.25520  0.0
    653    630    631    632   5     0.00000     0.00000     1.25520  0.0
    653    630    631    654   5     0.00000     0.00000     1.25520  0.0
    653    630    631    655   5     0.00000     0.00000     1.25520  0.0
    630    631    632    633   5     4.74884    -0.63178     1.67360  0.0
    630    631    632    656   5     0.00000     0.00000     1.25520  0.0
    630    631    632    657   5     0.00000     0.00000     1.25520  0.0
    654    631    632    633   5     0.00000     0.00000     1.25520  0.0
    654    631    632    656   5     0.00000     0.00000     1.25520  0.0
    654    631    632    657   5     0.00000     0.00000     1.25520  0.0
    655    631    632    633   5     0.00000     0.00000     1.25520  0.0
    655    631    632    656   5     0.00000     0.00000     1.25520  0.0
    655    631    632    657   5     0.00000     0.00000     1.25520  0.0
    631    632    633    634   5     4.74884    -0.63178     1.67360  0.0
    631    632    633    658   5     0.00000     0.00000     1.25520  0.0
    631    632    633    659   5     0.00000     0.00000     1.25520  0.0
    656    632    633    634   5     0.00000     0.00000     1.25520  0.0
    656    632    633    658   5     0.00000     0.00000     1.25520  0.0
    656    632    633    659   5     0.00000     0.00000     1.25520  0.0
    657    632    633    634   5     0.00000     0.00000     1.25520  0.0
    657    632    633    658   5     0.00000     0.00000     1.25520  0.0
    657    632    633    659   5     0.00000     0.00000     1.25520  0.0
    632    633    634    635   5     4.74884    -0.63178     1.67360  0.0
    632    633    634    660   5     0.00000     0.00000     1.25520  0.0
    632    633    634    661   5     0.00000     0.00000     1.25520  0.0
    658    633    634    635   5     0.00000     0.00000     1.25520  0.0
    658    633    634    660   5     0.00000     0.00000     1.25520  0.0
    658    633    634    661   5     0.00000     0.00000     1.25520  0.0
    659    633    634    635   5     0.00000     0.00000     1.25520  0.0
    659    633    634    660   5     0.00000     0.00000     1.25520  0.0
    659    633    634    661   5     0.00000     0.00000     1.25520  0.0
    633    634    635    636   5     4.74884    -0.63178     1.67360  0.0
    633    634    635    662   5     0.00000     0.00000     1.25520  0.0
    633    634    635    663   5     0.00000     0.00000     1.25520  0.0
    660    634    635    636   5     0.00000     0.00000     1.25520  0.0
    660    634    635    662   5     0.00000     0.00000     1.25520  0.0
    660    634    635    663   5     0.00000     0.00000     1.25520  0.0
    661    634    635    636   5     0.00000     0.00000     1.25520  0.0
    661    634    635    662   5     0.00000     0.00000     1.25520  0.0
    661    634    635    663   5     0.00000     0.00000     1.25520  0.0
    634    635    636    637   5     5.25092    -2.58990     2.28446  0.0
    634    635    636    664   5     0.00000     0.00000     1.25520  0.0
    634    635    636    665   5     0.00000     0.00000     1.25520  0.0
    662    635    636    637   5     0.00000     0.00000     1.95811  0.0
    662    635    636    664   5     0.00000     0.00000     1.25520  0.0
    662    635    636    665   5     0.00000     0.00000     1.25520  0.0
    663    635    636    637   5     0.00000     0.00000     1.95811  0.0
    663    635    636    664   5     0.00000     0.00000     1.25520  0.0
    663    635    636    665   5     0.00000     0.00000     1.25520  0.0
    635    636    637    638   5    -2.16731    -3.93296     0.98324  0.0
    664    636    637    638   5     0.00000     0.00000     0.67362  0.0
    665    636    637    638   5     0.00000     0.00000     0.67362  0.0
    636    637    638    639   5     0.00000    25.10400     0.00000  0.0
    636    637    638    640   5    13.65239    24.43456     0.00000  0.0
    637    638    640    641   5     0.00000     0.00000     3.07524  0.0
    637    638    640    666   5     0.00000     0.00000     0.00000  0.0
    637    638    640    667   5     0.00000     0.00000     0.00000  0.0
    639    638    640    641   5     0.00000     2.52295     0.00000  0.0
    639    638    640    666   5     0.00000     0.00000     0.00000  0.0
    639    638    640    667   5     0.00000     0.00000     0.00000  0.0
    638    640    641    642   5    -8.00818    -1.52298     2.46438  0.0
    638    640    641    668   5     0.00000     0.00000    -0.94140  0.0
    638    640    641    669   5     0.00000     0.00000    -0.94140  0.0
    666    640    641    642   5     0.00000     0.00000     1.25520  0.0
    666    640    641    668   5     0.00000     0.00000     1.25520  0.0
    666    640    641    669   5     0.00000     0.00000     1.25520  0.0
    667    640    641    642   5     0.00000     0.00000     1.25520  0.0
    667    640    641    668   5     0.00000     0.00000     1.25520  0.0
    667    640    641    669   5     0.00000     0.00000     1.25520  0.0
    640    641    642    643   5     4.74884    -0.63178     1.67360  0.0
    640    641    642    670   5     0.00000     0.00000     1.25520  0.0
    640    641    642    671   5     0.00000     0.00000     1.25520  0.0
    668    641    642    643   5     0.00000     0.00000     1.25520  0.0
    668    641    642    670   5     0.00000     0.00000     1.25520  0.0
    668    641    642    671   5     0.00000     0.00000     1.25520  0.0
    669    641    642    643   5     0.00000     0.00000     1.25520  0.0
    669    641    642    670   5     0.00000     0.00000     1.25520  0.0
    669    641    642    671   5     0.00000     0.00000     1.25520  0.0
    641    642    643    644   5    -8.00818    -1.52298     2.46438  0.0
    641    642    643    672   5     0.00000     0.00000     1.25520  0.0
    641    642    643    673   5     0.00000     0.00000     1.25520  0.0
    670    642    643    644   5     0.00000     0.00000    -0.94140  0.0
    670    642    643    672   5     0.00000     0.00000     1.25520  0.0
    670    642    643    673   5     0.00000     0.00000     1.25520  0.0
    671    642    643    644   5     0.00000     0.00000    -0.94140  0.0
    671    642    643    672   5     0.00000     0.00000     1.25520  0.0
    671    642    643    673   5     0.00000     0.00000     1.25520  0.0
    642    643    644    645   5     0.00000     2.52295     0.00000  0.0
    642    643    644    674   5     0.00000     0.00000     3.07524  0.0
    672    643    644    645   5     0.00000     0.00000     0.00000  0.0
    672    643    644    674   5     0.00000     0.00000     0.00000  0.0
    673    643    644    645   5     0.00000     0.00000     0.00000  0.0
    673    643    644    674   5     0.00000     0.00000     0.00000  0.0
    643    644    674    675   5    13.65239    24.43456     0.00000  0.0
    645    644    674    675   5     0.00000    25.10400     0.00000  0.0
    644    674    675    676   5    -2.16731    -3.93296     0.98324  0.0
    644    674    675    694   5     0.00000     0.00000     0.67362  0.0
    644    674    675    695   5     0.00000     0.00000     0.67362  0.0
    674    675    676    677   5     5.25092    -2.58990     2.28446  0.0
    674    675    676    696   5     0.00000     0.00000     1.95811  0.0
    674    675    676    697   5     0.00000     0.00000     1.95811  0.0
    694    675    676    677   5     0.00000     0.00000     1.25520  0.0
    694    675    676    696   5     0.00000     0.00000     1.25520  0.0
    694    675    676    697   5     0.00000     0.00000     1.25520  0.0
    695    675    676    677   5     0.00000     0.00000     1.25520  0.0
    695    675    676    696   5     0.00000     0.00000     1.25520  0.0
    695    675    676    697   5     0.00000     0.00000     1.25520  0.0
    675    676    677    678   5     4.74884    -0.63178     1.67360  0.0
    675    676    677    698   5     0.00000     0.00000     1.25520  0.0
    675    676    677    699   5     0.00000     0.00000     1.25520  0.0
    696    676    677    678   5     0.00000     0.00000     1.25520  0.0
    696    676    677    698   5     0.00000     0.00000     1.25520  0.0
    696    676    677    699   5     0.00000     0.00000     1.25520  0.0
    697    676    677    678   5     0.00000     0.00000     1.25520  0.0
    697    676    677    698   5     0.00000     0.00000     1.25520  0.0
    697    676    677    699   5     0.00000     0.00000     1.25520  0.0
    676    677    678    679   5     4.74884    -0.63178     1.67360  0.0
    676    677    678    700   5     0.00000     0.00000     1.25520  0.0
    676    677    678    701   5     0.00000     0.00000     1.25520  0.0
    698    677    678    679   5     0.00000     0.00000     1.25520  0.0
    698    677    678    700   5     0.00000     0.00000     1.25520  0.0
    698    677    678    701   5     0.00000     0.00000     1.25520  0.0
    699    677    678    679   5     0.00000     0.00000     1.25520  0.0
    699    677    678    700   5     0.00000     0.00000     1.25520  0.0
    699    677    678    701   5     0.00000     0.00000     1.25520  0.0
    677    678    679    680   5     4.74884    -0.63178     1.67360  0.0
    677    678    679    702   5     0.00000     0.00000     1.25520  0.0
    677    678    679    703   5     0.00000     0.00000     1.25520  0.0
    700    678    679    680   5     0.00000     0.00000     1.25520  0.0
    700    678    679    702   5     0.00000     0.00000     1.25520  0.0
    700    678    679    703   5     0.00000     0.00000     1.25520  0.0
    701    678    679    680   5     0.00000     0.00000     1.25520  0.0
    701    678    679    702   5     0.00000     0.00000     1.25520  0.0
    701    678    679    703   5     0.00000     0.00000     1.25520  0.0
    678    679    680    681   5     4.74884    -0.63178     1.67360  0.0
    678    679    680    704   5     0.00000     0.00000     1.25520  0.0
    678    679    680    705   5     0.00000     0.00000     1.25520  0.0
    702    679    680    681   5     0.00000     0.00000     1.25520  0.0
    702    679    680    704   5     0.00000     0.00000     1.25520  0.0
    702    679    680    705   5     0.00000     0.00000     1.25520  0.0
    703    679    680    681   5     0.00000     0.00000     1.25520  0.0
    703    679    680    704   5     0.00000     0.00000     1.25520  0.0
    703    679    680    705   5     0.00000     0.00000     1.25520  0.0
    679    680    681    682   5     4.74884    -0.63178     1.67360  0.0
    679    680    681    706   5     0.00000     0.00000     1.25520  0.0
    679    680    681    707   5     0.00000     0.00000     1.25520  0.0
    704    680    681    682   5     0.00000     0.00000     1.25520  0.0
    704    680    681    706   5     0.00000     0.00000     1.25520  0.0
    704    680    681    707   5     0.00000     0.00000     1.25520  0.0
    705    680    681    682   5     0.00000     0.00000     1.25520  0.0
    705    680    681    706   5     0.00000     0.00000     1.25520  0.0
    705    680    681    707   5     0.00000     0.00000     1.25520  0.0
    680    681    682    683   5     4.74884    -0.63178     1.67360  0.0
    680    681    682    708   5     0.00000     0.00000     1.25520  0.0
    680    681    682    709   5     0.00000     0.00000     1.25520  0.0
    706    681    682    683   5     0.00000     0.00000     1.25520  0.0
    706    681    682    708   5     0.00000     0.00000     1.25520  0.0
    706    681    682    709   5     0.00000     0.00000     1.25520  0.0
    707    681    682    683   5     0.00000     0.00000     1.25520  0.0
    707    681    682    708   5     0.00000     0.00000     1.25520  0.0
    707    681    682    709   5     0.00000     0.00000     1.25520  0.0
    681    682    683    684   5     4.74884    -0.63178     1.67360  0.0
    681    682    683    710   5     0.00000     0.00000     1.25520  0.0
    681    682    683    711   5     0.00000     0.00000     1.25520  0.0
    708    682    683    684   5     0.00000     0.00000     1.25520  0.0
    708    682    683    710   5     0.00000     0.00000     1.25520  0.0
    708    682    683    711   5     0.00000     0.00000     1.25520  0.0
    709    682    683    684   5     0.00000     0.00000     1.25520  0.0
    709    682    683    710   5     0.00000     0.00000     1.25520  0.0
    709    682    683    711   5     0.00000     0.00000     1.25520  0.0
    682    683    684    685   5     5.25092    -2.58990     2.28446  0.0
    682    683    684    712   5     0.00000     0.00000     1.25520  0.0
    682    683    684    713   5     0.00000     0.00000     1.25520  0.0
    710    683    684    685   5     0.00000     0.00000     1.95811  0.0
    710    683    684    712   5     0.00000     0.00000     1.25520  0.0
    710    683    684    713   5     0.00000     0.00000     1.25520  0.0
    711    683    684    685   5     0.00000     0.00000     1.95811  0.0
    711    683    684    712   5     0.00000     0.00000     1.25520  0.0
    711    683    684    713   5     0.00000     0.00000     1.25520  0.0
    683    684    685    686   5    -2.16731    -3.93296     0.98324  0.0
    712    684    685    686   5     0.00000     0.00000     0.67362  0.0
    713    684    685    686   5     0.00000     0.00000     0.67362  0.0
    684    685    686    687   5     0.00000    25.10400     0.00000  0.0
    684    685    686    688   5    13.65239    24.43456     0.00000  0.0
    685    686    688    689   5     0.00000     0.00000     3.07524  0.0
    685    686    688    714   5     0.00000     0.00000     0.00000  0.0
    685    686    688    715   5     0.00000     0.00000     0.00000  0.0
    687    686    688    689   5     0.00000     2.52295     0.00000  0.0
    687    686    688    714   5     0.00000     0.00000     0.00000  0.0
    687    686    688    715   5     0.00000     0.00000     0.00000  0.0
    686    688    689    690   5    -8.00818    -1.52298     2.46438  0.0
    686    688    689    716   5     0.00000     0.00000    -0.94140  0.0
    686    688    689    717   5     0.00000     0.00000    -0.94140  0.0
    714    688    689    690   5     0.00000     0.00000     1.25520  0.0
    714    688    689    716   5     0.00000     0.00000     1.25520  0.0
    714    688    689    717   5     0.00000     0.00000     1.25520  0.0
    715    688    689    690   5     0.00000     0.00000     1.25520  0.0
    715    688    689    716   5     0.00000     0.00000     1.25520  0.0
    715    688    689    717   5     0.00000     0.00000     1.25520  0.0
    688    689    690    691   5     4.74884    -0.63178     1.67360  0.0
    688    689    690    718   5     0.00000     0.00000     1.25520  0.0
    688    689    690    719   5     0.00000     0.00000     1.25520  0.0
    716    689    690    691   5     0.00000     0.00000     1.25520  0.0
    716    689    690    718   5     0.00000     0.00000     1.25520  0.0
    716    689    690    719   5     0.00000     0.00000     1.25520  0.0
    717    689    690    691   5     0.00000     0.00000     1.25520  0.0
    717    689    690    718   5     0.00000     0.00000     1.25520  0.0
    717    689    690    719   5     0.00000     0.00000     1.25520  0.0
    689    690    691    692   5    -8.00818    -1.52298     2.46438  0.0
    689    690    691    720   5     0.00000     0.00000     1.25520  0.0
    689    690    691    721   5     0.00000     0.00000     1.25520  0.0
    718    690    691    692   5     0.00000     0.00000    -0.94140  0.0
    718    690    691    720   5     0.00000     0.00000     1.25520  0.0
    718    690    691    721   5     0.00000     0.00000     1.25520  0.0
    719    690    691    692   5     0.00000     0.00000    -0.94140  0.0
    719    690    691    720   5     0.00000     0.00000     1.25520  0.0
    719    690    691    721   5     0.00000     0.00000     1.25520  0.0
    690    691    692    693   5     0.00000     2.52295     0.00000  0.0
    690    691    692    722   5     0.00000     0.00000     3.07524  0.0
    720    691    692    693   5     0.00000     0.00000     0.00000  0.0
    720    691    692    722   5     0.00000     0.00000     0.00000  0.0
    721    691    692    693   5     0.00000     0.00000     0.00000  0.0
    721    691    692    722   5     0.00000     0.00000     0.00000  0.0
    691    692    722    723   5    13.65239    24.43456     0.00000  0.0
    693    692    722    723   5     0.00000    25.10400     0.00000  0.0
    692    722    723    724   5    -2.16731    -3.93296     0.98324  0.0
    692    722    723    742   5     0.00000     0.00000     0.67362  0.0
    692    722    723    743   5     0.00000     0.00000     0.67362  0.0
    722    723    724    725   5     5.25092    -2.58990     2.28446  0.0
    722    723    724    744   5     0.00000     0.00000     1.95811  0.0
    722    723    724    745   5     0.00000     0.00000     1.95811  0.0
    742    723    724    725   5     0.00000     0.00000     1.25520  0.0
    742    723    724    744   5     0.00000     0.00000     1.25520  0.0
    742    723    724    745   5     0.00000     0.00000     1.25520  0.0
    743    723    724    725   5     0.00000     0.00000     1.25520  0.0
    743    723    724    744   5     0.00000     0.00000     1.25520  0.0
    743    723    724    745   5     0.00000     0.00000     1.25520  0.0
    723    724    725    726   5     4.74884    -0.63178     1.67360  0.0
    723    724    725    746   5     0.00000     0.00000     1.25520  0.0
    723    724    725    747   5     0.00000     0.00000     1.25520  0.0
    744    724    725    726   5     0.00000     0.00000     1.25520  0.0
    744    724    725    746   5     0.00000     0.00000     1.25520  0.0
    744    724    725    747   5     0.00000     0.00000     1.25520  0.0
    745    724    725    726   5     0.00000     0.00000     1.25520  0.0
    745    724    725    746   5     0.00000     0.00000     1.25520  0.0
    745    724    725    747   5     0.00000     0.00000     1.25520  0.0
    724    725    726    727   5     4.74884    -0.63178     1.67360  0.0
    724    725    726    748   5     0.00000     0.00000     1.25520  0.0
    724    725    726    749   5     0.00000     0.00000     1.25520  0.0
    746    725    726    727   5     0.00000     0.00000     1.25520  0.0
    746    725    726    748   5     0.00000     0.00000     1.25520  0.0
    746    725    726    749   5     0.00000     0.00000     1.25520  0.0
    747    725    726    727   5     0.00000     0.00000     1.25520  0.0
    747    725    726    748   5     0.00000     0.00000     1.25520  0.0
    747    725    726    749   5     0.00000     0.00000     1.25520  0.0
    725    726    727    728   5     4.74884    -0.63178     1.67360  0.0
    725    726    727    750   5     0.00000     0.00000     1.25520  0.0
    725    726    727    751   5     0.00000     0.00000     1.25520  0.0
    748    726    727    728   5     0.00000     0.00000     1.25520  0.0
    748    726    727    750   5     0.00000     0.00000     1.25520  0.0
    748    726    727    751   5     0.00000     0.00000     1.25520  0.0
    749    726    727    728   5     0.00000     0.00000     1.25520  0.0
    749    726    727    750   5     0.00000     0.00000     1.25520  0.0
    749    726    727    751   5     0.00000     0.00000     1.25520  0.0
    726    727    728    729   5     4.74884    -0.63178     1.67360  0.0
    726    727    728    752   5     0.00000     0.00000     1.25520  0.0
    726    727    728    753   5     0.00000     0.00000     1.25520  0.0
    750    727    728    729   5     0.00000     0.00000     1.25520  0.0
    750    727    728    752   5     0.00000     0.00000     1.25520  0.0
    750    727    728    753   5     0.00000     0.00000     1.25520  0.0
    751    727    728    729   5     0.00000     0.00000     1.25520  0.0
    751    727    728    752   5     0.00000     0.00000     1.25520  0.0
    751    727    728    753   5     0.00000     0.00000     1.25520  0.0
    727    728    729    730   5     4.74884    -0.63178     1.67360  0.0
    727    728    729    754   5     0.00000     0.00000     1.25520  0.0
    727    728    729    755   5     0.00000     0.00000     1.25520  0.0
    752    728    729    730   5     0.00000     0.00000     1.25520  0.0
    752    728    729    754   5     0.00000     0.00000     1.25520  0.0
    752    728    729    755   5     0.00000     0.00000     1.25520  0.0
    753    728    729    730   5     0.00000     0.00000     1.25520  0.0
    753    728    729    754   5     0.00000     0.00000     1.25520  0.0
    753    728    729    755   5     0.00000     0.00000     1.25520  0.0
    728    729    730    731   5     4.74884    -0.63178     1.67360  0.0
    728    729    730    756   5     0.00000     0.00000     1.25520  0.0
    728    729    730    757   5     0.00000     0.00000     1.25520  0.0
    754    729    730    731   5     0.00000     0.00000     1.25520  0.0
    754    729    730    756   5     0.00000     0.00000     1.25520  0.0
    754    729    730    757   5     0.00000     0.00000     1.25520  0.0
    755    729    730    731   5     0.00000     0.00000     1.25520  0.0
    755    729    730    756   5     0.00000     0.00000     1.25520  0.0
    755    729    730    757   5     0.00000     0.00000     1.25520  0.0
    729    730    731    732   5     4.74884    -0.63178     1.67360  0.0
    729    730    731    758   5     0.00000     0.00000     1.25520  0.0
    729    730    731    759   5     0.00000     0.00000     1.25520  0.0
    756    730    731    732   5     0.00000     0.00000     1.25520  0.0
    756    730    731    758   5     0.00000     0.00000     1.25520  0.0
    756    730    731    759   5     0.00000     0.00000     1.25520  0.0
    757    730    731    732   5     0.00000     0.00000     1.25520  0.0
    757    730    731    758   5     0.00000     0.00000     1.25520  0.0
    757    730    731    759   5     0.00000     0.00000     1.25520  0.0
    730    731    732    733   5     5.25092    -2.58990     2.28446  0.0
    730    731    732    760   5     0.00000     0.00000     1.25520  0.0
    730    731    732    761   5     0.00000     0.00000     1.25520  0.0
    758    731    732    733   5     0.00000     0.00000     1.95811  0.0
    758    731    732    760   5     0.00000     0.00000     1.25520  0.0
    758    731    732    761   5     0.00000     0.00000     1.25520  0.0
    759    731    732    733   5     0.00000     0.00000     1.95811  0.0
    759    731    732    760   5     0.00000     0.00000     1.25520  0.0
    759    731    732    761   5     0.00000     0.00000     1.25520  0.0
    731    732    733    734   5    -2.16731    -3.93296     0.98324  0.0
    760    732    733    734   5     0.00000     0.00000     0.67362  0.0
    761    732    733    734   5     0.00000     0.00000     0.67362  0.0
    732    733    734    735   5     0.00000    25.10400     0.00000  0.0
    732    733    734    736   5    13.65239    24.43456     0.00000  0.0
    733    734    736    737   5     0.00000     0.00000     3.07524  0.0
    733    734    736    762   5     0.00000     0.00000     0.00000  0.0
    733    734    736    763   5     0.00000     0.00000     0.00000  0.0
    735    734    736    737   5     0.00000     2.52295     0.00000  0.0
    735    734    736    762   5     0.00000     0.00000     0.00000  0.0
    735    734    736    763   5     0.00000     0.00000     0.00000  0.0
    734    736    737    738   5    -8.00818    -1.52298     2.46438  0.0
    734    736    737    764   5     0.00000     0.00000    -0.94140  0.0
    734    736    737    765   5     0.00000     0.00000    -0.94140  0.0
    762    736    737    738   5     0.00000     0.00000     1.25520  0.0
    762    736    737    764   5     0.00000     0.00000     1.25520  0.0
    762    736    737    765   5     0.00000     0.00000     1.25520  0.0
    763    736    737    738   5     0.00000     0.00000     1.25520  0.0
    763    736    737    764   5     0.00000     0.00000     1.25520  0.0
    763    736    737    765   5     0.00000     0.00000     1.25520  0.0
    736    737    738    739   5     4.74884    -0.63178     1.67360  0.0
    736    737    738    766   5     0.00000     0.00000     1.25520  0.0
    736    737    738    767   5     0.00000     0.00000     1.25520  0.0
    764    737    738    739   5     0.00000     0.00000     1.25520  0.0
    764    737    738    766   5     0.00000     0.00000     1.25520  0.0
    764    737    738    767   5     0.00000     0.00000     1.25520  0.0
    765    737    738    739   5     0.00000     0.00000     1.25520  0.0
    765    737    738    766   5     0.00000     0.00000     1.25520  0.0
    765    737    738    767   5     0.00000     0.00000     1.25520  0.0
    737    738    739    740   5    -8.00818    -1.52298     2.46438  0.0
    737    738    739    768   5     0.00000     0.00000     1.25520  0.0
    737    738    739    769   5     0.00000     0.00000     1.25520  0.0
    766    738    739    740   5     0.00000     0.00000    -0.94140  0.0
    766    738    739    768   5     0.00000     0.00000     1.25520  0.0
    766    738    739    769   5     0.00000     0.00000     1.25520  0.0
    767    738    739    740   5     0.00000     0.00000    -0.94140  0.0
    767    738    739    768   5     0.00000     0.00000     1.25520  0.0
    767    738    739    769   5     0.00000     0.00000     1.25520  0.0
    738    739    740    741   5     0.00000     2.52295     0.00000  0.0
    738    739    740    770   5     0.00000     0.00000     3.07524  0.0
    768    739    740    741   5     0.00000     0.00000     0.00000  0.0
    768    739    740    770   5     0.00000     0.00000     0.00000  0.0
    769    739    740    741   5     0.00000     0.00000     0.00000  0.0
    769    739    740    770   5     0.00000     0.00000     0.00000  0.0
    739    740    770    771   5    13.65239    24.43456     0.00000  0.0
    741    740    770    771   5     0.00000    25.10400     0.00000  0.0
    740    770    771    772   5    -2.16731    -3.93296     0.98324  0.0
    740    770    771    790   5     0.00000     0.00000     0.67362  0.0
    740    770    771    791   5     0.00000     0.00000     0.67362  0.0
    770    771    772    773   5     5.25092    -2.58990     2.28446  0.0
    770    771    772    792   5     0.00000     0.00000     1.95811  0.0
    770    771    772    793   5     0.00000     0.00000     1.95811  0.0
    790    771    772    773   5     0.00000     0.00000     1.25520  0.0
    790    771    772    792   5     0.00000     0.00000     1.25520  0.0
    790    771    772    793   5     0.00000     0.00000     1.25520  0.0
    791    771    772    773   5     0.00000     0.00000     1.25520  0.0
    791    771    772    792   5     0.00000     0.00000     1.25520  0.0
    791    771    772    793   5     0.00000     0.00000     1.25520  0.0
    771    772    773    774   5     4.74884    -0.63178     1.67360  0.0
    771    772    773    794   5     0.00000     0.00000     1.25520  0.0
    771    772    773    795   5     0.00000     0.00000     1.25520  0.0
    792    772    773    774   5     0.00000     0.00000     1.25520  0.0
    792    772    773    794   5     0.00000     0.00000     1.25520  0.0
    792    772    773    795   5     0.00000     0.00000     1.25520  0.0
    793    772    773    774   5     0.00000     0.00000     1.25520  0.0
    793    772    773    794   5     0.00000     0.00000     1.25520  0.0
    793    772    773    795   5     0.00000     0.00000     1.25520  0.0
    772    773    774    775   5     4.74884    -0.63178     1.67360  0.0
    772    773    774    796   5     0.00000     0.00000     1.25520  0.0
    772    773    774    797   5     0.00000     0.00000     1.25520  0.0
    794    773    774    775   5     0.00000     0.00000     1.25520  0.0
    794    773    774    796   5     0.00000     0.00000     1.25520  0.0
    794    773    774    797   5     0.00000     0.00000     1.25520  0.0
    795    773    774    775   5     0.00000     0.00000     1.25520  0.0
    795    773    774    796   5     0.00000     0.00000     1.25520  0.0
    795    773    774    797   5     0.00000     0.00000     1.25520  0.0
    773    774    775    776   5     4.74884    -0.63178     1.67360  0.0
    773    774    775    798   5     0.00000     0.00000     1.25520  0.0
    773    774    775    799   5     0.00000     0.00000     1.25520  0.0
    796    774    775    776   5     0.00000     0.00000     1.25520  0.0
    796    774    775    798   5     0.00000     0.00000     1.25520  0.0
    796    774    775    799   5     0.00000     0.00000     1.25520  0.0
    797    774    775    776   5     0.00000     0.00000     1.25520  0.0
    797    774    775    798   5     0.00000     0.00000     1.25520  0.0
    797    774    775    799   5     0.00000     0.00000     1.25520  0.0
    774    775    776    777   5     4.74884    -0.63178     1.67360  0.0
    774    775    776    800   5     0.00000     0.00000     1.25520  0.0
    774    775    776    801   5     0.00000     0.00000     1.25520  0.0
    798    775    776    777   5     0.00000     0.00000     1.25520  0.0
    798    775    776    800   5     0.00000     0.00000     1.25520  0.0
    798    775    776    801   5     0.00000     0.00000     1.25520  0.0
    799    775    776    777   5     0.00000     0.00000     1.25520  0.0
    799    775    776    800   5     0.00000     0.00000     1.25520  0.0
    799    775    776    801   5     0.00000     0.00000     1.25520  0.0
    775    776    777    778   5     4.74884    -0.63178     1.67360  0.0
    775    776    777    802   5     0.00000     0.00000     1.25520  0.0
    775    776    777    803   5     0.00000     0.00000     1.25520  0.0
    800    776    777    778   5     0.00000     0.00000     1.25520  0.0
    800    776    777    802   5     0.00000     0.00000     1.25520  0.0
    800    776    777    803   5     0.00000     0.00000     1.25520  0.0
    801    776    777    778   5     0.00000     0.00000     1.25520  0.0
    801    776    777    802   5     0.00000     0.00000     1.25520  0.0
    801    776    777    803   5     0.00000     0.00000     1.25520  0.0
    776    777    778    779   5     4.74884    -0.63178     1.67360  0.0
    776    777    778    804   5     0.00000     0.00000     1.25520  0.0
    776    777    778    805   5     0.00000     0.00000     1.25520  0.0
    802    777    778    779   5     0.00000     0.00000     1.25520  0.0
    802    777    778    804   5     0.00000     0.00000     1.25520  0.0
    802    777    778    805   5     0.00000     0.00000     1.25520  0.0
    803    777    778    779   5     0.00000     0.00000     1.25520  0.0
    803    777    778    804   5     0.00000     0.00000     1.25520  0.0
    803    777    778    805   5     0.00000     0.00000     1.25520  0.0
    777    778    779    780   5     4.74884    -0.63178     1.67360  0.0
    777    778    779    806   5     0.00000     0.00000     1.25520  0.0
    777    778    779    807   5     0.00000     0.00000     1.25520  0.0
    804    778    779    780   5     0.00000     0.00000     1.25520  0.0
    804    778    779    806   5     0.00000     0.00000     1.25520  0.0
    804    778    779    807   5     0.00000     0.00000     1.25520  0.0
    805    778    779    780   5     0.00000     0.00000     1.25520  0.0
    805    778    779    806   5     0.00000     0.00000     1.25520  0.0
    805    778    779    807   5     0.00000     0.00000     1.25520  0.0
    778    779    780    781   5     5.25092    -2.58990     2.28446  0.0
    778    779    780    808   5     0.00000     0.00000     1.25520  0.0
    778    779    780    809   5     0.00000     0.00000     1.25520  0.0
    806    779    780    781   5     0.00000     0.00000     1.95811  0.0
    806    779    780    808   5     0.00000     0.00000     1.25520  0.0
    806    779    780    809   5     0.00000     0.00000     1.25520  0.0
    807    779    780    781   5     0.00000     0.00000     1.95811  0.0
    807    779    780    808   5     0.00000     0.00000     1.25520  0.0
    807    779    780    809   5     0.00000     0.00000     1.25520  0.0
    779    780    781    782   5    -2.16731    -3.93296     0.98324  0.0
    808    780    781    782   5     0.00000     0.00000     0.67362  0.0
    809    780    781    782   5     0.00000     0.00000     0.67362  0.0
    780    781    782    783   5     0.00000    25.10400     0.00000  0.0
    780    781    782    784   5    13.65239    24.43456     0.00000  0.0
    781    782    784    785   5     0.00000     0.00000     3.07524  0.0
    781    782    784    810   5     0.00000     0.00000     0.00000  0.0
    781    782    784    811   5     0.00000     0.00000     0.00000  0.0
    783    782    784    785   5     0.00000     2.52295     0.00000  0.0
    783    782    784    810   5     0.00000     0.00000     0.00000  0.0
    783    782    784    811   5     0.00000     0.00000     0.00000  0.0
    782    784    785    786   5    -8.00818    -1.52298     2.46438  0.0
    782    784    785    812   5     0.00000     0.00000    -0.94140  0.0
    782    784    785    813   5     0.00000     0.00000    -0.94140  0.0
    810    784    785    786   5     0.00000     0.00000     1.25520  0.0
    810    784    785    812   5     0.00000     0.00000     1.25520  0.0
    810    784    785    813   5     0.00000     0.00000     1.25520  0.0
    811    784    785    786   5     0.00000     0.00000     1.25520  0.0
    811    784    785    812   5     0.00000     0.00000     1.25520  0.0
    811    784    785    813   5     0.00000     0.00000     1.25520  0.0
    784    785    786    787   5     4.74884    -0.63178     1.67360  0.0
    784    785    786    814   5     0.00000     0.00000     1.25520  0.0
    784    785    786    815   5     0.00000     0.00000     1.25520  0.0
    812    785    786    787   5     0.00000     0.00000     1.25520  0.0
    812    785    786    814   5     0.00000     0.00000     1.25520  0.0
    812    785    786    815   5     0.00000     0.00000     1.25520  0.0
    813    785    786    787   5     0.00000     0.00000     1.25520  0.0
    813    785    786    814   5     0.00000     0.00000     1.25520  0.0
    813    785    786    815   5     0.00000     0.00000     1.25520  0.0
    785    786    787    788   5    -8.00818    -1.52298     2.46438  0.0
    785    786    787    816   5     0.00000     0.00000     1.25520  0.0
    785    786    787    817   5     0.00000     0.00000     1.25520  0.0
    814    786    787    788   5     0.00000     0.00000    -0.94140  0.0
    814    786    787    816   5     0.00000     0.00000     1.25520  0.0
    814    786    787    817   5     0.00000     0.00000     1.25520  0.0
    815    786    787    788   5     0.00000     0.00000    -0.94140  0.0
    815    786    787    816   5     0.00000     0.00000     1.25520  0.0
    815    786    787    817   5     0.00000     0.00000     1.25520  0.0
    786    787    788    789   5     0.00000     2.52295     0.00000  0.0
    786    787    788    818   5     0.00000     0.00000     3.07524  0.0
    816    787    788    789   5     0.00000     0.00000     0.00000  0.0
    816    787    788    818   5     0.00000     0.00000     0.00000  0.0
    817    787    788    789   5     0.00000     0.00000     0.00000  0.0
    817    787    788    818   5     0.00000     0.00000     0.00000  0.0
    787    788    818    819   5    13.65239    24.43456     0.00000  0.0
    789    788    818    819   5     0.00000    25.10400     0.00000  0.0
    788    818    819    820   5    -2.16731    -3.93296     0.98324  0.0
    788    818    819    838   5     0.00000     0.00000     0.67362  0.0
    788    818    819    839   5     0.00000     0.00000     0.67362  0.0
    818    819    820    821   5     5.25092    -2.58990     2.28446  0.0
    818    819    820    840   5     0.00000     0.00000     1.95811  0.0
    818    819    820    841   5     0.00000     0.00000     1.95811  0.0
    838    819    820    821   5     0.00000     0.00000     1.25520  0.0
    838    819    820    840   5     0.00000     0.00000     1.25520  0.0
    838    819    820    841   5     0.00000     0.00000     1.25520  0.0
    839    819    820    821   5     0.00000     0.00000     1.25520  0.0
    839    819    820    840   5     0.00000     0.00000     1.25520  0.0
    839    819    820    841   5     0.00000     0.00000     1.25520  0.0
    819    820    821    822   5     4.74884    -0.63178     1.67360  0.0
    819    820    821    842   5     0.00000     0.00000     1.25520  0.0
    819    820    821    843   5     0.00000     0.00000     1.25520  0.0
    840    820    821    822   5     0.00000     0.00000     1.25520  0.0
    840    820    821    842   5     0.00000     0.00000     1.25520  0.0
    840    820    821    843   5     0.00000     0.00000     1.25520  0.0
    841    820    821    822   5     0.00000     0.00000     1.25520  0.0
    841    820    821    842   5     0.00000     0.00000     1.25520  0.0
    841    820    821    843   5     0.00000     0.00000     1.25520  0.0
    820    821    822    823   5     4.74884    -0.63178     1.67360  0.0
    820    821    822    844   5     0.00000     0.00000     1.25520  0.0
    820    821    822    845   5     0.00000     0.00000     1.25520  0.0
    842    821    822    823   5     0.00000     0.00000     1.25520  0.0
    842    821    822    844   5     0.00000     0.00000     1.25520  0.0
    842    821    822    845   5     0.00000     0.00000     1.25520  0.0
    843    821    822    823   5     0.00000     0.00000     1.25520  0.0
    843    821    822    844   5     0.00000     0.00000     1.25520  0.0
    843    821    822    845   5     0.00000     0.00000     1.25520  0.0
    821    822    823    824   5     4.74884    -0.63178     1.67360  0.0
    821    822    823    846   5     0.00000     0.00000     1.25520  0.0
    821    822    823    847   5     0.00000     0.00000     1.25520  0.0
    844    822    823    824   5     0.00000     0.00000     1.25520  0.0
    844    822    823    846   5     0.00000     0.00000     1.25520  0.0
    844    822    823    847   5     0.00000     0.00000     1.25520  0.0
    845    822    823    824   5     0.00000     0.00000     1.25520  0.0
    845    822    823    846   5     0.00000     0.00000     1.25520  0.0
    845    822    823    847   5     0.00000     0.00000     1.25520  0.0
    822    823    824    825   5     4.74884    -0.63178     1.67360  0.0
    822    823    824    848   5     0.00000     0.00000     1.25520  0.0
    822    823    824    849   5     0.00000     0.00000     1.25520  0.0
    846    823    824    825   5     0.00000     0.00000     1.25520  0.0
    846    823    824    848   5     0.00000     0.00000     1.25520  0.0
    846    823    824    849   5     0.00000     0.00000     1.25520  0.0
    847    823    824    825   5     0.00000     0.00000     1.25520  0.0
    847    823    824    848   5     0.00000     0.00000     1.25520  0.0
    847    823    824    849   5     0.00000     0.00000     1.25520  0.0
    823    824    825    826   5     4.74884    -0.63178     1.67360  0.0
    823    824    825    850   5     0.00000     0.00000     1.25520  0.0
    823    824    825    851   5     0.00000     0.00000     1.25520  0.0
    848    824    825    826   5     0.00000     0.00000     1.25520  0.0
    848    824    825    850   5     0.00000     0.00000     1.25520  0.0
    848    824    825    851   5     0.00000     0.00000     1.25520  0.0
    849    824    825    826   5     0.00000     0.00000     1.25520  0.0
    849    824    825    850   5     0.00000     0.00000     1.25520  0.0
    849    824    825    851   5     0.00000     0.00000     1.25520  0.0
    824    825    826    827   5     4.74884    -0.63178     1.67360  0.0
    824    825    826    852   5     0.00000     0.00000     1.25520  0.0
    824    825    826    853   5     0.00000     0.00000     1.25520  0.0
    850    825    826    827   5     0.00000     0.00000     1.25520  0.0
    850    825    826    852   5     0.00000     0.00000     1.25520  0.0
    850    825    826    853   5     0.00000     0.00000     1.25520  0.0
    851    825    826    827   5     0.00000     0.00000     1.25520  0.0
    851    825    826    852   5     0.00000     0.00000     1.25520  0.0
    851    825    826    853   5     0.00000     0.00000     1.25520  0.0
    825    826    827    828   5     4.74884    -0.63178     1.67360  0.0
    825    826    827    854   5     0.00000     0.00000     1.25520  0.0
    825    826    827    855   5     0.00000     0.00000     1.25520  0.0
    852    826    827    828   5     0.00000     0.00000     1.25520  0.0
    852    826    827    854   5     0.00000     0.00000     1.25520  0.0
    852    826    827    855   5     0.00000     0.00000     1.25520  0.0
    853    826    827    828   5     0.00000     0.00000     1.25520  0.0
    853    826    827    854   5     0.00000     0.00000     1.25520  0.0
    853    826    827    855   5     0.00000     0.00000     1.25520  0.0
    826    827    828    829   5     5.25092    -2.58990     2.28446  0.0
    826    827    828    856   5     0.00000     0.00000     1.25520  0.0
    826    827    828    857   5     0.00000     0.00000     1.25520  0.0
    854    827    828    829   5     0.00000     0.00000     1.95811  0.0
    854    827    828    856   5     0.00000     0.00000     1.25520  0.0
    854    827    828    857   5     0.00000     0.00000     1.25520  0.0
    855    827    828    829   5     0.00000     0.00000     1.95811  0.0
    855    827    828    856   5     0.00000     0.00000     1.25520  0.0
    855    827    828    857   5     0.00000     0.00000     1.25520  0.0
    827    828    829    830   5    -2.16731    -3.93296     0.98324  0.0
    856    828    829    830   5     0.00000     0.00000     0.67362  0.0
    857    828    829    830   5     0.00000     0.00000     0.67362  0.0
    828    829    830    831   5     0.00000    25.10400     0.00000  0.0
    828    829    830    832   5    13.65239    24.43456     0.00000  0.0
    829    830    832    833   5     0.00000     0.00000     3.07524  0.0
    829    830    832    858   5     0.00000     0.00000     0.00000  0.0
    829    830    832    859   5     0.00000     0.00000     0.00000  0.0
    831    830    832    833   5     0.00000     2.52295     0.00000  0.0
    831    830    832    858   5     0.00000     0.00000     0.00000  0.0
    831    830    832    859   5     0.00000     0.00000     0.00000  0.0
    830    832    833    834   5    -8.00818    -1.52298     2.46438  0.0
    830    832    833    860   5     0.00000     0.00000    -0.94140  0.0
    830    832    833    861   5     0.00000     0.00000    -0.94140  0.0
    858    832    833    834   5     0.00000     0.00000     1.25520  0.0
    858    832    833    860   5     0.00000     0.00000     1.25520  0.0
    858    832    833    861   5     0.00000     0.00000     1.25520  0.0
    859    832    833    834   5     0.00000     0.00000     1.25520  0.0
    859    832    833    860   5     0.00000     0.00000     1.25520  0.0
    859    832    833    861   5     0.00000     0.00000     1.25520  0.0
    832    833    834    835   5     4.74884    -0.63178     1.67360  0.0
    832    833    834    862   5     0.00000     0.00000     1.25520  0.0
    832    833    834    863   5     0.00000     0.00000     1.25520  0.0
    860    833    834    835   5     0.00000     0.00000     1.25520  0.0
    860    833    834    862   5     0.00000     0.00000     1.25520  0.0
    860    833    834    863   5     0.00000     0.00000     1.25520  0.0
    861    833    834    835   5     0.00000     0.00000     1.25520  0.0
    861    833    834    862   5     0.00000     0.00000     1.25520  0.0
    861    833    834    863   5     0.00000     0.00000     1.25520  0.0
    833    834    835    836   5    -8.00818    -1.52298     2.46438  0.0
    833    834    835    864   5     0.00000     0.00000     1.25520  0.0
    833    834    835    865   5     0.00000     0.00000     1.25520  0.0
    862    834    835    836   5     0.00000     0.00000    -0.94140  0.0
    862    834    835    864   5     0.00000     0.00000     1.25520  0.0
    862    834    835    865   5     0.00000     0.00000     1.25520  0.0
    863    834    835    836   5     0.00000     0.00000    -0.94140  0.0
    863    834    835    864   5     0.00000     0.00000     1.25520  0.0
    863    834    835    865   5     0.00000     0.00000     1.25520  0.0
    834    835    836    837   5     0.00000     2.52295     0.00000  0.0
    834    835    836    866   5     0.00000     0.00000     3.07524  0.0
    864    835    836    837   5     0.00000     0.00000     0.00000  0.0
    864    835    836    866   5     0.00000     0.00000     0.00000  0.0
    865    835    836    837   5     0.00000     0.00000     0.00000  0.0
    865    835    836    866   5     0.00000     0.00000     0.00000  0.0
    835    836    866    867   5    13.65239    24.43456     0.00000  0.0
    837    836    866    867   5     0.00000    25.10400     0.00000  0.0
    836    866    867    868   5    -2.16731    -3.93296     0.98324  0.0
    836    866    867    886   5     0.00000     0.00000     0.67362  0.0
    836    866    867    887   5     0.00000     0.00000     0.67362  0.0
    866    867    868    869   5     5.25092    -2.58990     2.28446  0.0
    866    867    868    888   5     0.00000     0.00000     1.95811  0.0
    866    867    868    889   5     0.00000     0.00000     1.95811  0.0
    886    867    868    869   5     0.00000     0.00000     1.25520  0.0
    886    867    868    888   5     0.00000     0.00000     1.25520  0.0
    886    867    868    889   5     0.00000     0.00000     1.25520  0.0
    887    867    868    869   5     0.00000     0.00000     1.25520  0.0
    887    867    868    888   5     0.00000     0.00000     1.25520  0.0
    887    867    868    889   5     0.00000     0.00000     1.25520  0.0
    867    868    869    870   5     4.74884    -0.63178     1.67360  0.0
    867    868    869    890   5     0.00000     0.00000     1.25520  0.0
    867    868    869    891   5     0.00000     0.00000     1.25520  0.0
    888    868    869    870   5     0.00000     0.00000     1.25520  0.0
    888    868    869    890   5     0.00000     0.00000     1.25520  0.0
    888    868    869    891   5     0.00000     0.00000     1.25520  0.0
    889    868    869    870   5     0.00000     0.00000     1.25520  0.0
    889    868    869    890   5     0.00000     0.00000     1.25520  0.0
    889    868    869    891   5     0.00000     0.00000     1.25520  0.0
    868    869    870    871   5     4.74884    -0.63178     1.67360  0.0
    868    869    870    892   5     0.00000     0.00000     1.25520  0.0
    868    869    870    893   5     0.00000     0.00000     1.25520  0.0
    890    869    870    871   5     0.00000     0.00000     1.25520  0.0
    890    869    870    892   5     0.00000     0.00000     1.25520  0.0
    890    869    870    893   5     0.00000     0.00000     1.25520  0.0
    891    869    870    871   5     0.00000     0.00000     1.25520  0.0
    891    869    870    892   5     0.00000     0.00000     1.25520  0.0
    891    869    870    893   5     0.00000     0.00000     1.25520  0.0
    869    870    871    872   5     4.74884    -0.63178     1.67360  0.0
    869    870    871    894   5     0.00000     0.00000     1.25520  0.0
    869    870    871    895   5     0.00000     0.00000     1.25520  0.0
    892    870    871    872   5     0.00000     0.00000     1.25520  0.0
    892    870    871    894   5     0.00000     0.00000     1.25520  0.0
    892    870    871    895   5     0.00000     0.00000     1.25520  0.0
    893    870    871    872   5     0.00000     0.00000     1.25520  0.0
    893    870    871    894   5     0.00000     0.00000     1.25520  0.0
    893    870    871    895   5     0.00000     0.00000     1.25520  0.0
    870    871    872    873   5     4.74884    -0.63178     1.67360  0.0
    870    871    872    896   5     0.00000     0.00000     1.25520  0.0
    870    871    872    897   5     0.00000     0.00000     1.25520  0.0
    894    871    872    873   5     0.00000     0.00000     1.25520  0.0
    894    871    872    896   5     0.00000     0.00000     1.25520  0.0
    894    871    872    897   5     0.00000     0.00000     1.25520  0.0
    895    871    872    873   5     0.00000     0.00000     1.25520  0.0
    895    871    872    896   5     0.00000     0.00000     1.25520  0.0
    895    871    872    897   5     0.00000     0.00000     1.25520  0.0
    871    872    873    874   5     4.74884    -0.63178     1.67360  0.0
    871    872    873    898   5     0.00000     0.00000     1.25520  0.0
    871    872    873    899   5     0.00000     0.00000     1.25520  0.0
    896    872    873    874   5     0.00000     0.00000     1.25520  0.0
    896    872    873    898   5     0.00000     0.00000     1.25520  0.0
    896    872    873    899   5     0.00000     0.00000     1.25520  0.0
    897    872    873    874   5     0.00000     0.00000     1.25520  0.0
    897    872    873    898   5     0.00000     0.00000     1.25520  0.0
    897    872    873    899   5     0.00000     0.00000     1.25520  0.0
    872    873    874    875   5     4.74884    -0.63178     1.67360  0.0
    872    873    874    900   5     0.00000     0.00000     1.25520  0.0
    872    873    874    901   5     0.00000     0.00000     1.25520  0.0
    898    873    874    875   5     0.00000     0.00000     1.25520  0.0
    898    873    874    900   5     0.00000     0.00000     1.25520  0.0
    898    873    874    901   5     0.00000     0.00000     1.25520  0.0
    899    873    874    875   5     0.00000     0.00000     1.25520  0.0
    899    873    874    900   5     0.00000     0.00000     1.25520  0.0
    899    873    874    901   5     0.00000     0.00000     1.25520  0.0
    873    874    875    876   5     4.74884    -0.63178     1.67360  0.0
    873    874    875    902   5     0.00000     0.00000     1.25520  0.0
    873    874    875    903   5     0.00000     0.00000     1.25520  0.0
    900    874    875    876   5     0.00000     0.00000     1.25520  0.0
    900    874    875    902   5     0.00000     0.00000     1.25520  0.0
    900    874    875    903   5     0.00000     0.00000     1.25520  0.0
    901    874    875    876   5     0.00000     0.00000     1.25520  0.0
    901    874    875    902   5     0.00000     0.00000     1.25520  0.0
    901    874    875    903   5     0.00000     0.00000     1.25520  0.0
    874    875    876    877   5     5.25092    -2.58990     2.28446  0.0
    874    875    876    904   5     0.00000     0.00000     1.25520  0.0
    874    875    876    905   5     0.00000     0.00000     1.25520  0.0
    902    875    876    877   5     0.00000     0.00000     1.95811  0.0
    902    875    876    904   5     0.00000     0.00000     1.25520  0.0
    902    875    876    905   5     0.00000     0.00000     1.25520  0.0
    903    875    876    877   5     0.00000     0.00000     1.95811  0.0
    903    875    876    904   5     0.00000     0.00000     1.25520  0.0
    903    875    876    905   5     0.00000     0.00000     1.25520  0.0
    875    876    877    878   5    -2.16731    -3.93296     0.98324  0.0
    904    876    877    878   5     0.00000     0.00000     0.67362  0.0
    905    876    877    878   5     0.00000     0.00000     0.67362  0.0
    876    877    878    879   5     0.00000    25.10400     0.00000  0.0
    876    877    878    880   5    13.65239    24.43456     0.00000  0.0
    877    878    880    881   5     0.00000     0.00000     3.07524  0.0
    877    878    880    906   5     0.00000     0.00000     0.00000  0.0
    877    878    880    907   5     0.00000     0.00000     0.00000  0.0
    879    878    880    881   5     0.00000     2.52295     0.00000  0.0
    879    878    880    906   5     0.00000     0.00000     0.00000  0.0
    879    878    880    907   5     0.00000     0.00000     0.00000  0.0
    878    880    881    882   5    -8.00818    -1.52298     2.46438  0.0
    878    880    881    908   5     0.00000     0.00000    -0.94140  0.0
    878    880    881    909   5     0.00000     0.00000    -0.94140  0.0
    906    880    881    882   5     0.00000     0.00000     1.25520  0.0
    906    880    881    908   5     0.00000     0.00000     1.25520  0.0
    906    880    881    909   5     0.00000     0.00000     1.25520  0.0
    907    880    881    882   5     0.00000     0.00000     1.25520  0.0
    907    880    881    908   5     0.00000     0.00000     1.25520  0.0
    907    880    881    909   5     0.00000     0.00000     1.25520  0.0
    880    881    882    883   5     4.74884    -0.63178     1.67360  0.0
    880    881    882    910   5     0.00000     0.00000     1.25520  0.0
    880    881    882    911   5     0.00000     0.00000     1.25520  0.0
    908    881    882    883   5     0.00000     0.00000     1.25520  0.0
    908    881    882    910   5     0.00000     0.00000     1.25520  0.0
    908    881    882    911   5     0.00000     0.00000     1.25520  0.0
    909    881    882    883   5     0.00000     0.00000     1.25520  0.0
    909    881    882    910   5     0.00000     0.00000     1.25520  0.0
    909    881    882    911   5     0.00000     0.00000     1.25520  0.0
    881    882    883    884   5    -8.00818    -1.52298     2.46438  0.0
    881    882    883    912   5     0.00000     0.00000     1.25520  0.0
    881    882    883    913   5     0.00000     0.00000     1.25520  0.0
    910    882    883    884   5     0.00000     0.00000    -0.94140  0.0
    910    882    883    912   5     0.00000     0.00000     1.25520  0.0
    910    882    883    913   5     0.00000     0.00000     1.25520  0.0
    911    882    883    884   5     0.00000     0.00000    -0.94140  0.0
    911    882    883    912   5     0.00000     0.00000     1.25520  0.0
    911    882    883    913   5     0.00000     0.00000     1.25520  0.0
    882    883    884    885   5     0.00000     2.52295     0.00000  0.0
    882    883    884    914   5     0.00000     0.00000     3.07524  0.0
    912    883    884    885   5     0.00000     0.00000     0.00000  0.0
    912    883    884    914   5     0.00000     0.00000     0.00000  0.0
    913    883    884    885   5     0.00000     0.00000     0.00000  0.0
    913    883    884    914   5     0.00000     0.00000     0.00000  0.0
    883    884    914    915   5    13.65239    24.43456     0.00000  0.0
    885    884    914    915   5     0.00000    25.10400     0.00000  0.0
    884    914    915    916   5    -2.16731    -3.93296     0.98324  0.0
    884    914    915    934   5     0.00000     0.00000     0.67362  0.0
    884    914    915    935   5     0.00000     0.00000     0.67362  0.0
    914    915    916    917   5     5.25092    -2.58990     2.28446  0.0
    914    915    916    936   5     0.00000     0.00000     1.95811  0.0
    914    915    916    937   5     0.00000     0.00000     1.95811  0.0
    934    915    916    917   5     0.00000     0.00000     1.25520  0.0
    934    915    916    936   5     0.00000     0.00000     1.25520  0.0
    934    915    916    937   5     0.00000     0.00000     1.25520  0.0
    935    915    916    917   5     0.00000     0.00000     1.25520  0.0
    935    915    916    936   5     0.00000     0.00000     1.25520  0.0
    935    915    916    937   5     0.00000     0.00000     1.25520  0.0
    915    916    917    918   5     4.74884    -0.63178     1.67360  0.0
    915    916    917    938   5     0.00000     0.00000     1.25520  0.0
    915    916    917    939   5     0.00000     0.00000     1.25520  0.0
    936    916    917    918   5     0.00000     0.00000     1.25520  0.0
    936    916    917    938   5     0.00000     0.00000     1.25520  0.0
    936    916    917    939   5     0.00000     0.00000     1.25520  0.0
    937    916    917    918   5     0.00000     0.00000     1.25520  0.0
    937    916    917    938   5     0.00000     0.00000     1.25520  0.0
    937    916    917    939   5     0.00000     0.00000     1.25520  0.0
    916    917    918    919   5     4.74884    -0.63178     1.67360  0.0
    916    917    918    940   5     0.00000     0.00000     1.25520  0.0
    916    917    918    941   5     0.00000     0.00000     1.25520  0.0
    938    917    918    919   5     0.00000     0.00000     1.25520  0.0
    938    917    918    940   5     0.00000     0.00000     1.25520  0.0
    938    917    918    941   5     0.00000     0.00000     1.25520  0.0
    939    917    918    919   5     0.00000     0.00000     1.25520  0.0
    939    917    918    940   5     0.00000     0.00000     1.25520  0.0
    939    917    918    941   5     0.00000     0.00000     1.25520  0.0
    917    918    919    920   5     4.74884    -0.63178     1.67360  0.0
    917    918    919    942   5     0.00000     0.00000     1.25520  0.0
    917    918    919    943   5     0.00000     0.00000     1.25520  0.0
    940    918    919    920   5     0.00000     0.00000     1.25520  0.0
    940    918    919    942   5     0.00000     0.00000     1.25520  0.0
    940    918    919    943   5     0.00000     0.00000     1.25520  0.0
    941    918    919    920   5     0.00000     0.00000     1.25520  0.0
    941    918    919    942   5     0.00000     0.00000     1.25520  0.0
    941    918    919    943   5     0.00000     0.00000     1.25520  0.0
    918    919    920    921   5     4.74884    -0.63178     1.67360  0.0
    918    919    920    944   5     0.00000     0.00000     1.25520  0.0
    918    919    920    945   5     0.00000     0.00000     1.25520  0.0
    942    919    920    921   5     0.00000     0.00000     1.25520  0.0
    942    919    920    944   5     0.00000     0.00000     1.25520  0.0
    942    919    920    945   5     0.00000     0.00000     1.25520  0.0
    943    919    920    921   5     0.00000     0.00000     1.25520  0.0
    943    919    920    944   5     0.00000     0.00000     1.25520  0.0
    943    919    920    945   5     0.00000     0.00000     1.25520  0.0
    919    920    921    922   5     4.74884    -0.63178     1.67360  0.0
    919    920    921    946   5     0.00000     0.00000     1.25520  0.0
    919    920    921    947   5     0.00000     0.00000     1.25520  0.0
    944    920    921    922   5     0.00000     0.00000     1.25520  0.0
    944    920    921    946   5     0.00000     0.00000     1.25520  0.0
    944    920    921    947   5     0.00000     0.00000     1.25520  0.0
    945    920    921    922   5     0.00000     0.00000     1.25520  0.0
    945    920    921    946   5     0.00000     0.00000     1.25520  0.0
    945    920    921    947   5     0.00000     0.00000     1.25520  0.0
    920    921    922    923   5     4.74884    -0.63178     1.67360  0.0
    920    921    922    948   5     0.00000     0.00000     1.25520  0.0
    920    921    922    949   5     0.00000     0.00000     1.25520  0.0
    946    921    922    923   5     0.00000     0.00000     1.25520  0.0
    946    921    922    948   5     0.00000     0.00000     1.25520  0.0
    946    921    922    949   5     0.00000     0.00000     1.25520  0.0
    947    921    922    923   5     0.00000     0.00000     1.25520  0.0
    947    921    922    948   5     0.00000     0.00000     1.25520  0.0
    947    921    922    949   5     0.00000     0.00000     1.25520  0.0
    921    922    923    924   5     4.74884    -0.63178     1.67360  0.0
    921    922    923    950   5     0.00000     0.00000     1.25520  0.0
    921    922    923    951   5     0.00000     0.00000     1.25520  0.0
    948    922    923    924   5     0.00000     0.00000     1.25520  0.0
    948    922    923    950   5     0.00000     0.00000     1.25520  0.0
    948    922    923    951   5     0.00000     0.00000     1.25520  0.0
    949    922    923    924   5     0.00000     0.00000     1.25520  0.0
    949    922    923    950   5     0.00000     0.00000     1.25520  0.0
    949    922    923    951   5     0.00000     0.00000     1.25520  0.0
    922    923    924    925   5     5.25092    -2.58990     2.28446  0.0
    922    923    924    952   5     0.00000     0.00000     1.25520  0.0
    922    923    924    953   5     0.00000     0.00000     1.25520  0.0
    950    923    924    925   5     0.00000     0.00000     1.95811  0.0
    950    923    924    952   5     0.00000     0.00000     1.25520  0.0
    950    923    924    953   5     0.00000     0.00000     1.25520  0.0
    951    923    924    925   5     0.00000     0.00000     1.95811  0.0
    951    923    924    952   5     0.00000     0.00000     1.25520  0.0
    951    923    924    953   5     0.00000     0.00000     1.25520  0.0
    923    924    925    926   5    -2.16731    -3.93296     0.98324  0.0
    952    924    925    926   5     0.00000     0.00000     0.67362  0.0
    953    924    925    926   5     0.00000     0.00000     0.67362  0.0
    924    925    926    927   5     0.00000    25.10400     0.00000  0.0
    924    925    926    928   5    13.65239    24.43456     0.00000  0.0
    925    926    928    929   5     0.00000     0.00000     3.07524  0.0
    925    926    928    954   5     0.00000     0.00000     0.00000  0.0
    925    926    928    955   5     0.00000     0.00000     0.00000  0.0
    927    926    928    929   5     0.00000     2.52295     0.00000  0.0
    927    926    928    954   5     0.00000     0.00000     0.00000  0.0
    927    926    928    955   5     0.00000     0.00000     0.00000  0.0
    926    928    929    930   5    -8.00818    -1.52298     2.46438  0.0
    926    928    929    956   5     0.00000     0.00000    -0.94140  0.0
    926    928    929    957   5     0.00000     0.00000    -0.94140  0.0
    954    928    929    930   5     0.00000     0.00000     1.25520  0.0
    954    928    929    956   5     0.00000     0.00000     1.25520  0.0
    954    928    929    957   5     0.00000     0.00000     1.25520  0.0
    955    928    929    930   5     0.00000     0.00000     1.25520  0.0
    955    928    929    956   5     0.00000     0.00000     1.25520  0.0
    955    928    929    957   5     0.00000     0.00000     1.25520  0.0
    928    929    930    931   5     4.74884    -0.63178     1.67360  0.0
    928    929    930    958   5     0.00000     0.00000     1.25520  0.0
    928    929    930    959   5     0.00000     0.00000     1.25520  0.0
    956    929    930    931   5     0.00000     0.00000     1.25520  0.0
    956    929    930    958   5     0.00000     0.00000     1.25520  0.0
    956    929    930    959   5     0.00000     0.00000     1.25520  0.0
    957    929    930    931   5     0.00000     0.00000     1.25520  0.0
    957    929    930    958   5     0.00000     0.00000     1.25520  0.0
    957    929    930    959   5     0.00000     0.00000     1.25520  0.0
    929    930    931    932   5    -8.00818    -1.52298     2.46438  0.0
    929    930    931    960   5     0.00000     0.00000     1.25520  0.0
    929    930    931    961   5     0.00000     0.00000     1.25520  0.0
    958    930    931    932   5     0.00000     0.00000    -0.94140  0.0
    958    930    931    960   5     0.00000     0.00000     1.25520  0.0
    958    930    931    961   5     0.00000     0.00000     1.25520  0.0
    959    930    931    932   5     0.00000     0.00000    -0.94140  0.0
    959    930    931    960   5     0.00000     0.00000     1.25520  0.0
    959    930    931    961   5     0.00000     0.00000     1.25520  0.0
    930    931    932    933   5     0.00000     2.52295     0.00000  0.0
    930    931    932    962   5     6.23834    -0.04184     0.00000  0.0
    960    931    932    933   5     0.00000     0.00000     0.00000  0.0
    960    931    932    962   5     0.00000     0.00000     0.00000  0.0
    961    931    932    933   5     0.00000     0.00000     0.00000  0.0
    961    931    932    962   5     0.00000     0.00000     0.00000  0.0

[ dihedrals ]
; Improper dihedrals
; h   i   j   k   funct
     12     14     13     15   5     0.00000    87.86400     0.00000  0.0
     18     20     19     50   5     0.00000    87.86400     0.00000  0.0
     61     63     62     64   5     0.00000    87.86400     0.00000  0.0
     67     69     68     98   5     0.00000    87.86400     0.00000  0.0
    109    111    110    112   5     0.00000    87.86400     0.00000  0.0
    115    117    116    146   5     0.00000    87.86400     0.00000  0.0
    157    159    158    160   5     0.00000    87.86400     0.00000  0.0
    163    165    164    194   5     0.00000    87.86400     0.00000  0.0
    205    207    206    208   5     0.00000    87.86400     0.00000  0.0
    211    213    212    242   5     0.00000    87.86400     0.00000  0.0
    253    255    254    256   5     0.00000    87.86400     0.00000  0.0
    259    261    260    290   5     0.00000    87.86400     0.00000  0.0
    301    303    302    304   5     0.00000    87.86400     0.00000  0.0
    307    309    308    338   5     0.00000    87.86400     0.00000  0.0
    349    351    350    352   5     0.00000    87.86400     0.00000  0.0
    355    357    356    386   5     0.00000    87.86400     0.00000  0.0
    397    399    398    400   5     0.00000    87.86400     0.00000  0.0
    403    405    404    434   5     0.00000    87.86400     0.00000  0.0
    445    447    446    448   5     0.00000    87.86400     0.00000  0.0
    451    453    452    482   5     0.00000    87.86400     0.00000  0.0
    493    495    494    496   5     0.00000    87.86400     0.00000  0.0
    499    501    500    530   5     0.00000    87.86400     0.00000  0.0
    541    543    542    544   5     0.00000    87.86400     0.00000  0.0
    547    549    548    578   5     0.00000    87.86400     0.00000  0.0
    589    591    590    592   5     0.00000    87.86400     0.00000  0.0
    595    597    596    626   5     0.00000    87.86400     0.00000  0.0
    637    639    638    640   5     0.00000    87.86400     0.00000  0.0
    643    645    644    674   5     0.00000    87.86400     0.00000  0.0
    685    687    686    688   5     0.00000    87.86400     0.00000  0.0
    691    693    692    722   5     0.00000    87.86400     0.00000  0.0
    733    735    734    736   5     0.00000    87.86400     0.00000  0.0
    739    741    740    770   5     0.00000    87.86400     0.00000  0.0
    781    783    782    784   5     0.00000    87.86400     0.00000  0.0
    787    789    788    818   5     0.00000    87.86400     0.00000  0.0
    829    831    830    832   5     0.00000    87.86400     0.00000  0.0
    835    837    836    866   5     0.00000    87.86400     0.00000  0.0
    877    879    878    880   5     0.00000    87.86400     0.00000  0.0
    883    885    884    914   5     0.00000    87.86400     0.00000  0.0
    925    927    926    928   5     0.00000    87.86400     0.00000  0.0
    931    933    932    962   5     0.00000    87.86400     0.00000  0.0
