Control file title. For DL_FIELD 4.10
49062
    1MOL     O1    1   7.753   6.097   1.052 -0.2564 -0.3951  0.7084
    1MOL     C2    2   7.645   6.064   1.137  0.3705 -0.6583 -0.2092
    1MOL     C3    3   7.572   5.957   1.065 -0.2408  0.1351 -0.1703
    1MOL     C4    4   7.468   5.886   1.154  0.2443  0.1707  0.5026
    1MOL     C5    5   7.402   5.765   1.084  0.1037  0.7736  0.7889
    1MOL     C6    6   7.307   5.687   1.173  0.3212  0.1930 -0.7414
    1MOL     C7    7   7.240   5.570   1.109 -0.5868  0.7763 -0.1378
    1MOL     C8    8   7.211   5.444   1.198 -0.4791 -0.0539  0.3020
    1MOL     C9    9   7.087   5.460   1.291 -0.5713 -0.1095 -0.3269
    1MOL    C10   10   7.051   5.339   1.379 -0.8566  0.4820 -0.4164
    1MOL    C11   11   6.958   5.364   1.495 -0.1270  0.0015 -0.1811
    1MOL    O12   12   6.971   5.487   1.563 -0.0464 -0.2501 -0.2354
    1MOL    C13   13   7.077   5.506   1.648  0.4225  0.0625 -0.3190
    1MOL    O14   14   7.162   5.420   1.677  0.0827  0.4902  0.0067
    1MOL    C15   15   7.080   5.650   1.701  0.3156  0.8018 -0.1225
    1MOL    C16   16   7.149   5.663   1.831  0.6425 -0.3393 -0.3502
    1MOL    C17   17   7.060   5.614   1.945  0.0879  0.2612  0.7413
    1MOL    C18   18   7.118   5.649   2.088 -0.2125 -0.2881  0.3767
    1MOL    C19   19   7.081   5.793   2.138  0.3489 -0.4405 -0.2291
    1MOL    O20   20   7.035   5.880   2.062  0.1910 -0.0386 -0.3369
    1MOL    H21   21   7.680   6.039   1.237  0.1246 -0.7413 -0.1444
    1MOL    H22   22   7.587   6.156   1.141 -0.8935 -1.5091  2.3502
    1MOL    H23   23   7.645   5.883   1.034 -1.1315  0.0871 -2.2113
    1MOL    H24   24   7.520   6.004   0.982 -0.2726  0.9626  0.3104
    1MOL    H25   25   7.518   5.841   1.239 -1.4305  1.5001  2.2285
    1MOL    H26   26   7.398   5.959   1.195 -0.8333 -1.3973  1.4783
    1MOL    H27   27   7.482   5.698   1.051  0.8628  0.8526  2.4484
    1MOL    H28   28   7.338   5.798   1.002  0.8751 -1.1928 -0.6639
    1MOL    H29   29   7.245   5.768   1.210 -0.8395 -0.9574 -0.1136
    1MOL    H30   30   7.364   5.647   1.257 -1.9889 -1.0227  0.3202
    1MOL    H31   31   7.292   5.536   1.020 -1.7142 -0.2904 -0.4050
    1MOL    H32   32   7.145   5.602   1.067 -0.4756  0.7871 -0.3789
    1MOL    H33   33   7.295   5.436   1.267 -1.3602 -0.7737  1.3062
    1MOL    H34   34   7.202   5.363   1.124 -0.7558 -0.2363  0.5325
    1MOL    H35   35   6.998   5.473   1.229  0.2697  0.9931 -1.3148
    1MOL    H36   36   7.085   5.550   1.352 -2.6423 -0.7152  0.5756
    1MOL    H37   37   7.012   5.263   1.311 -0.6241  0.3769 -0.4352
    1MOL    H38   38   7.135   5.291   1.430 -1.9484 -2.8818 -1.6032
    1MOL    H39   39   6.957   5.277   1.560 -0.2830  0.2230  0.1129
    1MOL    H40   40   6.858   5.369   1.450  0.8747 -0.3922 -2.5550
    1MOL    H41   41   7.119   5.716   1.624  1.6123  1.0985  0.7837
    1MOL    H42   42   6.974   5.671   1.720  0.5151  1.1811  0.5736
    1MOL    H43   43   7.169   5.769   1.846  2.2587 -0.7488  0.5214
    1MOL    H44   44   7.243   5.608   1.827  0.8215  0.0338 -1.5843
    1MOL    H45   45   7.057   5.505   1.934 -1.5159  0.4298 -0.5351
    1MOL    H46   46   6.959   5.652   1.936  0.8118  1.9766 -0.2658
    1MOL    H47   47   7.226   5.639   2.091 -0.0648  0.7629 -0.8747
    1MOL    H48   48   7.079   5.574   2.157 -1.2338  0.0243  0.1433
    1MOL    H49   49   0.073   6.108   1.092  0.9342 -0.4363 -1.6942
    1MOL    O50   50   7.104   5.804   2.266 -0.3135  0.4599 -0.5203
    1MOL    C51   51   7.069   5.930   2.335  0.1188  0.5522 -0.3264
    1MOL    C52   52   7.098   5.922   2.486 -0.0253 -0.0764 -0.8943
    1MOL    C53   53   7.247   5.933   2.507  1.0862  0.1437  0.3980
    1MOL    C54   54   7.298   5.911   2.654 -0.0901  0.3981  0.3554
    1MOL    C55   55   7.282   6.041   2.734 -0.2183 -0.5407 -0.2620
    1MOL    C56   56   7.342   6.021   2.877  0.6330 -1.0207  0.6105
    1MOL    C57   57   7.394   6.152   2.932  0.0047  0.7249 -0.0921
    1MOL    C58   58   7.359   6.174   3.084  0.4363  0.4383  0.0133
    1MOL    C59   59   7.399   6.312   3.136  0.0198 -0.4469 -0.5108
    1MOL    C60   60   7.373   6.342   3.287  0.2066  0.4875  0.2238
    1MOL    O61   61   7.234   6.326   3.315 -0.3710 -0.3307 -0.4406
    1MOL    C62   62   7.190   6.352   3.443 -0.3216  0.0743  0.3083
    1MOL    O63   63   7.257   6.376   3.547 -0.2078  0.2928 -0.2364
    1MOL    C64   64   7.044   6.320   3.463  0.0011 -0.1032  0.3147
    1MOL    C65   65   7.030   6.187   3.531  0.0619 -0.0052  0.4300
    1MOL    C66   66   7.099   6.064   3.461  0.1353 -0.3086  0.2354
    1MOL    C67   67   7.072   6.026   3.314  0.8058  0.2949 -0.3819
    1MOL    C68   68   6.924   5.991   3.290  0.0250  0.3090  0.3173
    1MOL    O69   69   6.886   5.875   3.301 -0.1109 -0.0474  0.0081
    1MOL    H70   70   7.104   6.026   2.296 -1.0403  2.1924  2.5112
    1MOL    H71   71   6.960   5.937   2.333 -0.0089 -1.3352 -2.8825
    1MOL    H72   72   7.063   5.827   2.525 -0.6391  1.1001  1.5600
    1MOL    H73   73   7.043   6.002   2.536  1.2173  0.1989  0.0628
    1MOL    H74   74   7.273   5.847   2.446  2.2864  1.4229 -0.9215
    1MOL    H75   75   7.291   6.012   2.447  1.4976  0.0622  0.5899
    1MOL    H76   76   7.403   5.881   2.650  0.0711  0.8895  0.8006
    1MOL    H77   77   7.242   5.835   2.709  0.5755  0.8375  1.6485
    1MOL    H78   78   7.176   6.064   2.747  0.2098  1.1880  0.4280
    1MOL    H79   79   7.338   6.123   2.689  0.8760 -1.7932 -1.2154
    1MOL    H80   80   7.429   5.956   2.871  1.4378  0.1548 -0.6844
    1MOL    H81   81   7.256   5.977   2.928 -0.9167 -0.3251 -1.3008
    1MOL    H82   82   7.342   6.227   2.872 -0.0996 -2.0575 -3.6418
    1MOL    H83   83   7.502   6.157   2.924  0.2326 -0.5589  1.8715
    1MOL    H84   84   7.404   6.097   3.146 -0.1324  1.1620  1.3363
    1MOL    H85   85   7.251   6.161   3.091  0.5072 -0.7915 -1.1006
    1MOL    H86   86   7.505   6.329   3.119  0.2379 -0.7683  0.5155
    1MOL    H87   87   7.346   6.392   3.084 -0.1876  0.1324  0.5636
    1MOL    H88   88   7.405   6.446   3.294  2.3194 -0.2289  1.6696
    1MOL    H89   89   7.441   6.284   3.350  0.0396  0.7591  0.6584
    1MOL    H90   90   6.997   6.403   3.515  0.0499 -0.7432  1.4075
    1MOL    H91   91   7.008   6.324   3.360  1.2496 -1.2923 -0.1777
    1MOL    H92   92   6.922   6.179   3.540  0.0715  0.9653  1.4751
    1MOL    H93   93   7.061   6.187   3.636 -0.1601  2.6394  0.5325
    1MOL    H94   94   7.067   5.981   3.524 -0.3894 -1.1486 -1.1264
    1MOL    H95   95   7.207   6.076   3.461 -0.0034  1.6438 -2.8940
    1MOL    H96   96   7.140   5.947   3.284  1.9380  0.5423  1.4823
    1MOL    H97   97   7.078   6.114   3.250 -0.0264  1.1751  0.7328
    1MOL    O98   98   6.854   6.097   3.260  0.0590  0.1519  0.2279
    1MOL    C99   99   6.712   6.078   3.237 -0.3957  0.1310  0.0125
    1MOL   C100  100   6.633   6.207   3.216 -0.1641 -0.5232 -0.1996
    1MOL   C101  101   6.639   6.304   3.338 -0.5893  0.4532 -0.1273
    1MOL   C102  102   6.574   6.444   3.298  0.0791 -0.1919  0.2942
    1MOL   C103  103   6.588   6.546   3.415 -0.0148  0.1704  0.0069
    1MOL   C104  104   6.523   6.681   3.392  0.7397  0.4111  0.0172
    1MOL   C105  105   6.572   6.795   3.487 -0.2233 -0.4288 -0.4633
    1MOL   C106  106   6.510   6.933   3.465 -0.0226  0.2566  0.8400
    1MOL   C107  107   6.592   7.011   3.370  0.2930 -0.1422 -0.0349
    1MOL   C108  108   6.559   7.166   3.366 -0.2181  0.1596 -0.4837
    1MOL   O109  109   6.643   7.231   3.273 -0.7236  0.5262 -0.3567
    1MOL   C110  110   6.620   7.357   3.239 -0.6637 -0.0747 -0.4310
    1MOL   O111  111   6.537   7.434   3.282  0.0042 -0.5270 -0.2005
    1MOL   C112  112   6.715   7.409   3.131  0.4286 -0.4694  1.0124
    1MOL   C113  113   6.828   7.501   3.184 -0.4463  0.5254 -0.0928
    1MOL   C114  114   6.921   7.554   3.080 -0.0628 -0.2405  0.9513
    1MOL   C115  115   7.033   7.641   3.145 -0.9320  0.1140 -0.4213
    1MOL   C116  116   7.159   7.643   3.058  0.1506  0.5746  0.2469
    1MOL   O117  117   7.157   7.673   2.936  0.5418  0.0099 -0.6518
    1MOL   H118  118   6.690   6.007   3.158 -0.5856 -0.4881  0.6144
    1MOL   H119  119   6.677   6.028   3.328  3.1592 -0.7000  0.9820
    1MOL   H120  120   6.532   6.183   3.184 -0.8329  0.6389  0.9871
    1MOL   H121  121   6.672   6.264   3.132  1.5483  1.2307  1.7022
    1MOL   H122  122   6.588   6.273   3.429 -0.0672 -0.1257 -0.0232
    1MOL   H123  123   6.744   6.315   3.367 -0.8942  2.2409  0.3671
    1MOL   H124  124   6.471   6.431   3.265 -0.0996  2.0098 -0.0757
    1MOL   H125  125   6.627   6.488   3.214 -1.2436  2.4745  0.7981
    1MOL   H126  126   6.692   6.574   3.428 -0.2924  0.8457  0.8831
    1MOL   H127  127   6.559   6.500   3.510  1.6232 -0.3920  0.2372
    1MOL   H128  128   6.414   6.677   3.388  0.8213 -1.1559 -1.0693
    1MOL   H129  129   6.552   6.721   3.294  0.4611 -1.5966 -0.9185
    1MOL   H130  130   6.679   6.807   3.476 -0.4965  2.6592 -0.2188
    1MOL   H131  131   6.546   6.755   3.585 -1.0954 -0.3256 -0.6416
    1MOL   H132  132   6.516   6.976   3.565 -0.3291 -0.0110  0.9722
    1MOL   H133  133   6.407   6.915   3.436  0.2794 -1.7429  0.9428
    1MOL   H134  134   6.700   7.006   3.387  0.2822 -0.3642 -0.0369
    1MOL   H135  135   6.583   6.958   3.275  0.5596  0.6500 -0.5108
    1MOL   H136  136   6.562   7.214   3.463 -3.7683  1.6594 -1.0299
    1MOL   H137  137   6.455   7.177   3.335 -0.0847  0.8258 -0.7013
    1MOL   H138  138   6.758   7.322   3.082 -1.5128  0.0166 -1.5917
    1MOL   H139  139   6.653   7.462   3.059 -0.0101 -0.9951  0.9980
    1MOL   H140  140   6.870   7.422   3.247 -0.6342  2.3602  2.4010
    1MOL   H141  141   6.790   7.578   3.250 -1.1608  1.8353 -1.9892
    1MOL   H142  142   6.864   7.614   3.010 -1.4237 -2.8678 -0.2599
    1MOL   H143  143   6.977   7.482   3.021 -1.7864 -0.1808 -0.8108
    1MOL   H144  144   7.069   7.613   3.244  0.7184  0.3530 -0.9519
    1MOL   H145  145   6.996   7.742   3.162  0.8972  0.6386  0.5078
    1MOL   O146  146   7.266   7.597   3.122 -0.0551  0.3818 -0.6759
    1MOL   C147  147   7.378   7.560   3.050 -0.5005  0.5598 -0.5051
    1MOL   C148  148   7.448   7.443   3.116 -0.5901  0.1202 -0.1331
    1MOL   C149  149   7.499   7.474   3.264 -0.0838  0.3686  0.5375
    1MOL   C150  150   7.575   7.362   3.337  0.0424  0.3802 -0.6163
    1MOL   C151  151   7.638   7.382   3.473  0.0958  0.0696 -0.1403
    1MOL   C152  152   7.685   7.242   3.536  0.1585  0.3488  0.6788
    1MOL   C153  153   7.743   7.263   3.681 -0.1670 -0.2389  0.4006
    1MOL   C154  154   0.036   7.128   3.729  0.5433  0.3138 -0.4541
    1MOL   C155  155   7.699   7.029   3.780 -0.6555 -0.2938  0.3263
    1MOL   C156  156   7.659   7.069   3.926  0.1794 -0.8100 -0.0173
    1MOL   O157  157   7.537   7.014   3.965 -0.0143  0.0373 -0.0436
    1MOL   C158  158   7.426   7.077   3.945  0.3542  0.0184 -0.1842
    1MOL   O159  159   7.419   7.184   3.880  0.3613  0.5835 -0.5148
    1MOL   C160  160   7.301   6.996   3.982  0.5062 -0.0811 -0.6363
    1MOL   C161  161   7.180   7.089   4.012  0.3257  0.1024 -0.7835
    1MOL   C162  162   7.041   7.013   4.014 -0.2850  0.6287  0.3873
    1MOL   C163  163   6.983   6.962   4.148 -0.3202 -0.3286  0.4212
    1MOL   C164  164   6.955   7.072   4.253 -0.7766  0.0252 -0.2598
    1MOL   O165  165   7.022   7.076   4.360 -0.2228 -0.3461  0.2517
    1MOL   H166  166   7.343   7.528   2.952 -0.7473 -0.2256 -0.1668
    1MOL   H167  167   7.450   7.641   3.038  2.8391 -1.9298  1.7142
    1MOL   H168  168   7.535   7.419   3.054  0.2271  0.2970  0.9392
    1MOL   H169  169   7.383   7.356   3.120  0.4271 -0.6220  0.5243
    1MOL   H170  170   7.563   7.560   3.245  0.4906 -0.3855 -1.0574
    1MOL   H171  171   7.414   7.502   3.327 -0.3979 -1.7284  1.0801
    1MOL   H172  172   7.654   7.326   3.270 -1.2145 -0.5401 -1.6205
    1MOL   H173  173   7.512   7.273   3.335 -0.3393  0.6590 -0.9250
    1MOL   H174  174   7.571   7.432   3.542 -0.6562  0.4768 -1.1693
    1MOL   H175  175   7.727   7.445   3.473 -0.2521  0.5661  0.3899
    1MOL   H176  176   7.760   7.194   3.473  1.9934  0.1300  2.9745
    1MOL   H177  177   7.591   7.187   3.544  0.3611 -0.0994  0.0085
    1MOL   H178  178   7.665   7.313   3.738 -0.8135 -0.5194 -0.2261
    1MOL   H179  179   0.062   7.333   3.682 -0.7290  0.4464 -0.1976
    1MOL   H180  180   0.119   7.137   3.799 -0.2927 -0.4801  0.6590
    1MOL   H181  181   0.100   7.085   3.652  3.4450  0.4501  1.8158
    1MOL   H182  182   7.611   7.025   3.716  0.3512 -0.2249 -1.0709
    1MOL   H183  183   7.738   6.928   3.784  0.1228 -0.0569 -1.1128
    1MOL   H184  184   7.656   7.177   3.940 -2.6802 -0.5988 -1.8214
    1MOL   H185  185   7.733   7.019   3.989 -0.7413 -1.6907  0.3888
    1MOL   H186  186   7.290   6.921   3.903 -2.5252  0.9018 -1.2325
    1MOL   H187  187   7.335   6.943   4.071  1.9620 -0.1150 -1.1981
    1MOL   H188  188   7.173   7.161   3.931  0.5870 -0.0544 -0.9472
    1MOL   H189  189   7.194   7.151   4.101  2.3165  2.6175 -2.7924
    1MOL   H190  190   7.048   6.923   3.954  0.3654 -1.0785  2.9570
    1MOL   H191  191   6.961   7.062   3.957  0.8681  1.4746 -0.5124
    1MOL   H192  192   7.044   6.883   4.193  1.9703  0.7543 -0.7346
    1MOL   H193  193   6.890   6.907   4.131  0.7287 -2.2055  0.6196
    1MOL   O194  194   6.852   7.153   4.222  0.4561  0.5785 -0.1179
    1MOL   C195  195   6.843   7.283   4.282  0.4691  0.1328  0.7552
    1MOL   C196  196   6.704   7.290   4.338 -0.7981 -0.8311  0.1392
    1MOL   C197  197   6.677   7.196   4.451  0.3487 -0.9957  0.0540
    1MOL   C198  198   6.549   7.226   4.535 -0.2312 -0.3945  0.9068
    1MOL   C199  199   6.520   7.148   4.660 -0.4277  0.0334 -0.1625
    1MOL   C200  200   6.616   7.161   4.776  0.3167  0.4027  0.1636
    1MOL   C201  201   6.582   7.081   4.905 -0.0651 -0.0811  1.0228
    1MOL   C202  202   6.690   7.108   5.014 -0.3347  0.5929  0.0944
    1MOL   C203  203   6.644   7.066   5.161 -0.4554  0.3249  0.3964
    1MOL   C204  204   6.766   7.086   5.256 -0.3674 -0.0946  0.1326
    1MOL   O205  205   6.791   7.223   5.248 -0.7440  0.7652 -0.1382
    1MOL   C206  206   6.921   7.271   5.239 -1.0428 -0.6868  0.4503
    1MOL   O207  207   7.022   7.203   5.257  0.3380  0.2707 -0.4736
    1MOL   C208  208   6.932   7.418   5.211  0.0163 -0.8262  0.3574
    1MOL   C209  209   7.013   7.441   5.076  0.4299 -0.2710  0.5499
    1MOL   C210  210   6.990   7.584   5.026  0.1671  0.1398 -0.0767
    1MOL   C211  211   6.868   7.607   4.938  0.4329 -0.4439  0.8941
    1MOL   C212  212   6.859   7.525   4.803  0.4409  0.8061 -0.8096
    1MOL   O213  213   6.756   7.479   4.776 -0.2266 -0.1061 -0.3922
    1MOL   H214  214   6.911   7.308   4.363 -0.1473  3.1271  0.4049
    1MOL   H215  215   6.849   7.360   4.205 -1.5274 -0.4895 -0.0813
    1MOL   H216  216   6.631   7.274   4.258  0.5402  3.2786 -2.0774
    1MOL   H217  217   6.688   7.392   4.373 -2.9565 -0.2148 -2.3878
    1MOL   H218  218   6.675   7.091   4.421 -0.1885 -0.7223 -0.9034
    1MOL   H219  219   6.772   7.199   4.505  0.2454  2.9131  0.1590
    1MOL   H220  220   6.470   7.197   4.465  0.5993 -0.2216 -0.1104
    1MOL   H221  221   6.543   7.331   4.562 -1.4345 -0.2255  0.0310
    1MOL   H222  222   6.506   7.043   4.633 -0.1732 -0.1126  0.2702
    1MOL   H223  223   6.429   7.185   4.707 -0.4775 -0.5002  0.1600
    1MOL   H224  224   6.623   7.264   4.810  1.5022 -0.5596  2.9980
    1MOL   H225  225   6.717   7.140   4.741 -0.0373 -1.1352  0.0060
    1MOL   H226  226   6.585   6.973   4.885 -1.4928 -0.0250  0.3984
    1MOL   H227  227   6.487   7.111   4.950 -1.0617 -1.7270  0.0970
    1MOL   H228  228   6.713   7.214   5.006 -0.7287  0.8348  2.0240
    1MOL   H229  229   6.779   7.052   4.982  0.1348  0.7171  1.1512
    1MOL   H230  230   6.556   7.125   5.183 -1.5562 -1.8401  2.0316
    1MOL   H231  231   6.615   6.961   5.169  0.8249 -0.0810 -0.0359
    1MOL   H232  232   6.853   7.028   5.228  2.0022  3.6083 -0.5378
    1MOL   H233  233   6.745   7.061   5.360  0.4186 -0.6924  0.1516
    1MOL   H234  234   6.832   7.461   5.205  1.1173  1.5977 -1.4172
    1MOL   H235  235   6.981   7.456   5.301  0.1708 -0.3858  0.0900
    1MOL   H236  236   6.963   7.376   5.005  2.7850 -0.4728 -0.9986
    1MOL   H237  237   7.115   7.408   5.095  0.6103  1.8941  3.8838
    1MOL   H238  238   7.076   7.632   4.980 -1.4734  1.7106 -1.5619
    1MOL   H239  239   6.976   7.644   5.116 -0.9496 -2.2670  1.4348
    1MOL   H240  240   6.852   7.713   4.923 -1.9617 -1.1434 -1.9289
    1MOL   H241  241   6.787   7.560   4.993  0.6884  0.2491  1.8762
    1MOL   O242  242   6.975   7.519   4.734 -0.2124 -0.1086 -0.3349
    1MOL   C243  243   6.986   7.446   4.613 -0.7428  0.2496 -0.4553
    1MOL   C244  244   7.027   7.301   4.646 -0.5978  0.1169  0.0278
    1MOL   C245  245   7.164   7.304   4.700 -0.6275  0.0370 -1.1327
    1MOL   C246  246   7.195   7.186   4.782 -0.3811 -0.9896  0.2983
    1MOL   C247  247   7.326   7.204   4.865  0.2505  1.4364 -0.1854
    1MOL   C248  248   7.452   7.155   4.792 -0.0253 -0.0426  0.0915
    1MOL   C249  249   7.586   7.219   4.839 -0.6435 -0.0392  0.2860
    1MOL   C250  250   7.711   7.159   4.785  0.2839  0.0344  0.2577
    1MOL   C251  251   0.077   7.241   4.837  0.2579  0.1624 -0.1327
    1MOL   C252  252   0.213   7.178   4.801 -0.2652 -0.8396  0.4108
    1MOL   O253  253   0.334   7.243   4.850 -0.2625 -0.7194  0.3052
    1MOL   C254  254   0.371   7.368   4.811  0.4950 -0.3591  0.0503
    1MOL   O255  255   0.312   7.446   4.738 -0.2048 -0.1509  0.2848
    1MOL   C256  256   0.488   7.424   4.900 -0.3769 -0.1722 -0.2470
    1MOL   C257  257   0.580   7.528   4.819 -0.1707  0.5409  0.6572
    1MOL   C258  258   0.707   7.566   4.895 -0.8993 -0.7411 -0.5076
    1MOL   C259  259   0.792   7.675   4.817 -0.8894 -0.6944 -0.7114
    1MOL   C260  260   0.901   7.611   4.726 -0.0051 -0.5006 -0.6006
    1MOL   O261  261   0.914   7.641   4.610  0.4826 -0.0812 -0.3574
    1MOL   H262  262   6.886   7.443   4.571 -0.0164  2.2564 -2.4037
    1MOL   H263  263   7.060   7.501   4.555 -0.5602  0.0276 -0.4346
    1MOL   H264  264   7.019   7.234   4.561  2.1158 -0.2748  0.0301
    1MOL   H265  265   6.952   7.271   4.719  0.2388 -2.2107 -0.0377
    1MOL   H266  266   7.238   7.305   4.620  1.0446 -2.0277  0.3346
    1MOL   H267  267   7.183   7.396   4.756 -1.4196 -0.5155  0.0590
    1MOL   H268  268   7.204   7.104   4.711 -1.9385  0.2121 -1.3425
    1MOL   H269  269   7.113   7.158   4.847  0.3999 -2.3970  0.6920
    1MOL   H270  270   7.318   7.145   4.956 -0.9588 -0.7217 -1.6589
    1MOL   H271  271   7.333   7.310   4.891 -1.5555  1.0642  2.0336
    1MOL   H272  272   7.443   7.177   4.685  3.2406  1.6422  0.1006
    1MOL   H273  273   7.471   7.049   4.805 -1.8201 -0.5783 -1.4265
    1MOL   H274  274   7.587   7.213   4.948 -0.5149 -2.6036  0.1788
    1MOL   H275  275   7.589   7.326   4.821  0.2811 -0.1412 -0.1932
    1MOL   H276  276   7.723   7.146   4.677  1.2357  1.8519  0.1304
    1MOL   H277  277   7.728   7.057   4.819 -1.0093  0.2701  1.6588
    1MOL   H278  278   0.077   7.343   4.797 -2.3997  0.1802 -0.1641
    1MOL   H279  279   0.080   7.256   4.945 -1.3233  0.9072 -0.1794
    1MOL   H280  280   0.222   7.174   4.692 -3.6806  0.2903  0.0268
    1MOL   H281  281   0.209   7.080   4.848  0.8634 -0.3980  1.4649
    1MOL   H282  282   0.441   7.479   4.982  1.1467  0.1065  0.4542
    1MOL   H283  283   0.556   7.352   4.946  0.2952  0.0501 -0.8931
    1MOL   H284  284   0.525   7.621   4.808  0.9497  1.1681  0.2581
    1MOL   H285  285   0.614   7.509   4.717  0.4239 -1.0630  1.1342
    1MOL   H286  286   0.770   7.477   4.904  0.5375  0.2876 -0.1544
    1MOL   H287  287   0.676   7.600   4.994 -0.7173  0.5902 -0.8988
    1MOL   H288  288   0.841   7.752   4.877  1.1519  0.3169 -3.5634
    1MOL   H289  289   0.725   7.728   4.750 -2.2804 -1.5661 -0.0447
    1MOL   O290  290   0.981   7.526   4.798  0.1147 -0.3618 -0.2813
    1MOL   C291  291   1.100   7.466   4.741  0.2322  0.1095  0.4696
    1MOL   C292  292   1.217   7.558   4.749  0.3276 -0.5442  0.4153
    1MOL   C293  293   1.347   7.478   4.729  0.5793  0.2978 -0.1238
    1MOL   C294  294   1.482   7.557   4.715 -0.5879 -0.0906 -0.0446
    1MOL   C295  295   1.609   7.484   4.681 -0.3939  0.2903 -0.5647
    1MOL   C296  296   1.627   7.356   4.746  0.0107 -0.4502  0.3144
    1MOL   C297  297   1.768   7.288   4.734  0.1206 -0.0404  0.5916
    1MOL   C298  298   1.767   7.142   4.794 -0.1604 -0.0974  0.4051
    1MOL   C299  299   1.904   7.085   4.806 -1.1448  0.4416 -0.0384
    1MOL   C300  300   1.900   6.970   4.905  0.1521 -0.0168 -0.0385
    1MOL   O301  301   2.024   6.905   4.921  0.1472 -0.6876  0.2749
    1MOL   C302  302   2.020   6.779   4.970 -0.1874  0.0054 -0.9568
    1MOL   O303  303   1.926   6.706   4.991 -0.0332 -0.2302 -0.1345
    1MOL   C304  304   2.164   6.724   4.977 -0.2164 -0.3753  0.3495
    1MOL   C305  305   2.272   6.824   5.014  0.2303  0.1355  0.0593
    1MOL   C306  306   2.405   6.758   5.052  0.1307 -0.4979  0.3849
    1MOL   C307  307   2.526   6.857   5.074  0.0528 -0.3011 -0.3491
    1MOL   C308  308   2.603   6.898   4.945  0.1637  0.5070 -0.7990
    1MOL   O309  309   2.605   7.014   4.916 -0.2651 -0.5090 -0.6587
    1MOL   H310  310   1.127   7.378   4.800  1.5125 -1.3961 -2.2702
    1MOL   H311  311   1.091   7.434   4.637  2.3792 -1.4482  0.7279
    1MOL   H312  312   1.225   7.624   4.835  1.3540  1.3718 -1.0980
    1MOL   H313  313   1.207   7.626   4.664 -1.5280 -0.2294  0.8581
    1MOL   H314  314   1.359   7.404   4.808  1.0235  0.8227  0.3126
    1MOL   H315  315   1.338   7.413   4.642  1.3516  0.4088 -0.2888
    1MOL   H316  316   1.502   7.592   4.816 -0.8680  0.3535 -0.1410
    1MOL   H317  317   1.476   7.641   4.646  1.8590 -1.9479 -2.6374
    1MOL   H318  318   1.696   7.546   4.703 -0.1967 -0.3044  0.3713
    1MOL   H319  319   1.615   7.456   4.576 -1.2524 -2.1042 -0.0118
    1MOL   H320  320   1.556   7.276   4.724  0.0217  0.3979 -2.9633
    1MOL   H321  321   1.608   7.378   4.851 -0.7286  2.2178 -0.3480
    1MOL   H322  322   1.845   7.346   4.785  0.6997  3.0973 -3.5232
    1MOL   H323  323   1.794   7.282   4.628  1.3394  1.4988  0.7778
    1MOL   H324  324   1.702   7.088   4.724  0.5863 -0.1727 -0.2320
    1MOL   H325  325   1.707   7.146   4.885  0.0208 -4.2157  0.8156
    1MOL   H326  326   1.930   7.048   4.707 -0.7893 -0.2825  0.3285
    1MOL   H327  327   1.980   7.159   4.832  0.1751 -0.7920 -0.3858
    1MOL   H328  328   1.813   6.908   4.884 -0.5272  0.2415  1.9221
    1MOL   H329  329   1.866   7.006   5.003  0.6365 -3.0308  1.2806
    1MOL   H330  330   2.164   6.639   5.046  1.6564 -0.1461  0.6510
    1MOL   H331  331   2.176   6.680   4.878  1.0293 -0.1864  0.4186
    1MOL   H332  332   2.230   6.887   5.093  1.0244 -0.6135  1.0962
    1MOL   H333  333   2.288   6.883   4.924  0.3714 -1.6261 -1.0833
    1MOL   H334  334   2.427   6.687   4.973  1.3845  1.6800 -1.2763
    1MOL   H335  335   2.376   6.714   5.148 -1.2755  2.3420  1.3242
    1MOL   H336  336   2.609   6.823   5.136 -0.2285 -1.0993 -0.4035
    1MOL   H337  337   2.487   6.951   5.115  1.4998  0.5522 -0.8990
    1MOL   O338  338   2.631   6.794   4.863 -0.0573 -0.2058 -0.4661
    1MOL   C339  339   2.695   6.807   4.737 -0.6750  0.3565  0.1513
    1MOL   C340  340   2.848   6.837   4.733 -0.3737 -0.8852  0.3873
    1MOL   C341  341   2.898   6.801   4.589  0.3431 -0.7399 -0.3934
    1MOL   C342  342   3.051   6.819   4.570  0.7786 -0.3544  0.3296
    1MOL   C343  343   3.092   6.966   4.564  1.0256 -0.6990 -0.2555
    1MOL   C344  344   3.240   6.995   4.536  0.0287 -0.0936  0.3204
    1MOL   C345  345   3.300   7.133   4.585 -0.0327  0.1944 -0.1392
    1MOL   C346  346   3.443   7.156   4.521 -0.2514  0.2090 -0.0539
    1MOL   C347  347   3.553   7.051   4.541 -0.3988  0.1000  0.1011
    1MOL   C348  348   3.684   7.086   4.481  0.2267  0.1729 -0.7956
    1MOL   O349  349   3.777   6.977   4.505  0.5523 -0.0896  0.2136
    1MOL   C350  350   3.868   6.989   4.603  0.0367  0.2912 -0.3501
    1MOL   O351  351   3.909   7.091   4.651  0.1838 -0.2180 -0.2260
    1MOL   C352  352   3.923   6.849   4.652  0.4767 -0.2922 -0.3824
    1MOL   C353  353   3.816   6.759   4.714  0.5432 -0.4373 -0.5164
    1MOL   C354  354   3.865   6.615   4.758 -0.2257 -0.3753 -0.3066
    1MOL   C355  355   3.751   6.538   4.817  0.1448 -0.2426 -0.2651
    1MOL   C356  356   3.781   6.391   4.857 -0.3406  0.7789 -0.5901
    1MOL   O357  357   3.898   6.358   4.878 -0.7286  0.2217 -0.4702
    1MOL   H358  358   2.670   6.722   4.674 -2.2852  0.6462  0.3598
    1MOL   H359  359   2.638   6.887   4.688 -0.5352  1.3978  1.6596
    1MOL   H360  360   2.888   6.772   4.811 -0.9615  0.2833  1.6853
    1MOL   H361  361   2.867   6.940   4.763 -1.4605 -0.7387  0.5952
    1MOL   H362  362   2.881   6.696   4.566  1.1282 -0.9341 -0.0958
    1MOL   H363  363   2.836   6.856   4.519  0.3690  2.9337  2.3489
    1MOL   H364  364   3.077   6.780   4.472  0.9255 -0.8184  0.5474
    1MOL   H365  365   3.103   6.759   4.645 -0.0638 -0.8277  0.5419
    1MOL   H366  366   3.069   7.023   4.654  0.6977  0.0384 -0.7957
    1MOL   H367  367   3.023   7.013   4.494  0.6633 -0.6854  0.1097
    1MOL   H368  368   3.268   6.971   4.433  1.1708 -0.3126  0.6748
    1MOL   H369  369   3.309   6.924   4.579  2.0360  0.2853 -2.1260
    1MOL   H370  370   3.300   7.139   4.694  0.1376 -3.4261  0.1155
    1MOL   H371  371   3.238   7.218   4.556 -2.5356 -0.7313  2.3416
    1MOL   H372  372   3.481   7.255   4.549 -0.9040  0.7432 -1.0451
    1MOL   H373  373   3.416   7.165   4.416 -2.6704  1.4081  0.6073
    1MOL   H374  374   3.563   7.036   4.649  0.3740  1.1294  0.1835
    1MOL   H375  375   3.516   6.958   4.498  0.6176  0.8072 -2.3876
    1MOL   H376  376   3.718   7.186   4.506 -0.7373  0.3522 -0.2097
    1MOL   H377  377   3.667   7.087   4.373 -1.8322  0.0883 -0.4728
    1MOL   H378  378   3.970   6.787   4.576 -1.5706  0.8055 -2.6120
    1MOL   H379  379   3.992   6.855   4.736  1.3849  2.5283 -1.2452
    1MOL   H380  380   3.726   6.753   4.652  1.0997  0.3276 -1.3991
    1MOL   H381  381   3.784   6.813   4.804 -1.6401  0.0230 -1.5246
    1MOL   H382  382   3.932   6.643   4.839 -0.6406  0.7254 -0.3310
    1MOL   H383  383   3.905   6.545   4.684 -1.6433 -0.0824 -1.3746
    1MOL   H384  384   3.663   6.539   4.753  0.2675  1.3696 -0.4145
    1MOL   H385  385   3.723   6.587   4.911  1.8075  0.9084 -0.3580
    1MOL   O386  386   3.672   6.312   4.888 -0.1144  0.4748 -0.8209
    1MOL   C387  387   3.691   6.199   4.965  0.3673  0.2613  0.3083
    1MOL   C388  388   3.558   6.186   5.053  0.2482  0.2975 -0.5009
    1MOL   C389  389   3.527   6.311   5.143  0.0645 -0.0352  0.0492
    1MOL   C390  390   3.437   6.266   5.262  0.7317 -0.2197  0.1442
    1MOL   C391  391   3.365   6.383   5.340  0.9397 -0.6274 -0.0040
    1MOL   C392  392   3.268   6.340   5.459  0.2362  0.0806  0.6292
    1MOL   C393  393   3.181   6.445   5.527  0.5003 -0.1577 -0.6915
    1MOL   C394  394   3.075   6.386   5.618 -0.2845  0.3466 -0.4296
    1MOL   C395  395   2.991   6.483   5.711 -0.3610  0.2119  0.3153
    1MOL   C396  396   2.851   6.439   5.757 -0.4855 -0.3541  0.1805
    1MOL   O397  397   2.809   6.545   5.831 -0.0704  0.0187 -0.1553
    1MOL   C398  398   2.732   6.517   5.940 -0.0890  0.5613  0.7422
    1MOL   O399  399   2.714   6.413   5.995  0.2048 -0.5328 -0.3008
    1MOL   C400  400   2.663   6.637   6.000 -0.0689 -0.3415  0.0845
    1MOL   C401  401   2.532   6.658   5.927 -0.2556 -0.2024 -0.2569
    1MOL   C402  402   2.472   6.794   5.963  0.1519 -1.4319 -0.3402
    1MOL   C403  403   2.322   6.799   5.927  0.1604 -0.1468  0.4377
    1MOL   C404  404   2.257   6.911   6.001 -0.3348  0.6644 -0.2865
    1MOL   O405  405   2.319   6.998   6.069  0.4715  0.2129 -0.0398
    1MOL   H406  406   3.708   6.116   4.897  1.6834 -0.1245  1.0861
    1MOL   H407  407   3.781   6.205   5.026  0.8098  3.5237 -0.5512
    1MOL   H408  408   3.575   6.109   5.129 -0.4349 -0.7376 -1.3950
    1MOL   H409  409   3.474   6.171   4.986 -0.8534  0.8434  0.7545
    1MOL   H410  410   3.621   6.361   5.167  0.6057 -0.7379 -0.6079
    1MOL   H411  411   3.481   6.378   5.071 -0.9630  1.0302  1.6434
    1MOL   H412  412   3.500   6.220   5.338  0.7549 -2.4867 -1.1983
    1MOL   H413  413   3.357   6.201   5.225 -0.8388  2.1531 -0.7504
    1MOL   H414  414   3.307   6.454   5.280 -2.0611  1.0149  4.5945
    1MOL   H415  415   3.449   6.439   5.381 -1.6410  2.5871  1.1213
    1MOL   H416  416   3.316   6.286   5.540  1.5185  0.4328  0.1253
    1MOL   H417  417   3.202   6.271   5.408  0.9551 -0.5352  0.5243
    1MOL   H418  418   3.131   6.512   5.456  1.7413  0.4811 -0.9690
    1MOL   H419  419   3.245   6.514   5.582 -1.1801  2.2051 -1.5753
    1MOL   H420  420   3.120   6.318   5.689  0.2744  1.3358  0.1688
    1MOL   H421  421   3.019   6.317   5.555  0.2371 -0.7430  0.2838
    1MOL   H422  422   3.059   6.519   5.788  0.6722 -1.6077  0.2884
    1MOL   H423  423   2.971   6.563   5.639 -2.2036  0.3778  0.9827
    1MOL   H424  424   2.860   6.343   5.808  1.7500 -0.2327  0.0549
    1MOL   H425  425   2.783   6.433   5.672  1.0510  1.0637 -1.2010
    1MOL   H426  426   2.644   6.614   6.104  0.5974  1.4175  0.6106
    1MOL   H427  427   2.727   6.725   5.996  1.4444 -1.3504  1.5077
    1MOL   H428  428   2.465   6.581   5.965 -1.9682  1.5571  0.3482
    1MOL   H429  429   2.521   6.652   5.819 -0.8210 -1.3118 -0.1411
    1MOL   H430  430   2.523   6.879   5.918 -0.6501  0.6874  2.6029
    1MOL   H431  431   2.482   6.812   6.070  0.2149  1.9986 -0.8734
    1MOL   H432  432   2.284   6.703   5.963 -1.8890  0.0920 -1.0117
    1MOL   H433  433   2.300   6.808   5.821 -0.9816 -0.0740  0.6769
    1MOL   O434  434   2.126   6.897   5.995  0.4759 -0.0010 -0.3461
    1MOL   C435  435   2.040   6.998   6.055  0.2066  0.6562 -0.6152
    1MOL   C436  436   2.035   6.972   6.210  0.0198  0.3706 -1.2076
    1MOL   C437  437   1.965   6.842   6.254  0.4999 -0.3486  0.1124
    1MOL   C438  438   1.814   6.853   6.263 -0.2183 -0.0437  0.1468
    1MOL   C439  439   1.741   6.727   6.313 -0.0053 -0.3795 -0.1603
    1MOL   C440  440   1.723   6.624   6.198  0.2990  0.0476 -0.9501
    1MOL   C441  441   1.673   6.483   6.246  0.2435 -0.1798  0.0940
    1MOL   C442  442   1.663   6.369   6.136 -1.5058 -0.0950  0.2686
    1MOL   C443  443   1.626   6.225   6.193  0.1836 -0.0648 -0.3746
    1MOL   C444  444   1.616   6.124   6.071 -0.4425  0.1997  0.3277
    1MOL   O445  445   1.567   5.997   6.105  0.0993 -0.0122  0.4963
    1MOL   C446  446   1.656   5.914   6.163 -0.4547 -0.1405  0.3770
    1MOL   O447  447   1.772   5.941   6.195  0.2585 -0.2145 -0.0269
    1MOL   C448  448   1.597   5.776   6.189  0.2153 -0.8637 -0.2870
    1MOL   C449  449   1.677   5.693   6.289 -0.1788 -0.4066 -0.2365
    1MOL   C450  450   1.600   5.570   6.331  0.3870 -1.2945 -0.3456
    1MOL   C451  451   1.692   5.465   6.393 -0.6007 -0.2216 -0.1541
    1MOL   C452  452   1.714   5.480   6.548 -0.4937 -0.3043  0.4976
    1MOL   O453  453   1.668   5.394   6.630  0.0906 -0.2216  0.7437
    1MOL   H454  454   2.087   7.094   6.034 -0.4939  1.1478  0.0683
    1MOL   H455  455   1.942   7.000   6.008 -0.0065  0.6547 -0.1710
    1MOL   H456  456   1.995   7.060   6.260 -0.4003  0.4702 -1.7208
    1MOL   H457  457   2.136   6.958   6.249 -0.5716 -0.5340  0.0467
    1MOL   H458  458   1.997   6.750   6.204 -1.6774 -0.8155 -0.4829
    1MOL   H459  459   1.997   6.829   6.357 -0.2876 -2.2166  0.1458
    1MOL   H460  460   1.772   6.886   6.168  1.4829 -1.1157 -1.0040
    1MOL   H461  461   1.788   6.935   6.330  1.5679  1.8438 -1.4201
    1MOL   H462  462   1.642   6.754   6.352  1.4307  4.4761  0.4597
    1MOL   H463  463   1.801   6.702   6.400 -0.7031 -2.7789 -0.3347
    1MOL   H464  464   1.817   6.607   6.146  0.5646 -2.7015  0.3587
    1MOL   H465  465   1.656   6.662   6.121 -0.3529 -0.2633 -0.5370
    1MOL   H466  466   1.570   6.497   6.281  0.2272 -0.8964  0.3440
    1MOL   H467  467   1.747   6.454   6.321 -1.5365 -0.0069  1.9656
    1MOL   H468  468   1.758   6.362   6.083 -1.9893 -1.0496 -0.4877
    1MOL   H469  469   1.588   6.403   6.064  0.7689  1.3299 -1.4636
    1MOL   H470  470   1.698   6.184   6.263  0.1498  2.4395  1.2132
    1MOL   H471  471   1.536   6.239   6.253 -0.6544 -2.1725 -1.1110
    1MOL   H472  472   1.709   6.110   6.015 -0.7932  2.0085 -0.7361
    1MOL   H473  473   1.544   6.175   6.008  1.7332 -0.5907 -2.9212
    1MOL   H474  474   1.493   5.784   6.220  0.6778 -2.1706  1.7292
    1MOL   H475  475   1.603   5.724   6.093  0.7226  0.1691 -0.8160
    1MOL   H476  476   1.679   5.756   6.378 -1.1401  0.0907 -0.5643
    1MOL   H477  477   1.782   5.683   6.261 -0.1771  1.2809 -0.9195
    1MOL   H478  478   1.567   5.514   6.243  1.0522  0.7925 -1.9425
    1MOL   H479  479   1.510   5.590   6.389  0.4551 -1.7771 -0.0713
    1MOL   H480  480   1.781   5.447   6.333  0.1414 -0.5887  1.0293
    1MOL   H481  481   1.638   5.370   6.392 -2.9313  1.0746 -0.2104
    1MOL   O482  482   1.774   5.598   6.582  0.5464  0.2586  0.3438
    1MOL   C483  483   1.791   5.632   6.719  0.8861  0.5607  0.3913
    1MOL   C484  484   1.823   5.782   6.743 -0.7997  0.4743  0.1104
    1MOL   C485  485   1.835   5.815   6.893 -0.4447  0.0426 -0.1644
    1MOL   C486  486   1.862   5.967   6.929  0.9293 -1.0861 -0.4049
    1MOL   C487  487   2.006   6.014   6.885  0.2554  0.2727 -0.3518
    1MOL   C488  488   2.129   5.926   6.930  0.2022 -0.5659  0.0171
    1MOL   C489  489   2.265   5.989   6.900 -0.1030  0.2735 -0.2717
    1MOL   C490  490   2.382   5.919   6.964 -1.0155  0.3374  0.3114
    1MOL   C491  491   2.454   5.807   6.877  0.5510 -0.5742  0.6389
    1MOL   C492  492   2.543   5.709   6.948  0.4119  0.2921  0.9534
    1MOL   O493  493   2.457   5.617   7.014  0.3304  0.0724 -0.1640
    1MOL   C494  494   2.440   5.486   6.986  0.2472 -0.3151  0.5157
    1MOL   O495  495   2.507   5.424   6.903 -0.8485  0.5153 -0.0617
    1MOL   C496  496   2.328   5.408   7.057  0.3039 -0.2110 -0.2742
    1MOL   C497  497   2.197   5.482   7.092  0.2433  0.3357  0.3809
    1MOL   C498  498   2.222   5.589   7.201  0.2090  0.0527  0.0504
    1MOL   C499  499   2.097   5.611   7.291  0.0254 -0.1069  0.0347
    1MOL   C500  500   2.076   5.497   7.392 -0.6168  0.5262 -0.0133
    1MOL   O501  501   2.132   5.389   7.379  0.7102  0.5770  0.3683
    1MOL   H502  502   1.706   5.597   6.776 -0.6819  0.0442 -2.1884
    1MOL   H503  503   1.873   5.571   6.758 -1.8221 -2.6326  1.2667
    1MOL   H504  504   1.754   5.856   6.703 -0.3214  1.0113  0.2778
    1MOL   H505  505   1.922   5.794   6.699 -0.0010 -0.1398  1.7033
    1MOL   H506  506   1.740   5.784   6.935  0.4589 -1.2530  0.9999
    1MOL   H507  507   1.921   5.758   6.930 -2.2189 -0.2716  3.8084
    1MOL   H508  508   1.846   5.988   7.035  0.0562  1.9410 -1.0753
    1MOL   H509  509   1.789   6.035   6.884  2.5583  0.6254 -0.5110
    1MOL   H510  510   2.031   6.113   6.923 -0.3121  0.5742 -0.7599
    1MOL   H511  511   2.004   6.011   6.776 -0.3552 -0.7693 -0.3183
    1MOL   H512  512   2.114   5.831   6.877  1.1001 -0.2001 -0.9087
    1MOL   H513  513   2.121   5.901   7.036 -3.5744 -0.3067 -0.1310
    1MOL   H514  514   2.264   6.094   6.930  1.7306  0.0913  0.4783
    1MOL   H515  515   2.280   5.983   6.792 -0.7575  2.5224 -0.5265
    1MOL   H516  516   2.346   5.874   7.056  0.2491 -0.6833  0.3080
    1MOL   H517  517   2.460   5.986   7.000 -1.5967  0.2198  1.7916
    1MOL   H518  518   2.388   5.756   6.807 -1.0465 -0.0449  1.7458
    1MOL   H519  519   2.525   5.864   6.817  1.1019  0.0507  1.8584
    1MOL   H520  520   2.620   5.755   7.010  0.4001  0.9639  0.4757
    1MOL   H521  521   2.606   5.662   6.873 -1.2818  1.4180 -1.2510
    1MOL   H522  522   2.302   5.321   6.997  0.2743 -0.9813  0.8274
    1MOL   H523  523   2.375   5.374   7.150 -2.0459 -2.3210  0.2176
    1MOL   H524  524   2.119   5.408   7.111 -0.5324  1.3693  1.3157
    1MOL   H525  525   2.158   5.530   7.003 -0.3158  1.8223  1.4158
    1MOL   H526  526   2.247   5.683   7.152  2.6239 -0.9496 -0.7069
    1MOL   H527  527   2.304   5.559   7.266  1.4209  0.5393 -1.2222
    1MOL   H528  528   2.004   5.614   7.233 -0.5096 -0.3156  0.8831
    1MOL   H529  529   2.112   5.708   7.338  0.1503 -0.5968  1.0046
    1MOL   O530  530   1.992   5.541   7.487  0.0987  0.2234  0.2610
    1MOL   C531  531   1.974   5.470   7.608  0.6654  0.0727  0.1829
    1MOL   C532  532   1.885   5.549   7.699 -0.1732 -0.2137 -0.2986
    1MOL   C533  533   1.868   5.487   0.073  0.0734 -0.4454 -0.2904
    1MOL   C534  534   1.753   5.559   0.152 -0.8953 -0.0854  0.5995
    1MOL   C535  535   1.744   5.526   0.298 -0.3964 -0.6220  0.8381
    1MOL   C536  536   1.729   5.378   0.328  0.2361  0.1833  0.2381
    1MOL   C537  537   1.719   5.345   0.479 -0.2438  0.4884 -0.0275
    1MOL   C538  538   1.694   5.193   0.501 -0.3319  0.3816  0.7582
    1MOL   C539  539   1.704   5.147   0.649 -0.3656 -0.4672  0.8946
    1MOL   C540  540   1.691   4.994   0.671  0.1117  0.3816 -0.3399
    1MOL   O541  541   1.734   4.957   0.800  0.3607  0.2201  0.0362
    1MOL   C542  542   1.726   4.836   0.854 -0.0518 -0.8255  0.3663
    1MOL   O543  543   1.693   4.735   0.799  0.2820 -0.2661  0.3864
    1MOL   C544  544   1.778   4.835   0.997  0.2749 -0.2022  0.0803
    1MOL   C545  545   1.675   4.905   1.092  0.6985 -0.1886  0.0605
    1MOL   C546  546   1.551   4.823   1.125  0.0335  0.1772  0.1017
    1MOL   C547  547   1.442   4.901   1.200 -0.9466  0.8956  0.5394
    1MOL   C548  548   1.382   5.010   1.119 -0.0921  0.3257 -0.2372
    1MOL   O549  549   1.373   5.129   1.161  0.4689  0.1279  0.0668
    1MOL   H550  550   1.918   5.379   7.584 -0.5079  0.6099  0.8475
    1MOL   H551  551   2.071   5.447   7.653  1.0714 -0.6822 -1.0409
    1MOL   H552  552   1.786   5.547   7.654 -0.0914 -1.6939 -0.4150
    1MOL   H553  553   1.919   5.652   7.707  0.6521 -0.5653  0.8229
    1MOL   H554  554   1.845   5.382   0.053  0.1554 -0.8765  1.7110
    1MOL   H555  555   1.956   5.483   0.138 -0.3887 -1.1140  0.3001
    1MOL   H556  556   1.658   5.534   0.104 -0.5129 -0.8176  0.2239
    1MOL   H557  557   1.765   5.667   0.143  2.3765 -0.4152  0.3678
    1MOL   H558  558   1.672   5.592   0.347  0.8201  0.4589  1.2113
    1MOL   H559  559   1.843   5.563   0.324 -0.0152 -0.0112 -1.4009
    1MOL   H560  560   1.821   5.331   0.295  1.7431  1.3016  2.6591
    1MOL   H561  561   1.643   5.340   0.274 -0.0520  1.7471 -0.4325
    1MOL   H562  562   1.631   5.392   0.522 -0.8968  0.3966 -1.2482
    1MOL   H563  563   1.810   5.376   0.530 -0.2168  0.1909  0.1080
    1MOL   H564  564   1.764   5.124   0.453 -2.2351 -0.8300 -0.3310
    1MOL   H565  565   1.600   5.155   0.461  0.0406 -0.5946  0.7855
    1MOL   H566  566   1.795   5.188   0.694 -0.5402  2.6016 -1.4619
    1MOL   H567  567   1.616   5.189   0.697 -1.1460 -3.2909  2.0522
    1MOL   H568  568   1.754   4.945   0.596  1.3055  2.6791 -0.8677
    1MOL   H569  569   1.590   4.964   0.644 -0.6847  3.3813 -0.8368
    1MOL   H570  570   1.795   4.732   1.028  0.2066  0.4169  2.2758
    1MOL   H571  571   1.878   4.879   0.997 -0.1281  0.7159  0.7309
    1MOL   H572  572   1.651   4.996   1.038 -0.0277 -0.3710  0.0673
    1MOL   H573  573   1.735   4.939   1.177  2.6285 -0.7739 -1.0267
    1MOL   H574  574   1.585   4.745   1.193  0.8397  0.9209  0.5647
    1MOL   H575  575   1.508   4.780   1.035  3.2108  0.0006 -1.4109
    1MOL   H576  576   1.488   4.939   1.292  0.0722  1.2711 -0.1237
    1MOL   H577  577   1.364   4.832   1.233  0.1253 -0.3779  0.4747
    1MOL   O578  578   1.327   4.967   1.005  0.2807  0.5212  0.2694
    1MOL   C579  579   1.260   5.059   0.921  0.0237  0.3370  0.4285
    1MOL   C580  580   1.345   5.131   0.815 -0.4078  0.0484 -0.1346
    1MOL   C581  581   1.267   5.183   0.697  0.0064  0.0758 -1.2357
    1MOL   C582  582   1.332   5.266   0.582  0.2001 -0.1282  0.9895
    1MOL   C583  583   1.228   5.314   0.485  0.5003 -0.0927  0.6313
    1MOL   C584  584   1.309   5.388   0.383  0.1858  0.2331 -0.0351
    1MOL   C585  585   1.227   5.457   0.279  0.4669  0.0734 -0.8884
    1MOL   C586  586   1.309   5.492   0.153  0.3436 -0.5940  0.3697
    1MOL   C587  587   1.335   5.362   0.064  0.5288  0.5027 -0.4301
    1MOL   C588  588   1.409   5.383   7.692 -0.0911  0.6357 -0.3616
    1MOL   O589  589   1.423   5.258   7.611 -0.6721 -0.4125  0.4817
    1MOL   C590  590   1.548   5.227   7.566 -0.1945 -0.2521  0.1598
    1MOL   O591  591   1.655   5.273   7.606 -0.1790 -0.1584 -0.1724
    1MOL   C592  592   1.553   5.118   7.464 -0.0985 -0.3529 -0.2715
    1MOL   C593  593   1.436   5.118   7.367 -0.3692  0.3990 -0.5812
    1MOL   C594  594   1.426   4.997   7.270  0.3333  0.5703  0.2023
    1MOL   C595  595   1.303   4.989   7.179 -0.3989 -0.3347 -0.3831
    1MOL   C596  596   1.173   4.955   7.254 -0.0530 -0.0906  0.4822
    1MOL   O597  597   1.175   4.891   7.359  0.0001 -0.1449  0.2227
    1MOL   H598  598   1.187   4.997   0.869 -0.1839  0.6508  0.3401
    1MOL   H599  599   1.196   5.127   0.978 -1.5383 -1.9863  1.5457
    1MOL   H600  600   1.430   5.070   0.784  2.8486  4.9282 -1.4845
    1MOL   H601  601   1.407   5.211   0.857  0.7284 -1.0286  0.2734
    1MOL   H602  602   1.220   5.097   0.650 -0.1285 -1.1945  1.1169
    1MOL   H603  603   1.188   5.247   0.737  0.8442  0.8281 -0.7691
    1MOL   H604  604   1.408   5.210   0.528  1.2153 -0.4827  2.7562
    1MOL   H605  605   1.378   5.347   0.637 -1.9286  0.1515  2.4418
    1MOL   H606  606   1.159   5.383   0.533 -2.2918 -1.7996 -0.7624
    1MOL   H607  607   1.170   5.233   0.440  0.3297 -0.6554  1.8560
    1MOL   H608  608   1.366   5.316   0.325 -0.8518 -0.4131 -0.2729
    1MOL   H609  609   1.374   5.463   0.428 -1.9468  2.3669 -0.3695
    1MOL   H610  610   1.184   5.544   0.330 -0.9613 -0.2518 -1.5259
    1MOL   H611  611   1.144   5.392   0.253 -0.9943  2.5850 -2.8010
    1MOL   H612  612   1.402   5.541   0.181 -0.9067  2.5731 -0.7095
    1MOL   H613  613   1.247   5.567   0.103 -0.9957 -1.0757  1.2496
    1MOL   H614  614   1.410   5.309   0.122 -1.3714 -2.6088 -0.6872
    1MOL   H615  615   1.248   5.296   0.054  0.8968 -0.5069  2.7296
    1MOL   H616  616   1.496   5.447   7.704 -0.3299  0.6295  1.5243
    1MOL   H617  617   1.353   5.449   7.625  1.5999  1.9351 -0.5181
    1MOL   H618  618   1.642   5.123   7.402  0.0750 -1.8948 -0.1684
    1MOL   H619  619   1.564   5.018   7.508  2.7790 -0.3496 -0.9165
    1MOL   H620  620   1.444   5.202   7.298 -1.1773 -0.4850 -1.7734
    1MOL   H621  621   1.337   5.115   7.413  0.2046 -0.9421  0.5825
    1MOL   H622  622   1.437   4.911   7.336  0.1254 -1.6213 -2.5568
    1MOL   H623  623   1.515   5.007   7.209 -0.3666  0.1803 -0.9044
    1MOL   H624  624   1.329   4.926   7.093 -0.4831  1.5562 -1.8370
    1MOL   H625  625   1.294   5.090   7.139  1.3687  0.0246  0.0954
    1MOL   O626  626   1.067   5.010   7.191  0.1491 -0.0917 -0.3661
    1MOL   C627  627   0.942   4.961   7.229 -0.5540  0.2345 -0.2256
    1MOL   C628  628   0.835   5.063   7.201 -0.6339 -0.6878  0.0363
    1MOL   C629  629   0.700   5.022   7.230  0.3364  0.9274 -0.2785
    1MOL   C630  630   0.597   5.133   7.208 -0.0021  0.3673  0.0567
    1MOL   C631  631   0.450   5.082   7.225  0.7208 -0.1704 -0.2401
    1MOL   C632  632   0.409   4.980   7.125 -0.2703  1.0177  0.9633
    1MOL   C633  633   0.258   4.944   7.131  1.0017 -0.0792 -0.6190
    1MOL   C634  634   0.217   4.880   6.995 -0.7737  0.2070 -0.4428
    1MOL   C635  635   0.073   4.848   6.990  0.0608 -1.1193  0.2390
    1MOL   C636  636   0.032   4.784   6.856  0.4183 -0.6077  0.1531
    1MOL   O637  637   0.102   4.659   6.832  0.5144 -0.0521 -0.1486
    1MOL   C638  638   0.116   4.631   6.701 -0.1883 -0.0893  0.0909
    1MOL   O639  639   0.069   4.686   6.603  0.6942 -0.1696  0.0573
    1MOL   C640  640   0.209   4.512   6.696  0.2498  0.1651  0.3283
    1MOL   C641  641   0.349   4.531   6.750 -0.0774  0.5597 -0.0935
    1MOL   C642  642   0.446   4.611   6.664 -0.2476 -0.1698 -0.0750
    1MOL   C643  643   0.590   4.618   6.711  0.4142 -0.1670 -0.5411
    1MOL   C644  644   0.606   4.711   6.828  0.2513 -0.5186 -0.2288
    1MOL   O645  645   0.539   4.814   6.838 -0.4026  0.3669 -0.1030
    1MOL   H646  646   0.923   4.866   7.179 -1.0100  0.6412 -0.8360
    1MOL   H647  647   0.928   4.945   7.337 -3.7940  0.5306 -0.5333
    1MOL   H648  648   0.845   5.082   7.094  1.0689 -1.4602  0.0440
    1MOL   H649  649   0.867   5.153   7.253 -3.2485 -0.7316  1.8074
    1MOL   H650  650   0.670   4.948   7.155 -2.7405  1.7076  0.0916
    1MOL   H651  651   0.689   4.964   7.321  0.7264  1.0806 -0.1378
    1MOL   H652  652   0.588   5.164   7.104 -0.6208  1.9027  0.5515
    1MOL   H653  653   0.616   5.220   7.270  0.9712 -0.1683  0.5154
    1MOL   H654  654   0.384   5.170   7.226  2.0709  0.8474  0.4035
    1MOL   H655  655   0.443   5.046   7.327  2.0361 -0.8552 -0.3863
    1MOL   H656  656   0.451   4.884   7.155 -1.5929  0.2816  0.5196
    1MOL   H657  657   0.437   5.005   7.023  2.6543  0.0629  1.4672
    1MOL   H658  658   0.201   5.036   7.144  4.1568  2.5576 -4.2280
    1MOL   H659  659   0.226   4.878   7.212  1.6292  0.8873  0.4232
    1MOL   H660  660   0.277   4.792   6.972 -2.8902 -1.8207  1.5252
    1MOL   H661  661   0.229   4.956   6.917 -0.7890  0.3006 -0.3522
    1MOL   H662  662   0.055   4.777   7.071 -0.4324 -0.9978  0.2345
    1MOL   H663  663   0.016   4.938   7.012  0.4875 -0.9899  0.8063
    1MOL   H664  664   0.061   4.852   6.776 -0.6018 -1.5585 -1.0446
    1MOL   H665  665   7.689   4.767   6.844  0.5129 -0.4176 -1.0861
    1MOL   H666  666   0.165   4.431   6.755  1.2777 -0.2292  0.5850
    1MOL   H667  667   0.207   4.472   6.594  0.6379  0.0781  0.3523
    1MOL   H668  668   0.380   4.429   6.773  2.0718  0.9046 -1.3214
    1MOL   H669  669   0.338   4.595   6.838 -0.0746 -1.4473  1.3885
    1MOL   H670  670   0.401   4.709   6.645  0.5239  0.2227  0.1186
    1MOL   H671  671   0.450   4.582   6.559 -0.2152 -0.0519 -0.1073
    1MOL   H672  672   0.651   4.647   6.625  1.1334  0.5048  0.1996
    1MOL   H673  673   0.621   4.520   6.747 -0.0352 -0.3784 -0.7248
    1MOL   O674  674   0.703   4.660   6.914 -0.4754  0.6573 -0.0406
    1MOL   C675  675   0.731   4.722   7.037 -0.9130  0.2632  0.5933
    1MOL   C676  676   0.823   4.632   7.113  0.7873 -0.4201  0.2765
    1MOL   C677  677   0.955   4.617   7.033 -0.5921 -0.2574  0.1311
    1MOL   C678  678   1.071   4.572   7.122  0.6613  0.4357  0.0453
    1MOL   C679  679   1.210   4.589   7.058  0.3237  0.1164 -0.3271
    1MOL   C680  680   1.320   4.533   7.147  0.7722  0.7531 -0.6799
    1MOL   C681  681   1.458   4.552   7.095  0.2880 -0.4684 -0.1150
    1MOL   C682  682   1.523   4.674   7.148  0.3430  0.3180 -0.4548
    1MOL   C683  683   1.676   4.678   7.117  0.2248 -0.1284  0.4968
    1MOL   C684  684   1.744   4.791   7.188 -0.0965 -0.5063  1.1190
    1MOL   O685  685   1.748   4.786   7.325  0.4137  0.2699  0.2327
    1MOL   C686  686   1.844   4.710   7.380 -0.3593 -0.0917 -0.1440
    1MOL   O687  687   1.917   4.630   7.329  0.0413  0.0241 -0.2364
    1MOL   C688  688   1.867   4.757   7.525  0.5690  0.0260 -0.4319
    1MOL   C689  689   1.882   4.910   7.548 -0.1700 -0.7245  0.3270
    1MOL   C690  690   1.977   4.981   7.458 -0.0024  1.0854  0.4345
    1MOL   C691  691   2.042   5.113   7.498 -0.2495 -0.3769 -0.5336
    1MOL   C692  692   2.100   5.116   7.643 -0.2434 -0.1010 -0.3640
    1MOL   O693  693   2.102   5.221   7.708 -0.7814 -0.3473  0.0354
    1MOL   H694  694   0.764   4.823   7.013 -1.7067  0.4264  0.1817
    1MOL   H695  695   0.639   4.721   7.095 -1.1260  0.7016  0.2713
    1MOL   H696  696   0.771   4.539   7.135  0.0016  0.7444  3.5832
    1MOL   H697  697   0.834   4.683   7.208 -1.0186  0.0037  0.2905
    1MOL   H698  698   0.942   4.551   6.947 -0.1438 -0.2545  0.0591
    1MOL   H699  699   0.984   4.713   6.991  3.7723 -2.0137 -1.1796
    1MOL   H700  700   1.051   4.469   7.151  1.4030  0.2209 -0.1892
    1MOL   H701  701   1.061   4.624   7.218  0.8689 -0.4929  0.5720
    1MOL   H702  702   1.223   4.697   7.047 -0.1451  0.5075  2.5614
    1MOL   H703  703   1.218   4.539   6.961 -1.5806 -0.5693 -0.1363
    1MOL   H704  704   1.304   4.426   7.160  1.2767  0.6448 -0.9601
    1MOL   H705  705   1.315   4.581   7.245  1.0163 -0.5043 -0.0413
    1MOL   H706  706   1.460   4.544   6.986 -0.8607  0.7815 -0.2368
    1MOL   H707  707   1.518   4.462   7.110  0.3941 -0.0931  1.8571
    1MOL   H708  708   1.512   4.675   7.257 -0.8300  3.2099 -0.5321
    1MOL   H709  709   1.466   4.763   7.119  0.2976  0.9089  1.3922
    1MOL   H710  710   1.728   4.586   7.141  1.5626  0.4151 -0.3144
    1MOL   H711  711   1.683   4.685   7.009  0.1063 -2.3954  0.3163
    1MOL   H712  712   1.694   4.887   7.178  0.9367 -0.0262  0.5628
    1MOL   H713  713   1.845   4.798   7.151 -0.6458 -1.0198 -0.5085
    1MOL   H714  714   1.790   4.715   7.588  1.0608 -0.5174 -0.1925
    1MOL   H715  715   1.966   4.720   7.551  0.4884  0.0155 -0.1463
    1MOL   H716  716   1.903   4.918   7.654  1.2934 -0.9232  0.0575
    1MOL   H717  717   1.783   4.954   7.532 -0.4564 -1.0495  1.1906
    1MOL   H718  718   1.932   4.997   7.360 -0.4005 -4.0719 -0.3761
    1MOL   H719  719   2.058   4.912   7.432 -2.0410 -0.7050 -1.4042
    1MOL   H720  720   1.969   5.193   7.491  0.7205  0.2824 -4.0898
    1MOL   H721  721   2.126   5.140   7.435 -0.3591  0.7062 -0.2223
    1MOL   O722  722   2.151   4.998   7.683 -0.2676 -0.5351 -0.3797
    1MOL   C723  723   2.220   4.990   0.039  0.3049 -0.3105 -0.2736
    1MOL   C724  724   2.261   4.841   0.070 -0.9930  0.6195  0.3588
    1MOL   C725  725   2.356   4.815   0.188  0.0795 -0.3935 -0.4250
    1MOL   C726  726   2.483   4.901   0.179  0.4691 -0.2316 -0.0571
    1MOL   C727  727   2.563   4.873   0.043  0.8253  0.7163 -0.8112
    1MOL   C728  728   2.702   4.939   0.035  0.4475  0.0069 -0.4744
    1MOL   C729  729   2.792   4.866   7.703 -0.2072 -0.5459 -0.1096
    1MOL   C730  730   2.918   4.949   7.649 -0.1018  0.1067 -0.2761
    1MOL   C731  731   2.882   5.034   7.524 -0.1550 -0.1139  0.2001
    1MOL   C732  732   2.834   4.946   7.406 -0.4240 -0.1309 -0.2939
    1MOL   O733  733   2.844   5.020   7.290 -0.1097 -0.6685 -0.2317
    1MOL   C734  734   2.793   4.966   7.174 -0.1165  0.0464 -0.8435
    1MOL   O735  735   2.754   4.851   7.165  0.2441  0.7416  0.6786
    1MOL   C736  736   2.779   5.068   7.070  0.2345 -0.0541 -0.0752
    1MOL   C737  737   2.659   5.179   7.093  0.3488  0.4413 -0.2578
    1MOL   C738  738   2.681   5.295   7.189 -0.6358  0.5675  0.5434
    1MOL   C739  739   2.818   5.365   7.140  0.7685  0.9174 -0.9812
    1MOL   C740  740   2.847   5.469   7.246 -0.0839  0.2902 -0.3379
    1MOL   O741  741   2.862   5.438   7.361  0.2001  0.7340  0.8854
    1MOL   H742  742   2.313   5.047   0.036  0.5085 -0.5261  1.4103
    1MOL   H743  743   2.154   5.028   0.117  0.6602  1.6267 -0.8925
    1MOL   H744  744   2.298   4.811   7.736 -1.1465  2.9258 -0.4172
    1MOL   H745  745   2.175   4.774   0.081  0.9824 -2.0161  0.1880
    1MOL   H746  746   2.310   4.825   0.286 -0.7813 -1.7143 -0.6710
    1MOL   H747  747   2.381   4.709   0.175 -0.6513 -0.4039 -1.8754
    1MOL   H748  748   2.550   4.894   0.265 -1.2931 -1.1810  1.2837
    1MOL   H749  749   2.457   5.007   0.172 -0.4141 -0.4952 -0.7527
    1MOL   H750  750   2.499   4.896   7.723  0.4641  0.8690 -0.5009
    1MOL   H751  751   2.579   4.766   0.042 -0.1378  0.5513  0.0686
    1MOL   H752  752   2.754   4.936   0.130  1.4797 -1.0715 -1.0605
    1MOL   H753  753   2.688   5.045   0.014  1.0799  0.2780  0.4555
    1MOL   H754  754   2.737   4.827   7.618  0.5750 -2.8951  0.4403
    1MOL   H755  755   2.830   4.770   7.737 -1.5623 -0.5019  1.6331
    1MOL   H756  756   2.997   4.880   7.617  0.2382  0.9523 -1.2839
    1MOL   H757  757   2.970   5.005   7.727  0.3256 -0.5628 -0.0724
    1MOL   H758  758   2.799   5.100   7.549 -1.1615 -1.9022  1.7094
    1MOL   H759  759   2.970   5.091   7.493  0.4825 -1.7513 -1.0754
    1MOL   H760  760   2.738   4.905   7.439 -0.2633 -2.0482 -2.1223
    1MOL   H761  761   2.913   4.873   7.389  0.8124  1.1299  0.0142
    1MOL   H762  762   2.876   5.104   7.036  0.4303 -0.6869 -0.1806
    1MOL   H763  763   2.749   5.019   6.977  1.1901 -2.6172  0.9346
    1MOL   H764  764   2.563   5.142   7.129 -0.9692  2.1322 -1.9299
    1MOL   H765  765   2.627   5.215   6.996  1.5812 -0.9015 -1.1752
    1MOL   H766  766   2.701   5.253   7.288  0.2914 -0.3708 -0.0368
    1MOL   H767  767   2.587   5.351   7.189 -1.4450 -0.7006 -2.3483
    1MOL   H768  768   2.806   5.411   7.042 -0.9199 -1.4306 -1.9332
    1MOL   H769  769   2.905   5.299   7.140  1.8520  2.2120  3.2712
    1MOL   O770  770   2.832   5.593   7.196  0.7970 -0.0462  0.9217
    1MOL   C771  771   2.857   5.708   7.280  0.5941 -0.1184  0.8373
    1MOL   C772  772   2.723   5.743   7.369 -0.1637  0.1308 -0.0700
    1MOL   C773  773   2.607   5.769   7.275  0.4288  0.2033 -0.0888
    1MOL   C774  774   2.486   5.836   7.357  0.1095 -0.1529  0.1345
    1MOL   C775  775   2.440   5.752   7.471  0.2108 -0.0735  0.2461
    1MOL   C776  776   2.312   5.805   7.531 -0.4275 -0.1604  0.3401
    1MOL   C777  777   2.266   5.727   7.654 -0.3111 -0.2937 -0.1184
    1MOL   C778  778   2.168   5.805   7.742  0.6380  0.1726 -0.8834
    1MOL   C779  779   2.145   5.735   0.120  0.3471  0.6126 -0.3512
    1MOL   C780  780   2.046   5.806   0.221  0.1732 -0.2224  0.0826
    1MOL   O781  781   2.078   5.942   0.264 -0.3496 -0.3851  0.1317
    1MOL   C782  782   2.062   6.058   0.187 -0.3242  0.7332 -0.8293
    1MOL   O783  783   2.013   6.061   0.075 -0.1792 -0.3771  0.1836
    1MOL   C784  784   2.104   6.184   0.255  0.4959 -0.1581  0.3027
    1MOL   C785  785   2.261   6.199   0.258 -0.2688  0.2035  0.3519
    1MOL   C786  786   2.325   6.130   0.384 -0.0226  0.7478  0.3578
    1MOL   C787  787   2.256   6.175   0.517 -0.3174  0.0553  0.2370
    1MOL   C788  788   2.283   6.316   0.564 -0.1514  0.0013 -0.5338
    1MOL   O789  789   2.374   6.345   0.643 -0.9525  0.0756 -0.1599
    1MOL   H790  790   2.941   5.679   7.343 -0.6095  0.3498  2.7166
    1MOL   H791  791   2.890   5.787   7.214  1.8433 -0.8449  0.5793
    1MOL   H792  792   2.731   5.838   7.422  2.3486  0.2821 -0.6495
    1MOL   H793  793   2.704   5.675   7.451  1.9066  0.2429  0.5284
    1MOL   H794  794   2.642   5.844   7.205  0.9735 -0.2548 -0.3077
    1MOL   H795  795   2.575   5.676   7.228  0.1983 -0.4136  1.2504
    1MOL   H796  796   2.403   5.868   7.295  0.5640  1.0033  0.0968
    1MOL   H797  797   2.523   5.928   7.402 -0.1964 -0.7468  1.6009
    1MOL   H798  798   2.505   5.746   7.558 -0.7018 -0.4744  0.9110
    1MOL   H799  799   2.433   5.650   7.432  0.3801  0.6879 -1.8140
    1MOL   H800  800   2.228   5.821   7.464  0.4168 -0.3719 -0.7715
    1MOL   H801  801   2.340   5.907   7.559  0.3352 -0.2270 -0.1730
    1MOL   H802  802   2.353   5.692   7.709 -0.3098  1.8218  1.2772
    1MOL   H803  803   2.223   5.632   7.622  0.6770 -0.6546 -0.3941
    1MOL   H804  804   2.072   5.808   7.691  0.3644 -1.4834 -0.5036
    1MOL   H805  805   2.206   5.905   7.763  2.4845 -0.0465 -2.9978
    1MOL   H806  806   2.100   5.636   0.108 -2.3301  1.7960 -0.5507
    1MOL   H807  807   2.241   5.703   0.160 -0.0916  0.8999  0.9761
    1MOL   H808  808   2.022   5.743   0.306 -1.1733 -0.4314 -0.4330
    1MOL   H809  809   1.949   5.819   0.174  0.3964  2.7633  0.3497
    1MOL   H810  810   2.064   6.268   0.199  0.7150  0.3823  0.9444
    1MOL   H811  811   2.055   6.208   0.349 -0.1776  1.6336 -0.4764
    1MOL   H812  812   2.287   6.305   0.262  0.9678 -0.1313  1.5598
    1MOL   H813  813   2.303   6.167   0.163 -0.1865  1.7179 -0.1373
    1MOL   H814  814   2.433   6.145   0.392 -0.1118  0.8102  1.4856
    1MOL   H815  815   2.306   6.023   0.387  0.7904  0.5026 -2.2850
    1MOL   H816  816   2.296   6.107   0.591  0.6941 -0.4177 -0.7348
    1MOL   H817  817   2.149   6.154   0.522 -0.2160 -0.3695  0.6369
    1MOL   O818  818   2.196   6.400   0.509 -0.2301 -0.8162  0.2117
    1MOL   C819  819   2.214   6.539   0.548 -0.1354 -0.3450  0.2714
    1MOL   C820  820   2.109   6.622   0.475  0.1464 -0.2626  0.3088
    1MOL   C821  821   2.113   6.611   0.321 -0.6848  0.0519 -0.1086
    1MOL   C822  822   2.032   6.719   0.250  0.2230 -0.2220  0.2067
    1MOL   C823  823   1.883   6.714   0.267 -0.8407 -0.1231 -0.9610
    1MOL   C824  824   1.807   6.787   0.157  0.8280 -0.2613  0.5245
    1MOL   C825  825   1.810   6.936   0.182 -0.5741  0.4110  0.6716
    1MOL   C826  826   1.747   7.022   0.078  0.0927  0.0507  0.0450
    1MOL   C827  827   1.711   7.164   0.108 -0.0833  0.1981 -0.3701
    1MOL   C828  828   1.823   7.260   0.078  0.0165  0.1425  0.3533
    1MOL   O829  829   1.788   7.387   0.137 -0.3099  0.0444 -0.2031
    1MOL   C830  830   1.843   7.496   0.082 -1.1549 -0.1379  0.2445
    1MOL   O831  831   1.928   7.497   7.759  0.2154  0.2085 -0.0378
    1MOL   C832  832   1.774   7.625   0.131  0.0731  0.4817  0.7542
    1MOL   C833  833   1.826   7.684   0.260  0.1494  0.2131 -0.6805
    1MOL   C834  834   1.740   7.647   0.381  0.4594  0.0971  0.0257
    1MOL   C835  835   1.740   7.747   0.504  0.6149  0.6611 -0.1246
    1MOL   C836  836   1.851   7.712   0.607 -1.2361 -0.2464  0.1723
    1MOL   O837  837   1.828   7.715   0.729 -0.0779  0.4488 -0.4883
    1MOL   H838  838   2.187   6.561   0.652 -1.2467 -2.3872  0.4351
    1MOL   H839  839   2.312   6.568   0.511 -1.3737  0.6285 -2.3792
    1MOL   H840  840   2.140   6.726   0.487  0.0333 -0.4716  2.5663
    1MOL   H841  841   2.014   6.605   0.525  0.1544 -0.2155  0.3402
    1MOL   H842  842   2.211   6.637   0.282 -0.7837  1.5468  0.6004
    1MOL   H843  843   2.084   6.511   0.287 -1.1850 -0.3682  1.5210
    1MOL   H844  844   2.044   6.703   0.142  2.9719 -1.7215  0.6981
    1MOL   H845  845   2.077   6.813   0.283 -0.1555 -0.1942  0.6368
    1MOL   H846  846   1.845   6.736   0.366 -2.2479  1.3671 -1.7951
    1MOL   H847  847   1.852   6.612   0.245  0.6562 -0.8303  0.1618
    1MOL   H848  848   1.702   6.759   0.169  0.5687  0.2638 -0.4262
    1MOL   H849  849   1.855   6.770   0.061 -0.2366 -1.2881  0.1591
    1MOL   H850  850   1.906   6.974   0.218 -0.8877 -1.0736  3.1807
    1MOL   H851  851   1.758   6.947   0.277 -1.1218 -0.7778  0.5148
    1MOL   H852  852   1.655   6.975   0.046  0.2549 -0.4002  0.2452
    1MOL   H853  853   1.809   7.018   7.752 -1.6500 -2.3274 -1.0749
    1MOL   H854  854   1.616   7.203   0.073 -2.5265 -3.0952  2.3688
    1MOL   H855  855   1.701   7.165   0.216 -1.6737 -0.4059 -0.5059
    1MOL   H856  856   1.843   7.271   7.736 -2.2160 -0.9540 -0.2188
    1MOL   H857  857   1.915   7.219   0.121  1.2446  1.1988 -1.2297
    1MOL   H858  858   1.810   7.707   0.069 -0.5766 -0.7573 -1.2898
    1MOL   H859  859   1.668   7.618   0.110 -0.3542  2.2997  2.1471
    1MOL   H860  860   1.821   0.028   0.264 -0.5221  0.1334  1.2931
    1MOL   H861  861   1.932   7.668   0.280 -0.1748  0.1261  1.0550
    1MOL   H862  862   1.766   7.544   0.404 -1.6210 -0.9409 -2.1438
    1MOL   H863  863   1.636   7.656   0.351  0.3459  0.6044  0.5603
    1MOL   H864  864   1.642   7.742   0.550  0.1722  0.3705 -1.0848
    1MOL   H865  865   1.748   0.082   0.462  2.6457 -0.0405 -1.5033
    1MOL   O866  866   1.970   7.690   0.543 -0.2586 -0.3138  0.2748
    1MOL   C867  867   2.085   7.656   0.617  0.3996  0.2893 -0.4486
    1MOL   C868  868   2.107   7.499   0.619  0.1609 -0.0080 -0.4851
    1MOL   C869  869   2.125   7.438   0.481  0.3877 -0.3441 -0.0138
    1MOL   C870  870   2.144   7.290   0.480 -0.4342 -0.3327 -0.1336
    1MOL   C871  871   2.024   7.206   0.512  0.2078 -0.0067  0.2939
    1MOL   C872  872   2.054   7.094   0.610 -1.1376 -0.0869 -0.4265
    1MOL   C873  873   1.941   6.993   0.620 -0.0411  0.0325 -1.2420
    1MOL   C874  874   1.969   6.867   0.721  1.0863  1.1887 -0.0523
    1MOL   C875  875   1.933   6.901   0.863 -0.4210 -0.2267  0.2128
    1MOL   C876  876   1.919   6.780   0.960 -0.6287  0.0786  0.1280
    1MOL   O877  877   2.046   6.725   0.998  0.1483  0.2219  0.2860
    1MOL   C878  878   2.090   6.611   0.935 -0.0636  1.1953 -0.7210
    1MOL   O879  879   2.044   6.552   0.840 -0.1729  0.5318  0.1991
    1MOL   C880  880   2.219   6.553   1.001 -0.6338  0.3166  0.2326
    1MOL   C881  881   2.186   6.459   1.123 -0.4731 -0.0064 -0.4593
    1MOL   C882  882   2.124   6.526   1.245 -0.2016  0.0640 -0.1804
    1MOL   C883  883   2.103   6.427   1.361 -0.0892  0.1132  1.0467
    1MOL   C884  884   1.997   6.316   1.342 -0.3262  0.6683  0.5576
    1MOL   O885  885   1.881   6.329   1.381  0.6875 -0.5998 -0.0842
    1MOL   H886  886   2.167   7.707   0.567  0.7260 -0.4177 -0.6507
    1MOL   H887  887   2.090   7.693   0.719  0.5873 -0.6748 -0.1013
    1MOL   H888  888   2.038   7.444   0.683 -0.0442  0.2864 -0.4517
    1MOL   H889  889   2.207   7.483   0.658 -0.3045  0.3526  0.8820
    1MOL   H890  890   2.040   7.461   0.417  1.0552  2.0842 -0.0488
    1MOL   H891  891   2.189   7.482   0.405  1.0935  0.4163  1.0149
    1MOL   H892  892   2.232   7.262   0.538 -1.7349 -1.9146  1.1192
    1MOL   H893  893   2.169   7.261   0.378 -1.6239 -0.8891 -0.2799
    1MOL   H894  894   1.970   7.179   0.421  1.6428 -2.1333  0.0335
    1MOL   H895  895   1.967   7.279   0.570  1.1397  0.9166  0.0625
    1MOL   H896  896   2.077   7.132   0.710 -1.3284  0.3726 -0.5592
    1MOL   H897  897   2.142   7.035   0.583  0.5344  1.3627  1.6799
    1MOL   H898  898   1.941   6.942   0.524 -2.8399 -2.2889 -0.0789
    1MOL   H899  899   1.844   7.040   0.636  0.6132  0.2458  2.6386
    1MOL   H900  900   2.075   6.843   0.718  0.7648 -0.0409 -2.7520
    1MOL   H901  901   1.907   6.788   0.678  2.8762  0.0420 -0.5732
    1MOL   H902  902   1.998   6.980   0.900 -0.3519  0.2083 -0.8154
    1MOL   H903  903   1.833   6.945   0.861  0.5195  1.9222 -0.4114
    1MOL   H904  904   1.860   6.703   0.910  0.5423 -0.4850 -0.4053
    1MOL   H905  905   1.865   6.804   1.051  0.8612 -1.1368  1.3668
    1MOL   H906  906   2.271   6.483   0.935 -0.5766  1.2937 -0.7664
    1MOL   H907  907   2.288   6.633   1.027 -2.0837  1.8396 -0.4966
    1MOL   H908  908   2.281   6.409   1.140 -0.2463 -0.0739 -1.8765
    1MOL   H909  909   2.123   6.376   1.093  0.7559 -1.6634  1.3429
    1MOL   H910  910   2.030   6.577   1.223 -0.2900 -0.1805 -0.3676
    1MOL   H911  911   2.189   6.607   1.278 -0.5040  0.5319 -0.7184
    1MOL   H912  912   2.056   6.481   1.444 -0.1355  2.6997 -0.6251
    1MOL   H913  913   2.199   6.382   1.387  0.2536  0.1032 -0.2318
    1MOL   O914  914   2.046   6.203   1.283  0.0652  0.0651  0.0920
    1MOL   C915  915   1.966   6.092   1.258  0.0231  0.6967  1.0415
    1MOL   C916  916   1.866   6.115   1.140 -0.5414  0.2144  0.3765
    1MOL   C917  917   1.922   6.149   1.003  0.5798  0.0462 -0.8344
    1MOL   C918  918   1.820   6.212   0.907  0.2545  0.0569 -0.2241
    1MOL   C919  919   1.871   6.249   0.759 -0.1415 -0.3227  0.0909
    1MOL   C920  920   1.757   6.283   0.666 -0.2597  0.0437 -1.1765
    1MOL   C921  921   1.806   6.282   0.521 -0.2003 -0.3547 -0.5307
    1MOL   C922  922   1.699   6.321   0.426 -0.3414  0.7996  0.6599
    1MOL   C923  923   1.733   6.312   0.281 -0.3335  0.0919  0.6416
    1MOL   C924  924   1.636   6.385   0.185 -0.5278  0.4575 -0.5578
    1MOL   O925  925   1.493   6.349   0.203  0.6852 -0.0431  0.1521
    1MOL   C926  926   1.415   6.433   0.279 -0.7358 -0.8310  0.5361
    1MOL   O927  927   1.442   6.553   0.308 -0.3255  0.6070 -0.4094
    1MOL   C928  928   1.273   6.378   0.300 -0.1827 -0.2166  0.1231
    1MOL   C929  929   1.203   6.353   0.168 -0.2252 -0.4594 -0.6482
    1MOL   C930  930   1.074   6.284   0.182  0.6700 -0.1459 -0.4419
    1MOL   C931  931   1.019   6.270   0.039  0.2414 -0.2624  0.0725
    1MOL   C932  932   0.936   6.397   0.001  0.6313  0.7497 -0.3790
    1MOL   O933  933   0.846   6.445   0.072  0.5486  0.1320 -0.1100
    1MOL   H934  934   2.018   5.997   1.252 -0.1242  0.5601  1.8924
    1MOL   H935  935   1.912   6.064   1.349  1.3193 -1.4829  1.1644
    1MOL   H936  936   1.802   6.194   1.179 -0.0131  0.9368 -0.2232
    1MOL   H937  937   1.797   6.030   1.132 -0.1887 -0.1893  1.4543
    1MOL   H938  938   1.998   6.220   1.033 -0.8745  0.5513  1.7881
    1MOL   H939  939   1.964   6.055   0.967 -1.1762 -0.9872 -0.2591
    1MOL   H940  940   1.774   6.296   0.960 -0.8168 -0.7953  0.2345
    1MOL   H941  941   1.741   6.137   0.904  1.3555 -1.3063  2.5682
    1MOL   H942  942   1.928   6.162   0.727  1.1209  0.4227  0.2808
    1MOL   H943  943   1.943   6.328   0.782  2.7774 -2.1882 -2.3461
    1MOL   H944  944   1.719   6.378   0.705 -1.7918 -1.0649  0.1197
    1MOL   H945  945   1.669   6.220   0.681 -0.5211  0.3946 -1.2209
    1MOL   H946  946   1.830   6.182   0.486  0.1619  0.4229 -2.5666
    1MOL   H947  947   1.890   6.347   0.497  1.1250 -2.6159 -2.1859
    1MOL   H948  948   1.669   6.424   0.444 -2.9988  0.1171  0.3107
    1MOL   H949  949   1.617   6.253   0.447  0.1253 -0.8615 -2.5329
    1MOL   H950  950   1.836   6.336   0.255 -0.0126 -1.8968  0.0117
    1MOL   H951  951   1.708   6.208   0.259  0.9456  0.3735 -2.2694
    1MOL   H952  952   1.660   6.365   0.081 -0.0735 -0.2783 -0.3100
    1MOL   H953  953   1.649   6.493   0.187 -0.0621  0.4443 -2.5691
    1MOL   H954  954   1.284   6.282   0.351 -3.5839  0.6149  2.6239
    1MOL   H955  955   1.218   6.448   0.364  0.4191  0.5645 -0.1998
    1MOL   H956  956   1.259   6.289   0.100  0.9242  0.8406 -0.9436
    1MOL   H957  957   1.198   6.451   0.120 -0.6035 -0.8190 -1.3532
    1MOL   H958  958   1.001   6.338   0.243  1.1002  1.1675 -1.0688
    1MOL   H959  959   1.103   6.193   0.233 -1.9286 -1.5533 -1.3604
    1MOL   H960  960   0.948   6.189   0.026 -0.3811  0.3171 -0.1668
    1MOL   H961  961   1.100   6.256   7.733  2.0296  0.6678  1.8751
    1MOL   H962  962   0.960   6.440   7.668  0.2717  1.2467 -0.2497
    2MOL     O1  963   1.955   2.051   5.828 -0.1709 -0.3661  0.4485
    2MOL     C2  964   2.063   2.004   5.744  0.2233  0.0652  0.2698
    2MOL     C3  965   2.202   2.048   5.789  0.9191 -0.4977  0.5165
    2MOL     C4  966   2.300   2.030   5.672 -0.2824 -0.0093  0.2140
    2MOL     C5  967   2.439   2.108   5.684 -0.0804  0.4159 -0.6041
    2MOL     C6  968   2.556   2.038   5.599  0.1451 -0.4989 -0.4077
    2MOL     C7  969   2.687   2.123   5.623  0.7034 -0.0001  0.6738
    2MOL     C8  970   2.804   2.083   5.526 -0.2108 -0.3203  0.2363
    2MOL     C9  971   2.882   1.958   5.571  0.3821 -0.0813  0.6698
    2MOL    C10  972   3.007   1.995   5.650  0.0650  0.0071  0.4697
    2MOL    C11  973   2.986   2.076   5.781  0.2662  0.7844  0.8456
    2MOL    O12  974   3.094   2.070   5.864 -0.4428 -0.0828 -0.2146
    2MOL    C13  975   3.223   2.102   5.827 -0.5187  0.0944 -0.4916
    2MOL    O14  976   3.257   2.139   5.711  0.7514  0.1272  0.1128
    2MOL    C15  977   3.330   2.077   5.929 -0.9587 -0.0076 -0.3040
    2MOL    C16  978   3.399   2.214   5.960  0.7097 -0.0617 -0.3111
    2MOL    C17  979   3.533   2.187   6.013  0.5061  0.3820  0.5084
    2MOL    C18  980   3.590   2.296   6.110 -0.4033 -0.1895 -0.2560
    2MOL    C19  981   3.626   2.423   6.036 -0.6495 -0.6199  0.5338
    2MOL    O20  982   3.588   2.535   6.075 -0.7479  0.1018  0.4310
    2MOL    H21  983   2.055   1.897   5.726  1.8994 -0.1891  0.9348
    2MOL    H22  984   2.046   2.055   5.649 -2.4373 -0.5531  0.3804
    2MOL    H23  985   2.231   1.982   5.871 -0.2161 -1.7188 -0.0458
    2MOL    H24  986   2.210   2.141   5.845  0.6172 -0.0508 -0.1773
    2MOL    H25  987   2.323   1.923   5.671  0.5150  0.1628 -2.1792
    2MOL    H26  988   2.261   2.047   5.572 -1.3509 -1.1018  0.4186
    2MOL    H27  989   2.472   2.111   5.788  2.2236 -0.3610 -1.2646
    2MOL    H28  990   2.433   2.216   5.674 -0.4838  0.3296 -1.3081
    2MOL    H29  991   2.535   2.032   5.493 -0.2075  2.1048 -0.5232
    2MOL    H30  992   2.563   1.936   5.635 -1.2385  0.3517  2.4808
    2MOL    H31  993   2.720   2.110   5.726 -0.5380  0.6295  1.1653
    2MOL    H32  994   2.671   2.231   5.623  3.3789  0.4273  0.3784
    2MOL    H33  995   2.863   2.168   5.493 -2.6790  0.6108 -2.0184
    2MOL    H34  996   2.754   2.052   5.433 -2.6188  1.4718  0.8799
    2MOL    H35  997   2.924   1.915   5.480  0.5960 -3.6511  2.3736
    2MOL    H36  998   2.820   1.888   5.628 -1.0416  0.1537 -0.5629
    2MOL    H37  999   3.049   1.899   5.680 -2.3744 -1.0492  0.6457
    2MOL    H38 1000   3.068   2.049   5.577  0.6889 -0.4333  0.6624
    2MOL    H39 1001   2.899   2.035   5.833 -0.5430  1.1113 -0.2253
    2MOL    H40 1002   2.966   2.181   5.758  0.2836  0.4017 -0.9946
    2MOL    H41 1003   3.289   2.034   6.021  0.6932  2.5942  1.7240
    2MOL    H42 1004   3.405   2.009   5.889 -0.4236  0.2667  0.2253
    2MOL    H43 1005   3.334   2.272   6.025 -0.7301 -1.1673 -0.7280
    2MOL    H44 1006   3.415   2.265   5.865 -0.5721  1.2145  0.1554
    2MOL    H45 1007   3.595   2.174   5.925 -0.3821  1.8441 -0.3520
    2MOL    H46 1008   3.543   2.100   6.079  1.7415 -0.5140 -0.8483
    2MOL    H47 1009   3.675   2.251   6.161 -0.3561 -1.4763 -1.4438
    2MOL    H48 1010   3.515   2.317   6.186  0.4606 -0.0783  0.5906
    2MOL    H49 1011   1.871   2.009   5.812 -0.6410  1.3489 -1.8864
    2MOL    O50 1012   3.712   2.400   5.931  0.4678 -0.1377 -0.2151
    2MOL    C51 1013   3.767   2.510   5.857 -0.0175 -0.4344  0.2955
    2MOL    C52 1014   3.919   2.508   5.883 -0.7002  0.4869 -0.1950
    2MOL    C53 1015   3.974   2.495   6.033 -0.4005  0.0067  0.4712
    2MOL    C54 1016   4.123   2.517   6.055  0.2076  0.0275  0.4815
    2MOL    C55 1017   4.153   2.533   6.210  0.0291 -0.2181  0.0454
    2MOL    C56 1018   4.297   2.538   6.256 -0.1814 -0.4918  0.0616
    2MOL    C57 1019   4.374   2.407   6.222  0.2515  0.2974  0.3043
    2MOL    C58 1020   4.527   2.404   6.264  0.3187 -0.1453 -0.2023
    2MOL    C59 1021   4.622   2.440   6.150  0.0020 -0.6272  0.1326
    2MOL    C60 1022   4.764   2.400   6.180 -0.0010  0.1149 -0.0133
    2MOL    O61 1023   4.792   2.259   6.188  0.0653 -0.4336  0.2089
    2MOL    C62 1024   4.855   2.193   6.089 -0.0412  0.4338  0.1292
    2MOL    O63 1025   4.889   2.244   5.983  0.2853 -0.1146  0.1321
    2MOL    C64 1026   4.895   2.047   6.120 -0.4126 -0.2317 -0.6025
    2MOL    C65 1027   4.877   1.961   6.000 -0.2988 -0.4807  0.5777
    2MOL    C66 1028   4.927   1.820   6.023 -0.0606  0.4017 -0.0674
    2MOL    C67 1029   4.876   1.721   5.922 -0.5594 -0.1696  0.7050
    2MOL    C68 1030   4.895   1.766   5.773  0.1789 -0.1648 -0.0086
    2MOL    O69 1031   5.008   1.760   5.725  0.0810 -0.0496 -0.1301
    2MOL    H70 1032   3.735   2.509   5.753  1.3881  0.1705 -0.1458
    2MOL    H71 1033   3.731   2.605   5.897 -0.5909 -0.6960  0.4088
    2MOL    H72 1034   3.967   2.594   5.837  0.3656  0.7134  1.3155
    2MOL    H73 1035   3.940   2.416   5.830 -1.8264 -1.0122  1.8876
    2MOL    H74 1036   3.919   2.567   6.093 -0.3350  2.1762 -1.9718
    2MOL    H75 1037   3.942   2.401   6.077 -2.2483 -1.3183 -3.4253
    2MOL    H76 1038   4.169   2.596   5.995 -0.6561 -0.7035 -1.1711
    2MOL    H77 1039   4.172   2.428   6.016  0.2313 -0.0830  0.7615
    2MOL    H78 1040   4.097   2.454   6.258  0.6673 -1.3062 -0.9653
    2MOL    H79 1041   4.096   2.621   6.241 -0.3462 -0.1062 -0.9495
    2MOL    H80 1042   4.297   2.552   6.364 -1.7516  2.5682 -0.3023
    2MOL    H81 1043   4.351   2.626   6.220  0.7418 -1.0760 -0.0053
    2MOL    H82 1044   4.367   2.383   6.117 -0.4102 -1.8053  0.8141
    2MOL    H83 1045   4.312   2.332   6.272  0.6859 -0.2351  0.0404
    2MOL    H84 1046   4.547   2.300   6.285 -1.4583 -0.6315 -0.7855
    2MOL    H85 1047   4.553   2.447   6.360  0.4929 -0.7776  0.0300
    2MOL    H86 1048   4.589   2.413   6.050 -1.8185  0.3829  0.4531
    2MOL    H87 1049   4.624   2.549   6.142  1.2391 -0.7314 -1.1961
    2MOL    H88 1050   4.788   2.446   6.276  0.8954 -0.7154  0.1650
    2MOL    H89 1051   4.829   2.445   6.105 -0.4873 -1.3996 -1.3779
    2MOL    H90 1052   4.994   2.033   6.163 -1.2841 -1.5515  1.0416
    2MOL    H91 1053   4.819   2.010   6.189  1.1869  0.2009  1.4169
    2MOL    H92 1054   4.945   2.003   5.926 -0.1755 -0.2083  0.8429
    2MOL    H93 1055   4.773   1.966   5.966 -0.5863 -1.9054  1.1734
    2MOL    H94 1056   4.896   1.782   6.121  0.2450  1.7636  0.5737
    2MOL    H95 1057   5.035   1.816   6.014  0.0754  1.2913  1.0801
    2MOL    H96 1058   4.768   1.719   5.936 -0.3522  0.2224  2.5255
    2MOL    H97 1059   4.922   1.625   5.942 -1.5833 -1.1140 -1.2953
    2MOL    O98 1060   4.782   1.817   5.728 -0.4109  0.2738 -0.2492
    2MOL    C99 1061   4.785   1.882   5.598 -0.5555 -0.6933  0.6805
    2MOL   C100 1062   4.822   2.025   5.609  0.2490  0.0950 -0.0723
    2MOL   C101 1063   4.753   2.104   5.493  0.1290 -0.1105  0.9442
    2MOL   C102 1064   4.806   2.251   5.471 -0.3154 -0.1496  0.3551
    2MOL   C103 1065   4.732   2.304   5.346  0.9002  0.1944  0.0467
    2MOL   C104 1066   4.759   2.450   5.319 -0.0397  0.0338  0.3157
    2MOL   C105 1067   4.908   2.483   5.286  0.1793 -0.2480  0.8534
    2MOL   C106 1068   4.929   2.634   5.264 -0.2516 -0.1811  0.1635
    2MOL   C107 1069   4.941   2.718   5.396 -0.2160  0.4978  0.2595
    2MOL   C108 1070   4.934   2.866   5.377  0.4038 -0.2906 -0.5533
    2MOL   O109 1071   4.908   2.926   5.504 -0.7036 -0.1035  0.6862
    2MOL   C110 1072   4.950   3.049   5.543  0.3380 -0.4589  0.0022
    2MOL   O111 1073   4.999   3.127   5.459 -0.4146 -0.2112  0.1818
    2MOL   C112 1074   4.926   3.073   5.694 -0.0244 -0.8327  0.0208
    2MOL   C113 1075   4.962   3.213   5.739  0.3122  0.8552 -0.3386
    2MOL   C114 1076   4.971   3.235   5.889  0.1429 -0.1709  0.0695
    2MOL   C115 1077   5.062   3.347   5.942 -0.1879  0.6313 -0.2301
    2MOL   C116 1078   5.001   3.480   5.936  0.0435 -0.0707  0.5797
    2MOL   O117 1079   4.909   3.511   6.007  0.0183 -0.4605  0.4653
    2MOL   H118 1080   4.856   1.844   5.524 -1.7430  0.3259 -1.0305
    2MOL   H119 1081   4.688   1.872   5.549  0.5488 -0.3923 -1.6673
    2MOL   H120 1082   4.931   2.028   5.610  0.2276  1.5316 -0.0530
    2MOL   H121 1083   4.800   2.066   5.708 -1.4127  0.6556 -0.6660
    2MOL   H122 1084   4.763   2.053   5.398 -1.9585  0.0449  0.6162
    2MOL   H123 1085   4.646   2.106   5.517  0.0179 -0.8000  0.4978
    2MOL   H124 1086   4.914   2.257   5.464 -0.2098 -2.2148 -0.2145
    2MOL   H125 1087   4.776   2.313   5.555 -0.5625  0.7508 -0.3954
    2MOL   H126 1088   4.624   2.297   5.358  0.9005  0.8665  0.4833
    2MOL   H127 1089   4.755   2.252   5.253  1.6120 -0.3220  0.5125
    2MOL   H128 1090   4.724   2.504   5.408 -0.5961  0.1832  0.0052
    2MOL   H129 1091   4.697   2.481   5.236 -1.0637  1.1878  1.4864
    2MOL   H130 1092   4.943   2.434   5.195  0.3378  1.0208  0.2305
    2MOL   H131 1093   4.985   2.455   5.358  2.9767  0.2697 -1.8510
    2MOL   H132 1094   4.840   2.665   5.209  0.6132 -0.5189 -1.4647
    2MOL   H133 1095   5.020   2.648   5.205 -0.6425  1.0268 -0.1840
    2MOL   H134 1096   4.862   2.681   5.461 -1.6426  1.4827 -0.8803
    2MOL   H135 1097   5.040   2.693   5.436 -0.7169  1.4490  2.1464
    2MOL   H136 1098   4.848   2.896   5.316 -0.6527 -4.6128 -1.3498
    2MOL   H137 1099   5.027   2.882   5.323  1.5601 -0.1760  1.4271
    2MOL   H138 1100   4.819   3.057   5.706 -0.1887 -0.5472 -1.0440
    2MOL   H139 1101   4.980   2.993   5.744 -0.4351 -1.9848 -1.3344
    2MOL   H140 1102   4.880   3.278   5.710  0.4280  1.5184  0.7748
    2MOL   H141 1103   5.044   3.263   5.688  1.1935  0.0031  0.2227
    2MOL   H142 1104   5.009   3.147   5.941 -1.4401  0.0255  1.6166
    2MOL   H143 1105   4.869   3.247   5.925  0.4909 -1.1131  1.4120
    2MOL   H144 1106   5.159   3.345   5.893 -0.3674 -0.3437 -0.5576
    2MOL   H145 1107   5.087   3.329   6.047 -1.4307  0.4289  0.0378
    2MOL   O146 1108   5.074   3.564   5.859  0.4291  0.4004  0.5757
    2MOL   C147 1109   5.057   3.705   5.878  0.1593 -0.0023  0.1619
    2MOL   C148 1110   5.145   3.792   5.790 -0.3327 -0.0944  0.4459
    2MOL   C149 1111   5.296   3.765   5.824 -0.4383  0.9422  0.6499
    2MOL   C150 1112   5.388   3.870   5.768  0.1535  0.5876  0.2804
    2MOL   C151 1113   5.541   3.848   5.780  0.1755 -0.2329 -0.0494
    2MOL   C152 1114   5.627   3.954   5.708 -0.2174 -0.7410 -0.4309
    2MOL   C153 1115   5.783   3.933   5.728  0.0105 -0.3040  0.4272
    2MOL   C154 1116   5.865   4.025   5.640 -0.7346 -0.5641 -0.2574
    2MOL   C155 1117   6.015   4.005   5.648 -0.4256  0.0418  0.7341
    2MOL   C156 1118   6.071   4.126   5.572  0.3247 -0.7178 -0.1292
    2MOL   O157 1119   6.208   4.132   5.594 -0.6720 -0.1326 -0.1047
    2MOL   C158 1120   6.298   4.071   5.514 -0.5637  0.5114 -0.7732
    2MOL   O159 1121   6.280   3.991   5.421  0.2028 -0.4536 -0.8371
    2MOL   C160 1122   6.441   4.107   5.565  0.0710  0.3041  0.2557
    2MOL   C161 1123   6.550   4.013   5.529  0.7408 -0.9274  0.5879
    2MOL   C162 1124   6.590   4.012   5.382  0.4437  0.3571 -0.8191
    2MOL   C163 1125   6.717   3.925   5.341 -0.4496 -0.2557  0.0884
    2MOL   C164 1126   6.691   3.774   5.358 -0.1978 -0.6971  0.7139
    2MOL   O165 1127   6.590   3.724   5.407 -0.0620 -0.1807  0.2529
    2MOL   H166 1128   4.949   3.712   5.865  0.1544  0.0813  0.2442
    2MOL   H167 1129   5.085   3.719   5.983 -0.4416  0.9716  0.1945
    2MOL   H168 1130   5.114   3.896   5.796 -0.4877 -0.0562 -0.9867
    2MOL   H169 1131   5.120   3.760   5.689 -1.3725 -0.4324  0.7994
    2MOL   H170 1132   5.306   3.769   5.933  3.1466  0.8653  0.3878
    2MOL   H171 1133   5.324   3.663   5.797  1.7256  1.8660 -0.6835
    2MOL   H172 1134   5.363   3.961   5.824  0.9364  0.4511  0.8563
    2MOL   H173 1135   5.357   3.894   5.667 -1.3878 -0.5404  0.4636
    2MOL   H174 1136   5.556   3.753   5.730 -2.0527 -0.7217  0.1379
    2MOL   H175 1137   5.567   3.825   5.883 -1.3079 -0.0761  0.3787
    2MOL   H176 1138   5.615   4.057   5.741  2.3310 -0.0562 -1.5587
    2MOL   H177 1139   5.597   3.961   5.604 -0.2383 -0.9165 -0.4368
    2MOL   H178 1140   5.810   3.830   5.705 -2.0805 -0.0808 -3.5740
    2MOL   H179 1141   5.806   3.945   5.834  0.3510 -0.1274  0.3312
    2MOL   H180 1142   5.843   4.132   5.647 -0.0364 -0.2914 -1.8478
    2MOL   H181 1143   5.840   3.999   5.537  0.1729  1.6538 -1.0697
    2MOL   H182 1144   6.048   4.009   5.751  0.5608 -2.8771  0.5876
    2MOL   H183 1145   6.055   3.913   5.604 -0.9299  0.2155 -0.0934
    2MOL   H184 1146   6.030   4.218   5.611 -0.9389 -0.5070 -1.8582
    2MOL   H185 1147   6.040   4.117   5.467 -3.0424  1.4302  0.6139
    2MOL   H186 1148   6.454   4.212   5.537  2.1767 -0.1773 -0.6794
    2MOL   H187 1149   6.441   4.110   5.673 -0.0129 -1.4763  0.3293
    2MOL   H188 1150   6.535   3.913   5.568 -0.2062 -0.0305  2.6128
    2MOL   H189 1151   6.642   4.043   5.580  2.0084 -2.0159 -1.0294
    2MOL   H190 1152   6.610   4.111   5.341  2.6715  2.0411  3.9101
    2MOL   H191 1153   6.508   3.979   5.318 -0.6807 -1.1256  1.3354
    2MOL   H192 1154   6.802   3.950   5.405  0.5915  0.6874 -1.6428
    2MOL   H193 1155   6.729   3.948   5.235  1.6736  3.3257  1.0288
    2MOL   O194 1156   6.801   3.706   5.321  0.5236  0.2078 -0.6979
    2MOL   C195 1157   6.791   3.560   5.302  0.5118 -0.0990 -0.3273
    2MOL   C196 1158   6.929   3.505   5.256 -0.0687  0.2592  0.0044
    2MOL   C197 1159   6.974   3.566   5.123  0.1277  0.1672  0.5875
    2MOL   C198 1160   7.111   3.505   5.090  0.5737  0.0225  0.4761
    2MOL   C199 1161   7.203   3.574   4.987 -0.7212  0.2724  0.1879
    2MOL   C200 1162   7.147   3.589   4.847  0.4076 -0.3808 -0.1106
    2MOL   C201 1163   7.136   3.454   4.768 -0.0179 -0.1981  0.7316
    2MOL   C202 1164   7.220   3.451   4.637  0.5429 -0.3420  0.0238
    2MOL   C203 1165   7.363   3.491   4.657 -0.3181 -0.2511 -0.2429
    2MOL   C204 1166   7.454   3.444   4.541  0.3494  0.4571  0.1687
    2MOL   O205 1167   7.428   3.523   4.426 -0.0985 -1.1712 -0.1577
    2MOL   C206 1168   7.495   3.638   4.402 -0.5537  0.0835 -0.1177
    2MOL   O207 1169   7.580   3.692   4.465  0.1150  0.4822  0.4715
    2MOL   C208 1170   7.467   3.683   4.259  0.0233 -0.0502  0.4411
    2MOL   C209 1171   7.515   3.827   4.227 -0.3159 -0.5809 -0.7301
    2MOL   C210 1172   7.484   3.858   4.087  0.0082 -0.1046  0.1723
    2MOL   C211 1173   7.345   3.924   4.066 -0.6592  0.6413 -0.1799
    2MOL   C212 1174   7.298   3.925   3.926  0.7013  0.1481 -0.2504
    2MOL   O213 1175   7.374   3.900   3.832  0.1120  0.1238  0.1047
    2MOL   H214 1176   6.742   3.514   5.388  0.7581 -0.3533 -0.3234
    2MOL   H215 1177   6.727   3.542   5.216  2.3693  1.3124 -2.0431
    2MOL   H216 1178   6.909   3.398   5.253  0.9359  0.0034  1.9112
    2MOL   H217 1179   7.005   3.521   5.332  0.8889 -0.1113 -0.8531
    2MOL   H218 1180   6.909   3.540   5.039  0.9669  1.0456 -0.3577
    2MOL   H219 1181   6.979   3.674   5.136  1.0770  0.4952 -2.0303
    2MOL   H220 1182   7.096   3.399   5.074  1.1677  0.1310 -0.9194
    2MOL   H221 1183   7.171   3.509   5.181 -0.2448  1.0204  0.9932
    2MOL   H222 1184   7.293   3.515   4.968  1.4391  3.7783 -1.0447
    2MOL   H223 1185   7.239   3.666   5.033  0.2767  0.4998 -0.9849
    2MOL   H224 1186   7.204   3.667   4.796 -2.0048  1.5557  0.0296
    2MOL   H225 1187   7.042   3.621   4.848  0.8234  1.0476 -0.5511
    2MOL   H226 1188   7.033   3.445   4.734 -0.3262  1.5197  1.1536
    2MOL   H227 1189   7.161   3.365   4.825 -0.6466 -1.2614 -0.6216
    2MOL   H228 1190   7.170   3.510   4.560  0.8161 -0.1241  0.0126
    2MOL   H229 1191   7.214   3.348   4.603  0.9080 -0.7366  1.1190
    2MOL   H230 1192   7.382   3.598   4.667  0.4839 -0.5729  1.8792
    2MOL   H231 1193   7.400   3.442   4.747 -0.8108  0.4477  0.3487
    2MOL   H232 1194   7.443   3.337   4.523  3.9394  0.1164 -0.2936
    2MOL   H233 1195   7.558   3.455   4.572 -0.0233 -0.1245  1.6815
    2MOL   H234 1196   7.505   3.611   4.187 -0.2423  0.4453 -0.1958
    2MOL   H235 1197   7.361   3.660   4.250  0.8411 -3.2868 -1.7331
    2MOL   H236 1198   7.621   3.829   4.252 -0.2405  0.7849 -1.1101
    2MOL   H237 1199   7.472   3.903   4.293 -0.9616 -1.0212 -0.6326
    2MOL   H238 1200   7.498   3.771   4.021 -3.6144  0.3784 -1.3937
    2MOL   H239 1201   7.552   3.930   4.042 -1.8104  0.3117 -2.0241
    2MOL   H240 1202   7.353   4.026   4.103 -1.0124 -0.1538  2.1579
    2MOL   H241 1203   7.270   3.874   4.127 -1.3693  0.4690 -1.1825
    2MOL   O242 1204   7.170   3.951   3.914  0.1005 -0.3791 -0.4811
    2MOL   C243 1205   7.106   3.986   3.795  0.6647  0.8475 -0.3915
    2MOL   C244 1206   7.016   4.098   3.821 -0.1237  0.1130 -0.7277
    2MOL   C245 1207   6.897   4.076   3.912  0.1588  0.0841  0.2399
    2MOL   C246 1208   6.860   4.211   3.975  0.1316  0.2192  0.3628
    2MOL   C247 1209   6.803   4.316   3.873 -0.0507  0.3031  0.4598
    2MOL   C248 1210   6.772   4.447   3.944  0.3231  0.0866 -0.0018
    2MOL   C249 1211   6.730   4.556   3.845 -0.2450  0.3695 -0.2312
    2MOL   C250 1212   6.591   4.526   3.784 -0.6709 -0.2968 -0.0071
    2MOL   C251 1213   6.470   4.531   3.884 -0.6624 -0.3989  1.4786
    2MOL   C252 1214   6.455   4.666   3.962 -0.2584  0.1230  0.4561
    2MOL   O253 1215   6.538   4.667   4.075 -0.4023 -0.1998 -0.0819
    2MOL   C254 1216   6.504   4.605   4.184  0.4097 -0.5900 -0.4005
    2MOL   O255 1217   6.412   4.521   4.190  0.5293  0.2859 -0.0951
    2MOL   C256 1218   6.583   4.649   4.309  0.4757  0.1863  0.9019
    2MOL   C257 1219   6.628   4.526   4.389  0.2105  0.3737 -0.0648
    2MOL   C258 1220   6.727   4.424   4.321  0.0661 -0.2768 -0.4581
    2MOL   C259 1221   6.793   4.316   4.406  0.0084  1.1109 -0.6085
    2MOL   C260 1222   6.697   4.198   4.428  0.1930 -0.2385 -0.1520
    2MOL   O261 1223   6.634   4.152   4.331 -0.2076  0.4070  0.1788
    2MOL   H262 1224   7.173   4.014   3.714  1.5715  0.6626  0.2889
    2MOL   H263 1225   7.051   3.900   3.756  1.2922  1.2753 -2.2299
    2MOL   H264 1226   6.986   4.143   3.727  0.1676  1.7363 -0.0656
    2MOL   H265 1227   7.076   4.173   3.874  0.7581 -1.4940  0.5976
    2MOL   H266 1228   6.805   4.046   3.863  0.1710 -0.8251  0.7532
    2MOL   H267 1229   6.930   4.012   3.994 -1.0358  1.0957  1.5350
    2MOL   H268 1230   6.952   4.244   4.023  0.8114  0.7781 -1.2756
    2MOL   H269 1231   6.783   4.208   4.052  0.0581 -1.0304  0.2499
    2MOL   H270 1232   6.719   4.265   3.827 -0.2380  0.1427  0.9798
    2MOL   H271 1233   6.874   4.329   3.791 -0.3697 -2.0798 -0.2334
    2MOL   H272 1234   6.864   4.478   3.994 -0.0008 -0.8281  1.1729
    2MOL   H273 1235   6.697   4.435   4.023  1.9270  1.2555  1.7364
    2MOL   H274 1236   6.801   4.554   3.762  1.1024  1.6365  0.8699
    2MOL   H275 1237   6.738   4.654   3.892  1.1273 -0.1701  0.6933
    2MOL   H276 1238   6.588   4.432   3.728  2.8713 -1.1705  1.1203
    2MOL   H277 1239   6.585   4.609   3.714 -2.9722 -0.1046  0.3847
    2MOL   H278 1240   6.374   4.493   3.849 -0.4839 -0.6454  1.2538
    2MOL   H279 1241   6.502   4.459   3.959  1.2488 -1.3725 -0.2203
    2MOL   H280 1242   6.353   4.687   3.993  0.1281  1.0258  1.1397
    2MOL   H281 1243   6.489   4.748   3.898 -0.6097 -0.0059  0.1016
    2MOL   H282 1244   6.669   4.703   4.270  0.3439 -0.7565 -0.7467
    2MOL   H283 1245   6.524   4.721   4.366 -0.7459  1.9134 -2.3968
    2MOL   H284 1246   6.546   4.470   4.433 -0.3423  0.2085 -1.2672
    2MOL   H285 1247   6.672   4.559   4.483 -0.6390  1.5810 -0.0807
    2MOL   H286 1248   6.811   4.487   4.293 -0.7571  0.6309 -0.9235
    2MOL   H287 1249   6.688   4.377   4.231 -0.2465 -0.6342 -0.1373
    2MOL   H288 1250   6.833   4.345   4.503  2.1210 -0.8084 -0.8653
    2MOL   H289 1251   6.884   4.288   4.352  0.7269 -0.6152  1.3846
    2MOL   O290 1252   6.703   4.145   4.554  0.8077  0.5104 -1.0138
    2MOL   C291 1253   6.595   4.063   4.582 -0.1121  0.1262 -0.1629
    2MOL   C292 1254   6.575   4.040   4.736 -0.7150  0.9568  0.7413
    2MOL   C293 1255   6.486   4.151   4.803 -0.2705  0.7477  0.1090
    2MOL   C294 1256   6.445   4.115   4.945 -1.0229  0.1103  0.0528
    2MOL   C295 1257   6.372   4.240   5.012 -0.0312 -0.3575  0.1037
    2MOL   C296 1258   6.287   4.218   5.128  0.3001  0.0401  0.1709
    2MOL   C297 1259   6.215   4.349   5.170  0.5917 -0.4654  0.1699
    2MOL   C298 1260   6.107   4.331   5.276 -0.2946 -0.2945 -0.0391
    2MOL   C299 1261   6.066   4.474   5.325 -0.3187  0.5314 -0.4841
    2MOL   C300 1262   5.969   4.476   5.442  0.5078 -0.1905 -0.1265
    2MOL   O301 1263   5.927   4.613   5.446  0.0403  0.2826  0.5153
    2MOL   C302 1264   5.988   4.715   5.517  0.3454  0.7392  0.0350
    2MOL   O303 1265   6.082   4.697   5.588  0.4525  0.0487 -0.1565
    2MOL   C304 1266   5.925   4.852   5.509 -0.8612  0.2423 -0.1258
    2MOL   C305 1267   5.923   4.893   5.360  0.0019  0.2022  0.4618
    2MOL   C306 1268   5.791   4.856   5.292  0.4016  0.3381 -0.2494
    2MOL   C307 1269   5.763   4.882   5.144  0.0702 -0.0305  0.0700
    2MOL   C308 1270   5.853   4.800   5.044 -0.4301 -0.4006 -1.0156
    2MOL   O309 1271   5.940   4.858   4.981  0.0567 -0.3136 -0.4280
    2MOL   H310 1272   6.500   4.100   4.541 -2.5056 -3.2256  2.0992
    2MOL   H311 1273   6.625   3.975   4.525 -0.8418 -0.3872  0.2391
    2MOL   H312 1274   6.679   4.040   4.770 -0.7541  1.9695  0.8518
    2MOL   H313 1275   6.525   3.944   4.753 -3.3168  2.0766 -0.4153
    2MOL   H314 1276   6.544   4.243   4.797 -1.9531  1.9317  1.3827
    2MOL   H315 1277   6.396   4.168   4.745  0.7263 -0.0362 -1.7032
    2MOL   H316 1278   6.529   4.087   5.010 -0.3621  2.7090  0.3768
    2MOL   H317 1279   6.377   4.030   4.943  0.3582 -1.0088 -0.3731
    2MOL   H318 1280   6.307   4.294   4.943  1.1927  0.7438 -0.2016
    2MOL   H319 1281   6.446   4.318   5.029 -0.4938  0.4338 -1.4332
    2MOL   H320 1282   6.337   4.158   5.205  0.2094  1.1303  1.0989
    2MOL   H321 1283   6.202   4.153   5.107 -1.8936  2.1505  2.1993
    2MOL   H322 1284   6.167   4.398   5.085 -1.7699 -1.3746  0.9439
    2MOL   H323 1285   6.298   4.405   5.213 -0.6533  3.0951 -1.8385
    2MOL   H324 1286   6.154   4.276   5.358  0.3812 -1.3537 -1.1137
    2MOL   H325 1287   6.016   4.283   5.238 -0.4780 -1.2007  1.4559
    2MOL   H326 1288   6.159   4.521   5.357 -0.6529  0.6319  0.3388
    2MOL   H327 1289   6.018   4.533   5.247 -0.0819  1.9027  0.3987
    2MOL   H328 1290   6.022   4.444   5.531  1.2446 -0.8805 -0.8092
    2MOL   H329 1291   5.873   4.426   5.427  0.0220  0.4525  0.8109
    2MOL   H330 1292   5.829   4.854   5.560 -0.1491 -0.0387  1.2646
    2MOL   H331 1293   5.984   4.917   5.574 -0.1505  0.3012 -0.8171
    2MOL   H332 1294   6.007   4.856   5.301  0.3418  0.6856  0.6305
    2MOL   H333 1295   5.931   5.002   5.359 -0.9856  0.2702 -0.0650
    2MOL   H334 1296   5.717   4.908   5.353 -0.6644 -1.1190 -0.2576
    2MOL   H335 1297   5.770   4.751   5.313  1.4060  0.1230 -0.3197
    2MOL   H336 1298   5.780   4.988   5.121  0.4077 -0.0331  0.3129
    2MOL   H337 1299   5.661   4.858   5.116 -0.1690  3.0956 -1.9861
    2MOL   O338 1300   5.826   4.673   5.034  0.2990  0.3385 -0.2184
    2MOL   C339 1301   5.897   4.588   4.942  0.2843  0.7090  0.1920
    2MOL   C340 1302   5.884   4.437   4.976  0.4443 -0.7773  0.1338
    2MOL   C341 1303   5.964   4.372   4.862  0.7699  0.0600 -0.1785
    2MOL   C342 1304   5.963   4.212   4.874 -0.0952 -0.0088  0.1091
    2MOL   C343 1305   6.054   4.147   4.771  0.0526  0.1848  0.1080
    2MOL   C344 1306   6.060   4.003   4.798 -0.3913  0.3612  0.9122
    2MOL   C345 1307   6.160   3.923   4.705 -0.0070  0.4585 -0.0812
    2MOL   C346 1308   6.122   3.776   4.697  0.1799 -1.0156 -1.3756
    2MOL   C347 1309   6.231   3.691   4.630  0.1539 -0.0566 -0.6234
    2MOL   C348 1310   6.181   3.554   4.603 -0.3682 -0.3823  0.2844
    2MOL   O349 1311   6.283   3.496   4.524 -0.2151 -0.2275 -0.5097
    2MOL   C350 1312   6.314   3.361   4.532  0.3225 -0.5074  0.0586
    2MOL   O351 1313   6.261   3.280   4.610 -0.2661 -0.5514  0.0926
    2MOL   C352 1314   6.423   3.309   4.440 -0.6105  0.0833  0.2202
    2MOL   C353 1315   6.535   3.232   4.517 -0.9544  0.2472  0.1594
    2MOL   C354 1316   6.660   3.221   4.436  0.2842  0.0446  0.2857
    2MOL   C355 1317   6.789   3.234   4.516  0.1543  0.3131  0.4277
    2MOL   C356 1318   6.824   3.372   4.542  0.0973 -0.1839  0.7466
    2MOL   O357 1319   6.895   3.444   4.470 -0.0437 -0.6855  0.0207
    2MOL   H358 1320   5.852   4.597   4.843  0.7359 -1.5931 -0.2530
    2MOL   H359 1321   6.000   4.621   4.945  0.3338  0.5564  0.1752
    2MOL   H360 1322   5.780   4.407   4.972  0.7553 -2.1015  1.5047
    2MOL   H361 1323   5.914   4.422   5.080 -2.5166 -0.6148  1.0398
    2MOL   H362 1324   5.933   4.402   4.761  2.0722 -1.2371 -0.9772
    2MOL   H363 1325   6.066   4.408   4.864  1.3595 -1.5094 -0.9255
    2MOL   H364 1326   5.862   4.170   4.877 -1.0145  2.1360  0.3738
    2MOL   H365 1327   6.003   4.181   4.970 -0.7230  0.0980  0.4106
    2MOL   H366 1328   6.149   4.200   4.772  0.8150 -1.1559 -0.5460
    2MOL   H367 1329   6.018   4.166   4.670 -0.4790 -1.5155 -0.0319
    2MOL   H368 1330   5.958   3.966   4.784  0.2108 -0.5038 -1.4496
    2MOL   H369 1331   6.086   3.979   4.901  2.9567  2.1730  0.5621
    2MOL   H370 1332   6.261   3.932   4.745  0.1081  0.8145 -0.4486
    2MOL   H371 1333   6.160   3.967   4.605  1.9877  1.1349  0.1931
    2MOL   H372 1334   6.026   3.768   4.645 -0.5780 -0.2493 -0.1246
    2MOL   H373 1335   6.108   3.716   4.786  0.2161 -0.1221 -0.7590
    2MOL   H374 1336   6.278   3.740   4.545  0.0181  0.2707 -0.5105
    2MOL   H375 1337   6.304   3.676   4.710 -0.1841  1.5273 -0.0092
    2MOL   H376 1338   6.090   3.565   4.544 -0.2144  0.2195  0.1550
    2MOL   H377 1339   6.157   3.506   4.698 -2.0992 -1.3913 -0.6387
    2MOL   H378 1340   6.372   3.236   4.377 -2.6889  0.9645  0.8262
    2MOL   H379 1341   6.464   3.387   4.376 -0.3361  1.1611  1.6946
    2MOL   H380 1342   6.491   3.139   4.554 -1.2190  0.3439  0.0918
    2MOL   H381 1343   6.550   3.285   4.611  0.0375  1.3037 -0.5826
    2MOL   H382 1344   6.672   3.306   4.368 -1.6617  1.0143  1.1229
    2MOL   H383 1345   6.662   3.134   4.370 -2.3281 -0.7752  1.2165
    2MOL   H384 1346   6.870   3.196   4.454 -1.2191 -1.7047 -0.1883
    2MOL   H385 1347   6.778   3.176   4.608  0.0926  1.0454  0.8821
    2MOL   O386 1348   6.768   3.410   4.649  0.3212  0.0525  0.0920
    2MOL   C387 1349   6.761   3.544   4.697 -0.3477 -0.4423  0.1747
    2MOL   C388 1350   6.662   3.564   4.816 -0.8650  0.7066  0.5531
    2MOL   C389 1351   6.689   3.710   4.869 -0.0955 -0.3455 -0.3190
    2MOL   C390 1352   6.613   3.734   4.994  0.0312 -0.5641 -0.2815
    2MOL   C391 1353   6.466   3.732   4.974 -0.6793  0.7715 -0.2419
    2MOL   C392 1354   6.390   3.781   5.093 -0.0884 -0.2460 -0.2356
    2MOL   C393 1355   6.237   3.756   5.069 -0.5232  0.0865 -0.0731
    2MOL   C394 1356   6.155   3.817   5.185 -1.1754 -0.4772 -0.1851
    2MOL   C395 1357   6.010   3.784   5.175  0.4342 -0.5429  0.3338
    2MOL   C396 1358   5.920   3.840   5.291  0.0190  0.2276  0.6771
    2MOL   O397 1359   5.782   3.842   5.250 -0.0149 -0.4358 -0.2982
    2MOL   C398 1360   5.727   3.959   5.219  0.7253  0.0671 -0.3317
    2MOL   O399 1361   5.782   4.065   5.229  0.1719  0.2708 -0.0372
    2MOL   C400 1362   5.572   3.944   5.183  0.4605  0.3520  0.5846
    2MOL   C401 1363   5.475   3.897   5.293  0.1991 -0.1367  0.3638
    2MOL   C402 1364   5.484   3.743   5.337  0.5326 -0.7156  0.3789
    2MOL   C403 1365   5.427   3.706   5.474  0.2393  0.6131  0.0786
    2MOL   C404 1366   5.375   3.561   5.475  0.4713  0.0896 -0.4364
    2MOL   O405 1367   5.424   3.475   5.549 -0.1433 -0.0843  0.5203
    2MOL   H406 1368   6.863   3.568   4.728 -0.1736 -1.8746  0.7952
    2MOL   H407 1369   6.741   3.615   4.617  1.1852 -1.4459 -1.1450
    2MOL   H408 1370   6.675   3.491   4.896 -0.9132 -1.4838 -1.3783
    2MOL   H409 1371   6.560   3.548   4.780 -1.1825  2.3416  0.6745
    2MOL   H410 1372   6.790   3.734   4.902 -0.3469  0.0886  0.1498
    2MOL   H411 1373   6.657   3.766   4.781  0.5278  0.7419  0.1307
    2MOL   H412 1374   6.639   3.828   5.042  0.7350 -0.2236 -1.3192
    2MOL   H413 1375   6.641   3.657   5.066 -1.2471 -0.2006  0.6242
    2MOL   H414 1376   6.436   3.630   4.952  4.0398 -0.5259 -1.2908
    2MOL   H415 1377   6.436   3.797   4.892 -2.1602 -0.6381 -0.8457
    2MOL   H416 1378   6.401   3.887   5.117  0.5162 -0.0204 -1.4475
    2MOL   H417 1379   6.424   3.723   5.178 -0.6860  0.3276  0.4019
    2MOL   H418 1380   6.211   3.651   5.079  1.9062 -0.5127  0.3284
    2MOL   H419 1381   6.218   3.790   4.967 -0.1257  2.0880  0.4924
    2MOL   H420 1382   6.170   3.925   5.187 -0.1489 -0.6273  1.3250
    2MOL   H421 1383   6.199   3.781   5.278  1.5708  0.5936 -1.0059
    2MOL   H422 1384   5.979   3.826   5.079  0.7917 -1.3487 -0.1443
    2MOL   H423 1385   6.000   3.676   5.168 -0.8150 -0.4824  1.0718
    2MOL   H424 1386   5.951   3.942   5.314  0.1334  0.3984 -0.2435
    2MOL   H425 1387   5.938   3.777   5.378 -0.9173 -1.4853 -0.3520
    2MOL   H426 1388   5.539   4.035   5.131  1.2589 -0.9372 -2.2722
    2MOL   H427 1389   5.577   3.860   5.114  1.1761  1.2330 -0.4529
    2MOL   H428 1390   5.378   3.938   5.262  1.7970  2.1703 -1.7244
    2MOL   H429 1391   5.488   3.958   5.382 -2.2491 -0.0885  0.7230
    2MOL   H430 1392   5.582   3.699   5.353  0.3827 -1.5513 -0.8911
    2MOL   H431 1393   5.453   3.681   5.252  0.7198  1.8463 -1.6417
    2MOL   H432 1394   5.343   3.769   5.505 -0.5834  0.8487 -2.4870
    2MOL   H433 1395   5.511   3.721   5.541 -0.2459 -0.0330  0.8389
    2MOL   O434 1396   5.263   3.543   5.401  0.0820  0.1484  0.0925
    2MOL   C435 1397   5.214   3.410   5.370 -0.2188  0.4032  0.0956
    2MOL   C436 1398   5.293   3.351   5.251 -0.0381 -0.3199  0.0784
    2MOL   C437 1399   5.290   3.430   5.122 -0.5159  0.3020  0.3180
    2MOL   C438 1400   5.333   3.333   5.003 -0.5444 -0.1658  0.3101
    2MOL   C439 1401   5.297   3.389   4.861 -0.2677 -0.1628  0.0065
    2MOL   C440 1402   5.275   3.279   4.755 -0.2735 -0.0706 -1.0349
    2MOL   C441 1403   5.315   3.333   4.612 -0.5840  0.3060 -0.1662
    2MOL   C442 1404   5.200   3.422   4.564  0.0753 -0.3420 -0.1646
    2MOL   C443 1405   5.208   3.442   4.415 -0.2570 -0.3635  0.1025
    2MOL   C444 1406   5.082   3.512   4.353  0.3486  0.0839 -0.3925
    2MOL   O445 1407   5.088   3.511   4.209 -0.0262  0.1975  0.0252
    2MOL   C446 1408   5.068   3.399   4.145  0.3069 -0.1790  0.0249
    2MOL   O447 1409   5.028   3.296   4.200 -0.5119  0.3607  0.4182
    2MOL   C448 1410   5.105   3.403   3.994  0.3430 -0.4128 -0.6709
    2MOL   C449 1411   5.049   3.277   3.919 -0.3197 -0.6087 -0.5700
    2MOL   C450 1412   5.030   3.289   3.768  0.3139  0.5791 -0.7917
    2MOL   C451 1413   5.159   3.288   3.692 -0.5992 -0.4374 -0.1806
    2MOL   C452 1414   5.141   3.286   3.537 -0.4977 -0.2081 -1.0364
    2MOL   O453 1415   5.032   3.292   3.487  0.3365 -0.4591  0.0895
    2MOL   H454 1416   5.228   3.341   5.453 -2.5538 -0.2745 -0.0339
    2MOL   H455 1417   5.108   3.417   5.347 -0.5161 -4.7534 -0.5719
    2MOL   H456 1418   5.256   3.250   5.234  2.0361 -1.0589 -0.2658
    2MOL   H457 1419   5.397   3.327   5.274  0.5283  0.6530 -1.3781
    2MOL   H458 1420   5.190   3.473   5.109 -0.1653  1.2299  0.6738
    2MOL   H459 1421   5.368   3.505   5.126  0.5523 -0.6285 -1.8863
    2MOL   H460 1422   5.282   3.238   5.020 -0.7186 -0.4024 -1.4257
    2MOL   H461 1423   5.439   3.308   5.009 -0.4811  0.0172 -0.0826
    2MOL   H462 1424   5.362   3.471   4.832 -0.3604  0.2041  0.8165
    2MOL   H463 1425   5.198   3.433   4.875  0.3808  1.0132  1.0687
    2MOL   H464 1426   5.178   3.232   4.765 -1.0735  1.7444  0.0067
    2MOL   H465 1427   5.346   3.198   4.773  0.7439  1.1445  0.5481
    2MOL   H466 1428   5.331   3.248   4.544  0.7453  0.6466 -0.2868
    2MOL   H467 1429   5.410   3.384   4.617  1.2243 -3.0252  1.5145
    2MOL   H468 1430   5.203   3.507   4.632 -0.1851 -0.1138 -0.4333
    2MOL   H469 1431   5.109   3.365   4.584 -1.0345  1.5507  0.3195
    2MOL   H470 1432   5.299   3.494   4.385  0.7194 -0.6200  2.4958
    2MOL   H471 1433   5.222   3.347   4.365  0.0872  0.7509 -1.9854
    2MOL   H472 1434   5.073   3.612   4.395  2.3226  0.3659 -0.5557
    2MOL   H473 1435   4.989   3.461   4.377  0.6953  0.8584  2.8888
    2MOL   H474 1436   5.057   3.489   3.947  0.0072  1.7634  3.4262
    2MOL   H475 1437   5.212   3.412   3.982 -0.0323  1.7601 -2.8043
    2MOL   H476 1438   4.944   3.277   3.951 -0.4085 -1.2180 -0.8529
    2MOL   H477 1439   5.090   3.185   3.960 -0.0705  1.7580  5.0214
    2MOL   H478 1440   4.973   3.377   3.741  0.0514 -0.0019 -2.2041
    2MOL   H479 1441   4.961   3.212   3.733  0.8730 -0.0531 -0.5113
    2MOL   H480 1442   5.224   3.203   3.712  0.0895  0.4610  1.4553
    2MOL   H481 1443   5.212   3.378   3.722 -1.1569 -0.2323  0.2140
    2MOL   O482 1444   5.264   3.278   3.480 -0.5718 -0.5291 -0.5263
    2MOL   C483 1445   5.277   3.266   3.339 -0.1012 -0.7011  0.1860
    2MOL   C484 1446   5.402   3.344   3.291 -0.1500 -0.6568  0.1873
    2MOL   C485 1447   5.416   3.317   3.137 -1.1114  0.9293 -0.5769
    2MOL   C486 1448   5.568   3.334   3.102 -0.0583 -0.0228 -0.2672
    2MOL   C487 1449   5.590   3.324   2.954  0.3804  0.4312  0.4780
    2MOL   C488 1450   5.602   3.174   2.912 -0.2701  0.2817  0.1832
    2MOL   C489 1451   5.550   3.137   2.774  0.1386  0.2719 -0.4077
    2MOL   C490 1452   5.403   3.164   2.747 -1.0846 -0.3215  0.9758
    2MOL   C491 1453   5.312   3.070   2.830 -0.0423 -0.1997  0.1149
    2MOL   C492 1454   5.166   3.101   2.804 -0.3723 -0.1589 -0.3806
    2MOL   O493 1455   5.074   3.035   2.890 -0.1789 -0.3687 -0.0529
    2MOL   C494 1456   5.064   3.074   3.022 -0.3955 -0.0885  0.3594
    2MOL   O495 1457   5.149   3.145   3.081 -0.0061 -0.2083  0.0672
    2MOL   C496 1458   4.946   3.006   3.092 -0.2398  0.1656 -0.9934
    2MOL   C497 1459   4.920   3.046   3.244  0.1583 -0.4749 -0.7422
    2MOL   C498 1460   4.836   2.946   3.328  0.2243 -0.3685 -0.3017
    2MOL   C499 1461   4.758   3.006   3.447 -0.4703 -0.4781  0.1502
    2MOL   C500 1462   4.675   2.901   3.526  0.4728 -0.2240  0.4165
    2MOL   O501 1463   4.646   2.790   3.484 -0.3559 -0.4058 -0.1978
    2MOL   H502 1464   5.281   3.160   3.318  0.9020 -0.8915  1.2973
    2MOL   H503 1465   5.197   3.317   3.285  0.3727  1.4313  1.4470
    2MOL   H504 1466   5.484   3.294   3.343  2.1093  2.4574 -0.2740
    2MOL   H505 1467   5.391   3.451   3.310  0.9337 -0.4149 -0.5486
    2MOL   H506 1468   5.393   3.212   3.118  0.8774  0.3834 -0.0363
    2MOL   H507 1469   5.348   3.384   3.083  0.5957  0.9843 -2.7368
    2MOL   H508 1470   5.635   3.269   3.159  0.2344  0.2895 -0.2546
    2MOL   H509 1471   5.598   3.433   3.137  0.2892 -0.2318  0.0304
    2MOL   H510 1472   5.688   3.363   2.926  0.2363  1.1652  0.9934
    2MOL   H511 1473   5.513   3.382   2.903  0.9840 -0.6830 -1.7596
    2MOL   H512 1474   5.573   3.107   2.993 -0.1282 -1.6276 -1.3276
    2MOL   H513 1475   5.705   3.139   2.909  0.3392  2.0143  0.5789
    2MOL   H514 1476   5.565   3.036   2.737  2.9805  0.4801  0.0550
    2MOL   H515 1477   5.600   3.201   2.701 -1.1189 -0.7111 -2.1438
    2MOL   H516 1478   5.385   3.143   2.641  5.1397  0.5162 -0.4469
    2MOL   H517 1479   5.391   3.271   2.762 -2.1627 -0.0209 -1.7631
    2MOL   H518 1480   5.326   2.963   2.814  2.7015 -0.0790  1.3994
    2MOL   H519 1481   5.324   3.087   2.937 -0.8895  2.0863 -0.1169
    2MOL   H520 1482   5.129   3.076   2.705  0.2645 -1.8415 -0.2122
    2MOL   H521 1483   5.154   3.209   2.805  0.9387  0.0012  0.4880
    2MOL   H522 1484   4.850   3.015   3.041 -1.4208  1.6891  1.4418
    2MOL   H523 1485   4.962   2.898   3.094  3.4950  0.6477 -0.6409
    2MOL   H524 1486   4.866   3.141   3.238 -0.5664 -0.9097 -1.0576
    2MOL   H525 1487   5.009   3.060   3.305 -0.3069  0.6166 -0.3096
    2MOL   H526 1488   4.895   2.861   3.362  0.7517  0.2936  0.4496
    2MOL   H527 1489   4.763   2.911   3.254 -3.4367  4.3074  0.8488
    2MOL   H528 1490   4.691   3.092   3.439  0.6534  0.4961  0.9774
    2MOL   H529 1491   4.838   3.039   3.512  0.6823  0.6712 -1.8014
    2MOL   O530 1492   4.646   2.948   3.647 -0.3110 -0.3783 -0.9783
    2MOL   C531 1493   4.544   2.881   3.720  0.3119  0.2610 -0.5118
    2MOL   C532 1494   4.519   2.966   3.844 -0.1649  0.3296  0.0809
    2MOL   C533 1495   4.643   2.989   3.942  0.3421 -0.7454  0.4327
    2MOL   C534 1496   4.602   3.065   4.072  0.0645 -0.3659 -0.4584
    2MOL   C535 1497   4.724   3.079   4.168 -0.0117 -0.2537  0.3538
    2MOL   C536 1498   4.678   3.088   4.310 -0.6887 -0.4731 -0.4595
    2MOL   C537 1499   4.787   3.143   4.406 -0.4450 -0.4000 -0.1172
    2MOL   C538 1500   4.879   3.035   4.470 -0.0285 -0.3422  0.0222
    2MOL   C539 1501   5.009   3.090   4.525 -0.6741  0.6750  0.1375
    2MOL   C540 1502   5.118   2.982   4.549  0.4479 -0.6482  0.6316
    2MOL   O541 1503   5.070   2.879   4.638 -0.8933 -0.0401 -0.1419
    2MOL   C542 1504   5.069   2.741   4.605 -0.3028 -0.0739  1.0435
    2MOL   O543 1505   5.127   2.695   4.509 -0.0027  0.6389  0.0344
    2MOL   C544 1506   5.003   2.649   4.716  0.0138  0.0540  0.9159
    2MOL   C545 1507   5.093   2.530   4.744 -0.2094  0.3093  0.3971
    2MOL   C546 1508   5.019   2.439   4.847  0.2058  0.5926  0.1766
    2MOL   C547 1509   5.085   2.305   4.892  0.1843 -0.1440  0.3392
    2MOL   C548 1510   5.089   2.201   4.778  0.9538 -0.6599 -0.0137
    2MOL   O549 1511   4.986   2.169   4.721 -0.1486 -0.9488 -0.2637
    2MOL   H550 1512   4.452   2.876   3.661  0.2755  0.9793 -0.5250
    2MOL   H551 1513   4.586   2.783   3.744  0.6740  0.4303 -0.4528
    2MOL   H552 1514   4.433   2.914   3.886  1.1335  0.3356  2.8588
    2MOL   H553 1515   4.482   3.065   3.814 -1.4685 -0.2343 -0.2258
    2MOL   H554 1516   4.701   2.899   3.964  1.6769  0.2664  1.1017
    2MOL   H555 1517   4.703   3.061   3.887  1.5607 -0.6357  1.8696
    2MOL   H556 1518   4.513   3.016   4.114 -2.9151  2.5963 -3.0236
    2MOL   H557 1519   4.568   3.167   4.052 -1.0652 -0.5802  0.2633
    2MOL   H558 1520   4.777   3.166   4.129 -0.9325 -0.0114 -0.3704
    2MOL   H559 1521   4.785   2.990   4.156  2.1156  0.9776  1.7304
    2MOL   H560 1522   4.644   2.990   4.345 -0.2571  0.8362  3.9616
    2MOL   H561 1523   4.601   3.164   4.310  0.1852  0.4474  1.5487
    2MOL   H562 1524   4.741   3.204   4.484  0.1591  0.4947 -0.4457
    2MOL   H563 1525   4.849   3.214   4.352 -0.4599  0.1116  0.5358
    2MOL   H564 1526   4.894   2.960   4.393  1.7048  1.1595 -1.1515
    2MOL   H565 1527   4.821   2.989   4.551 -1.1444  1.5639  0.3376
    2MOL   H566 1528   5.042   3.150   4.440  1.8077  0.9322  1.2479
    2MOL   H567 1529   4.997   3.158   4.609 -2.5406  1.0268 -0.3865
    2MOL   H568 1530   5.209   3.026   4.588 -0.0901  0.4029  0.7327
    2MOL   H569 1531   5.131   2.937   4.451 -0.0797  2.0243 -0.7070
    2MOL   H570 1532   5.003   2.722   4.797 -0.5853  0.2730  0.7153
    2MOL   H571 1533   4.902   2.617   4.691 -0.4736  1.5754  0.9354
    2MOL   H572 1534   5.189   2.568   4.776 -0.2268  1.2098 -0.5969
    2MOL   H573 1535   5.113   2.472   4.653 -0.5764 -0.3724  0.7437
    2MOL   H574 1536   4.920   2.413   4.809  1.0984  1.0159 -2.5452
    2MOL   H575 1537   4.999   2.492   4.940  2.7409  0.7233  0.6839
    2MOL   H576 1538   5.021   2.266   4.972 -0.1170  0.3289  0.3302
    2MOL   H577 1539   5.178   2.333   4.940  0.1969  1.3017 -0.5056
    2MOL   O578 1540   5.203   2.164   4.752  0.2695 -0.8743  0.3207
    2MOL   C579 1541   5.222   2.082   4.639 -0.0872 -0.0918  0.2237
    2MOL   C580 1542   5.371   2.059   4.631 -0.2019 -0.0229 -0.1501
    2MOL   C581 1543   5.399   1.968   4.508 -0.1764 -0.1239  0.0709
    2MOL   C582 1544   5.550   1.959   4.461 -0.3596  0.0902 -0.7724
    2MOL   C583 1545   5.646   1.915   4.574  0.2127  0.0430  0.4914
    2MOL   C584 1546   5.793   1.954   4.549 -0.0918  0.1598 -0.3237
    2MOL   C585 1547   5.878   1.907   4.669  0.1734 -0.6247 -0.3627
    2MOL   C586 1548   6.029   1.950   4.640 -0.2451 -0.4473 -0.0012
    2MOL   C587 1549   6.137   1.898   4.733 -1.0076  0.1233  0.0932
    2MOL   C588 1550   6.204   1.766   4.691  0.1140  0.1398 -0.1078
    2MOL   O589 1551   6.116   1.656   4.708 -0.1787  0.1638  0.1057
    2MOL   C590 1552   6.160   1.525   4.710 -0.1402 -0.5167 -0.5079
    2MOL   O591 1553   6.276   1.491   4.703 -0.1045 -0.5260  0.3307
    2MOL   C592 1554   6.046   1.421   4.725  0.1879 -0.2542  0.4407
    2MOL   C593 1555   5.954   1.408   4.604 -0.3685 -0.4970  0.2240
    2MOL   C594 1556   5.827   1.323   4.622 -0.0364  0.2366 -0.5745
    2MOL   C595 1557   5.749   1.346   4.751  0.4371  0.1384  0.0589
    2MOL   C596 1558   5.700   1.491   4.769  0.4310  0.3113 -0.3618
    2MOL   O597 1559   5.710   1.571   4.677 -0.0064 -0.0382 -0.1414
    2MOL   H598 1560   5.165   1.990   4.649 -0.6829  0.4347  1.9281
    2MOL   H599 1561   5.192   2.143   4.554  1.6575 -0.2747 -0.5527
    2MOL   H600 1562   5.412   2.011   4.720  0.3958  0.0057 -0.4036
    2MOL   H601 1563   5.426   2.152   4.617 -0.7921  0.0139 -2.3725
    2MOL   H602 1564   5.364   1.865   4.514 -0.7407 -0.3635 -5.0253
    2MOL   H603 1565   5.335   2.008   4.429 -0.6738  0.2105  0.6446
    2MOL   H604 1566   5.588   2.059   4.443 -0.2070  0.2333  0.3143
    2MOL   H605 1567   5.545   1.887   4.380 -1.0213 -0.2237 -0.4618
    2MOL   H606 1568   5.623   1.811   4.599  0.1848  0.3455  1.7504
    2MOL   H607 1569   5.621   1.957   4.671 -2.0564 -1.8502  0.7691
    2MOL   H608 1570   5.807   2.062   4.550 -2.3765  0.4801  1.0894
    2MOL   H609 1571   5.837   1.919   4.456 -3.0706  0.3104 -1.8606
    2MOL   H610 1572   5.880   1.798   4.678  1.2393 -0.4802  1.5108
    2MOL   H611 1573   5.831   1.941   4.761 -0.7344 -2.3144 -0.1887
    2MOL   H612 1574   6.024   2.059   4.643 -1.0563 -0.5278  2.4100
    2MOL   H613 1575   6.054   1.923   4.537 -1.8422 -1.5028 -0.1455
    2MOL   H614 1576   6.224   1.963   4.733 -0.4642 -0.5991  0.3108
    2MOL   H615 1577   6.095   1.893   4.834 -0.0009  0.9258  0.5524
    2MOL   H616 1578   6.287   1.755   4.761 -0.4286  0.0051  0.5249
    2MOL   H617 1579   6.248   1.767   4.592  0.2228 -0.5825 -0.0677
    2MOL   H618 1580   6.087   1.329   4.765 -3.1141 -1.1519  1.9499
    2MOL   H619 1581   5.992   1.450   4.815  0.4215 -0.5840  0.6848
    2MOL   H620 1582   6.009   1.374   4.516  0.5708  0.5309  0.4123
    2MOL   H621 1583   5.923   1.509   4.576  1.6090 -0.0573 -0.4420
    2MOL   H622 1584   5.850   1.217   4.613  2.1052  0.6417 -0.2544
    2MOL   H623 1585   5.757   1.342   4.541 -0.8343 -0.9597 -0.1724
    2MOL   H624 1586   5.818   1.328   4.834  0.6559  0.6633 -0.0067
    2MOL   H625 1587   5.665   1.278   4.762 -1.5652  2.5525 -0.0444
    2MOL   O626 1588   5.657   1.513   4.890  0.5145  0.1227 -0.0324
    2MOL   C627 1589   5.609   1.638   4.926 -0.2861 -0.9911 -0.3183
    2MOL   C628 1590   5.722   1.723   4.989 -0.3963 -0.2767 -0.2863
    2MOL   C629 1591   5.666   1.838   5.070  0.9371  0.8414 -0.3475
    2MOL   C630 1592   5.594   1.953   4.993 -0.4503  0.0876  0.4045
    2MOL   C631 1593   5.529   2.043   5.091 -0.0110  0.5297  0.6512
    2MOL   C632 1594   5.458   2.166   5.026 -0.0113 -0.7024  0.7154
    2MOL   C633 1595   5.539   2.271   4.947  0.4219 -0.5825  0.0820
    2MOL   C634 1596   5.454   2.385   4.877  0.0868 -0.0754 -0.4524
    2MOL   C635 1597   5.547   2.485   4.821  0.5786 -0.5726 -0.4780
    2MOL   C636 1598   5.486   2.628   4.780  0.1565  0.1315  0.1456
    2MOL   O637 1599   5.451   2.696   4.902  0.0021  0.2896  0.0178
    2MOL   C638 1600   5.434   2.823   4.892  1.2409  0.8288 -0.2782
    2MOL   O639 1601   5.452   2.901   4.798 -0.6748  0.4146 -0.3207
    2MOL   C640 1602   5.386   2.875   5.026 -0.1008  0.3555  0.1746
    2MOL   C641 1603   5.241   2.828   5.064 -0.4772 -0.3496  0.1340
    2MOL   C642 1604   5.129   2.896   4.978 -0.4965  0.3197  0.7397
    2MOL   C643 1605   4.979   2.884   5.010 -0.3826 -0.1426 -0.4580
    2MOL   C644 1606   4.893   2.979   4.935 -0.2336  0.6983  1.0923
    2MOL   O645 1607   4.808   2.941   4.857  0.3483  0.0101 -0.3016
    2MOL   H646 1608   5.563   1.696   4.846 -2.5447 -2.2946 -0.0096
    2MOL   H647 1609   5.539   1.618   5.007  0.7535  1.3129  1.1840
    2MOL   H648 1610   5.794   1.760   4.916 -0.7921 -1.2537 -1.1868
    2MOL   H649 1611   5.782   1.664   5.059  0.3995 -0.2323 -0.9180
    2MOL   H650 1612   5.596   1.795   5.141 -0.5181  0.6329 -1.8801
    2MOL   H651 1613   5.747   1.866   5.137  1.9234 -2.8681  0.1187
    2MOL   H652 1614   5.526   1.900   4.927  0.2473 -0.9010  0.4718
    2MOL   H653 1615   5.656   2.014   4.926 -1.4481 -0.5965 -1.1861
    2MOL   H654 1616   5.599   2.073   5.169  0.5978 -0.8592  0.6594
    2MOL   H655 1617   5.443   1.995   5.139 -0.1645  0.6088  0.4569
    2MOL   H656 1618   5.399   2.215   5.103  1.7153  0.9175  1.0545
    2MOL   H657 1619   5.396   2.126   4.947 -0.7669  0.6310  0.6187
    2MOL   H658 1620   5.589   2.219   4.865 -0.6774 -0.5948 -0.5845
    2MOL   H659 1621   5.622   2.306   5.008  1.0557 -1.4860 -0.2361
    2MOL   H660 1622   5.389   2.440   4.945  1.7047  1.7402 -0.3236
    2MOL   H661 1623   5.389   2.357   4.794 -0.6336  0.9532 -0.2539
    2MOL   H662 1624   5.635   2.506   4.882  1.2900 -0.2679 -1.6014
    2MOL   H663 1625   5.574   2.444   4.724  0.3667 -0.2571 -0.6700
    2MOL   H664 1626   5.403   2.601   4.715 -0.1091 -0.8168  0.8570
    2MOL   H665 1627   5.559   2.683   4.721 -1.6883  0.2563 -2.0818
    2MOL   H666 1628   5.454   2.851   5.108  0.8933  0.2514 -0.6620
    2MOL   H667 1629   5.391   2.984   5.024  3.2852  0.2625  0.0425
    2MOL   H668 1630   5.222   2.853   5.168 -1.5326  3.4919 -0.9078
    2MOL   H669 1631   5.234   2.720   5.050 -2.5567  0.0228 -1.9594
    2MOL   H670 1632   5.137   2.856   4.876 -0.5663  2.2643 -0.0510
    2MOL   H671 1633   5.150   3.003   4.973 -1.4025  0.4108 -2.6320
    2MOL   H672 1634   4.970   2.920   5.112 -0.5364  0.8821 -0.8295
    2MOL   H673 1635   4.947   2.780   5.002 -1.4363  0.2389 -1.2783
    2MOL   O674 1636   4.920   3.108   4.959 -0.3429 -0.2623  0.0704
    2MOL   C675 1637   4.847   3.213   4.898  0.4114  1.0804 -0.4387
    2MOL   C676 1638   4.887   3.345   4.960 -0.2991 -0.1366 -0.5298
    2MOL   C677 1639   4.861   3.355   5.104  0.1307 -0.0435 -0.0166
    2MOL   C678 1640   4.836   3.507   5.145 -0.2788  0.6586  0.2186
    2MOL   C679 1641   4.828   3.543   5.295  0.5647  0.6544 -0.1883
    2MOL   C680 1642   4.730   3.471   5.387 -0.3500  0.2204 -0.1304
    2MOL   C681 1643   4.718   3.558   5.513  0.5893 -0.2777  0.5994
    2MOL   C682 1644   4.618   3.511   5.616 -0.3314  0.1358  0.1572
    2MOL   C683 1645   4.672   3.548   5.753  0.4383 -0.0524  0.3660
    2MOL   C684 1646   4.597   3.477   5.870 -0.6871  0.0295 -0.0471
    2MOL   O685 1647   4.453   3.479   5.843 -0.1154 -0.1948 -0.2328
    2MOL   C686 1648   4.369   3.459   5.943 -0.0539  0.4412  0.8217
    2MOL   O687 1649   4.403   3.423   6.056  0.0659  0.8700 -0.4651
    2MOL   C688 1650   4.219   3.489   5.914 -0.2809  0.2226 -0.6407
    2MOL   C689 1651   4.124   3.366   5.906  0.5813 -0.1300 -0.3648
    2MOL   C690 1652   3.981   3.411   5.884 -0.2825  0.4459 -0.4618
    2MOL   C691 1653   3.955   3.462   5.740 -0.3355  0.5150  1.2593
    2MOL   C692 1654   3.804   3.499   5.723  0.3276  0.6166  0.3383
    2MOL   O693 1655   3.721   3.480   5.809  0.4400 -0.0505 -0.2543
    2MOL   H694 1656   4.865   3.220   4.791  0.3607  0.9231 -0.4587
    2MOL   H695 1657   4.740   3.198   4.912  0.3639  1.0677 -0.8140
    2MOL   H696 1658   4.824   3.417   4.906 -1.4711 -0.1710  0.7790
    2MOL   H697 1659   4.991   3.368   4.935  0.3866 -1.8954  0.6230
    2MOL   H698 1660   4.771   3.296   5.126  0.0908  1.0074  2.8400
    2MOL   H699 1661   4.944   3.329   5.170  0.0207  0.4364  0.3162
    2MOL   H700 1662   4.748   3.548   5.094 -0.5313  0.9258  0.8658
    2MOL   H701 1663   4.926   3.553   5.104  1.2555 -1.8006  0.7848
    2MOL   H702 1664   4.808   3.650   5.296 -1.1433  0.3514  0.5352
    2MOL   H703 1665   4.929   3.523   5.331  0.1575 -0.4193  0.3845
    2MOL   H704 1666   4.761   3.369   5.406 -0.2311  0.2455 -0.1904
    2MOL   H705 1667   4.627   3.486   5.353 -1.2453 -2.0372  1.4624
    2MOL   H706 1668   4.688   3.660   5.491  1.7397  0.1261  0.8628
    2MOL   H707 1669   4.815   3.577   5.560  0.9813  0.5298 -0.5118
    2MOL   H708 1670   4.605   3.403   5.608  0.4780 -0.1297  2.2107
    2MOL   H709 1671   4.514   3.538   5.597 -0.3477  0.0651  0.1458
    2MOL   H710 1672   4.775   3.515   5.771  0.7841  1.1022  0.5147
    2MOL   H711 1673   4.666   3.656   5.766 -1.5561 -0.0887 -0.2243
    2MOL   H712 1674   4.623   3.535   5.958  0.0287  2.4771 -1.8329
    2MOL   H713 1675   4.637   3.378   5.891 -1.5155 -0.4805 -0.8199
    2MOL   H714 1676   4.183   3.548   5.998 -1.5054 -0.7492 -0.4616
    2MOL   H715 1677   4.209   3.557   5.830 -0.7441 -0.4068 -1.1009
    2MOL   H716 1678   4.130   3.311   5.999  0.4025  0.1817 -0.1694
    2MOL   H717 1679   4.146   3.300   5.822 -1.6452 -0.7489 -0.4929
    2MOL   H718 1680   3.941   3.483   5.955 -1.5730  0.3027 -1.0386
    2MOL   H719 1681   3.915   3.325   5.895 -1.9566  1.7566 -0.1073
    2MOL   H720 1682   3.991   3.390   5.666  1.0247  1.6689  0.7672
    2MOL   H721 1683   4.006   3.557   5.724  1.2723 -0.4348  0.7231
    2MOL   O722 1684   3.770   3.537   5.591  0.3830 -0.1005  0.3140
    2MOL   C723 1685   3.631   3.532   5.552 -0.4094  0.1487 -0.4703
    2MOL   C724 1686   3.619   3.554   5.402 -0.0846 -0.4044 -0.4663
    2MOL   C725 1687   3.476   3.529   5.355  0.1280  0.3362  0.0753
    2MOL   C726 1688   3.463   3.555   5.205  0.6010  0.3026 -0.0385
    2MOL   C727 1689   3.512   3.429   5.129  0.0567  0.5539  1.1604
    2MOL   C728 1690   3.577   3.462   4.992  0.2285  0.1137 -0.4666
    2MOL   C729 1691   3.595   3.353   4.893  0.4509  0.1106  0.4677
    2MOL   C730 1692   3.661   3.399   4.764 -0.0395  1.0212  0.2470
    2MOL   C731 1693   3.673   3.295   4.654  0.1078 -0.1223 -0.4535
    2MOL   C732 1694   3.760   3.336   4.535  0.0496  0.6002  0.2494
    2MOL   O733 1695   3.892   3.360   4.571  0.0656  0.0141 -0.3810
    2MOL   C734 1696   3.969   3.446   4.498  0.3591  0.1895 -0.7578
    2MOL   O735 1697   3.943   3.489   4.387  0.4756 -0.0303  0.6572
    2MOL   C736 1698   4.101   3.483   4.570 -0.1293  0.2837  0.1905
    2MOL   C737 1699   4.077   3.519   4.717  0.0514  0.9345 -0.5706
    2MOL   C738 1700   3.985   3.648   4.729  0.1250  0.2128 -0.0005
    2MOL   C739 1701   3.949   3.675   4.867  0.4093  0.4596 -0.6710
    2MOL   C740 1702   4.056   3.747   4.949  0.4103  0.1736 -0.3859
    2MOL   O741 1703   4.136   3.679   5.015  0.5764 -0.0353  0.3610
    2MOL   H742 1704   3.590   3.433   5.572  0.8552  0.0435  1.7682
    2MOL   H743 1705   3.576   3.611   5.602 -0.4203  0.7837 -1.4581
    2MOL   H744 1706   3.689   3.490   5.348  0.8011  0.5597 -0.4772
    2MOL   H745 1707   3.652   3.654   5.375 -0.0181  0.1060  1.3959
    2MOL   H746 1708   3.447   3.425   5.369  4.5775 -0.9908  0.2374
    2MOL   H747 1709   3.405   3.595   5.405  0.6241 -0.4051  1.7623
    2MOL   H748 1710   3.522   3.639   5.170  0.0596  1.1912  1.1471
    2MOL   H749 1711   3.361   3.580   5.175  0.3608 -1.7582 -1.0694
    2MOL   H750 1712   3.424   3.368   5.111  0.1907  0.6028  0.3076
    2MOL   H751 1713   3.582   3.370   5.188 -0.2199 -1.8207 -0.7737
    2MOL   H752 1714   3.676   3.502   5.009  0.5745 -0.0462 -2.0362
    2MOL   H753 1715   3.521   3.549   4.958  0.2584 -0.0714 -0.9881
    2MOL   H754 1716   3.492   3.322   4.873  0.4326 -0.8380  1.9837
    2MOL   H755 1717   3.639   3.263   4.937 -1.3642 -1.1011 -0.1456
    2MOL   H756 1718   3.764   3.427   4.783  0.1045  0.8002 -0.2059
    2MOL   H757 1719   3.608   3.482   4.716 -0.6407 -0.5619 -1.9075
    2MOL   H758 1720   3.707   3.199   4.693 -0.0582  0.1105  0.2626
    2MOL   H759 1721   3.575   3.259   4.623  0.4301 -1.5655  0.1382
    2MOL   H760 1722   3.719   3.428   4.492  0.5816  1.0422  0.6959
    2MOL   H761 1723   3.756   3.278   4.443 -0.8634  0.3806  0.4231
    2MOL   H762 1724   4.168   3.398   4.558 -1.0865 -0.6941  1.5645
    2MOL   H763 1725   4.154   3.559   4.514 -0.6225  2.3621  2.4557
    2MOL   H764 1726   4.168   3.514   4.776  0.4413  0.3168 -1.2081
    2MOL   H765 1727   4.015   3.443   4.763  1.2234 -0.0743 -0.6347
    2MOL   H766 1728   3.892   3.636   4.673 -2.1103  0.3824  3.5637
    2MOL   H767 1729   4.037   3.730   4.678  1.3903  0.3640  1.4873
    2MOL   H768 1730   3.905   3.584   4.908  0.2763  0.2744 -1.2220
    2MOL   H769 1731   3.865   3.745   4.866 -0.0012 -0.0123 -3.2195
    2MOL   O770 1732   4.066   3.872   4.937  0.3062 -0.4172 -0.3674
    2MOL   C771 1733   4.150   3.956   5.014 -0.5594  0.4887 -0.1439
    2MOL   C772 1734   4.141   4.099   4.958  0.3531  0.4002 -0.1713
    2MOL   C773 1735   4.001   4.155   4.926 -0.2304 -0.1869  0.0086
    2MOL   C774 1736   3.920   4.182   5.056 -0.3526 -0.4423  0.0257
    2MOL   C775 1737   3.773   4.226   5.021  0.1219 -0.3855 -0.1628
    2MOL   C776 1738   3.697   4.261   5.154  0.6505 -0.5009  0.3113
    2MOL   C777 1739   3.552   4.294   5.136 -0.1268 -0.0357  0.0905
    2MOL   C778 1740   3.493   4.310   5.274  0.0570 -0.0102  0.0296
    2MOL   C779 1741   3.344   4.318   5.265 -0.6427  0.0779  0.1989
    2MOL   C780 1742   3.266   4.315   5.405  0.0110  0.2124  0.0207
    2MOL   O781 1743   3.292   4.436   5.475  0.0761 -0.2012 -0.5169
    2MOL   C782 1744   3.272   4.437   5.607 -0.3894  0.1426 -0.6974
    2MOL   O783 1745   3.245   4.339   5.675 -0.2522  0.5654  1.1988
    2MOL   C784 1746   3.290   4.576   5.680  0.1483 -0.6344  0.4989
    2MOL   C785 1747   3.423   4.639   5.649 -0.0302 -0.7276  0.4075
    2MOL   C786 1748   3.545   4.565   5.715 -0.1960 -0.1494 -0.5454
    2MOL   C787 1749   3.600   4.441   5.641  0.2265 -0.1536  0.4856
    2MOL   C788 1750   3.715   4.380   5.714 -0.1917 -0.0464 -0.5026
    2MOL   O789 1751   3.814   4.448   5.749 -0.0604  0.2281  0.3338
    2MOL   H790 1752   4.115   3.953   5.117 -0.5990 -0.0586 -0.1701
    2MOL   H791 1753   4.248   3.909   5.007 -0.6874  0.0770  0.8028
    2MOL   H792 1754   4.199   4.106   4.866  0.1541  1.0200 -0.2490
    2MOL   H793 1755   4.183   4.177   5.021 -0.1316 -0.1878  0.8799
    2MOL   H794 1756   4.017   4.244   4.865 -1.2660  0.4361  0.6127
    2MOL   H795 1757   3.947   4.077   4.873  0.9616  0.2188 -1.8502
    2MOL   H796 1758   3.971   4.263   5.108  1.6878  0.4468 -3.1857
    2MOL   H797 1759   3.918   4.090   5.113  0.7598 -1.2656 -1.2291
    2MOL   H798 1760   3.730   4.148   4.958 -0.0279  0.6380 -1.3525
    2MOL   H799 1761   3.776   4.315   4.958 -0.3626 -0.7505 -0.7050
    2MOL   H800 1762   3.748   4.334   5.218 -2.2095  1.3082  0.6229
    2MOL   H801 1763   3.691   4.168   5.209 -0.3369  0.5192  1.9799
    2MOL   H802 1764   3.506   4.210   5.084  1.6339  0.1912 -1.8987
    2MOL   H803 1765   3.543   4.386   5.078 -0.7169 -0.6371 -0.7978
    2MOL   H804 1766   3.538   4.390   5.334  1.2228  1.7533 -3.0910
    2MOL   H805 1767   3.515   4.218   5.327  0.3197 -0.5195 -0.9554
    2MOL   H806 1768   3.311   4.394   5.194  1.8143  0.3515 -0.7006
    2MOL   H807 1769   3.308   4.235   5.205  0.3880 -0.6156  0.5312
    2MOL   H808 1770   3.299   4.225   5.456  0.2636  0.3508  0.1049
    2MOL   H809 1771   3.160   4.316   5.382  0.1130 -0.5954 -0.4852
    2MOL   H810 1772   3.213   4.642   5.639  1.9293  2.6426  2.1969
    2MOL   H811 1773   3.260   4.575   5.785 -3.0070 -3.8121 -0.3374
    2MOL   H812 1774   3.432   4.743   5.681  1.1661 -0.7510  0.1803
    2MOL   H813 1775   3.420   4.634   5.540 -1.5881 -1.5520  0.4750
    2MOL   H814 1776   3.514   4.538   5.816  3.4014  1.2296  1.0108
    2MOL   H815 1777   3.625   4.635   5.737  1.0200 -1.9470  0.9235
    2MOL   H816 1778   3.642   4.475   5.547  2.4407 -0.0226  1.5083
    2MOL   H817 1779   3.529   4.359   5.626 -1.9585  1.3667  2.2462
    2MOL   O818 1780   3.692   4.254   5.761 -0.1156  0.3031  0.1489
    2MOL   C819 1781   3.793   4.183   5.831  0.3439 -0.0629 -1.1126
    2MOL   C820 1782   3.816   4.035   5.789 -0.7620  0.0319  0.3901
    2MOL   C821 1783   3.878   4.024   5.647  0.2081  0.4246 -0.2798
    2MOL   C822 1784   3.867   3.886   5.581 -0.1648 -0.5855 -0.4476
    2MOL   C823 1785   3.934   3.897   5.440  0.1032  0.4765  0.4639
    2MOL   C824 1786   3.959   3.771   5.360  0.7240  0.2320 -0.4044
    2MOL   C825 1787   4.074   3.684   5.421 -0.1535  0.0706  0.0101
    2MOL   C826 1788   4.094   3.546   5.363 -0.1365  0.1013  0.6385
    2MOL   C827 1789   4.227   3.475   5.381  0.1899  0.5537  0.2869
    2MOL   C828 1790   4.219   3.385   5.500 -0.4308 -0.7102  0.4000
    2MOL   O829 1791   4.341   3.321   5.520  0.3638  0.2101  0.0400
    2MOL   C830 1792   4.358   3.191   5.463  0.1741 -0.1693 -0.8298
    2MOL   O831 1793   4.272   3.129   5.391  0.0387 -0.0434  0.3641
    2MOL   C832 1794   4.488   3.129   5.511 -0.1882  0.2760  0.6905
    2MOL   C833 1795   4.468   3.029   5.632  0.0191  0.0705 -0.5202
    2MOL   C834 1796   4.477   3.089   5.776  0.2278 -0.0477 -0.3792
    2MOL   C835 1797   4.479   2.983   5.886  0.3052  0.0419 -0.7177
    2MOL   C836 1798   4.345   2.930   5.930  0.2770 -0.9251 -0.1288
    2MOL   O837 1799   4.323   2.815   5.938  0.7090  0.4315  0.0215
    2MOL   H838 1800   3.891   4.230   5.828 -0.0587  0.6700 -3.1729
    2MOL   H839 1801   3.765   4.187   5.937  1.6525  0.9680 -0.7970
    2MOL   H840 1802   3.718   3.987   5.790 -1.6198  1.7576  0.6185
    2MOL   H841 1803   3.890   3.993   5.858  0.1079  3.7464  1.8188
    2MOL   H842 1804   3.829   4.092   5.577 -3.4425 -2.9761 -1.2118
    2MOL   H843 1805   3.982   4.056   5.654  0.6899 -1.4283  1.4146
    2MOL   H844 1806   3.762   3.860   5.590 -0.0341 -1.7281 -1.9228
    2MOL   H845 1807   3.926   3.809   5.631 -0.0086  0.3661  0.8331
    2MOL   H846 1808   4.029   3.951   5.439  0.1776  0.3211 -1.0668
    2MOL   H847 1809   3.867   3.959   5.381 -0.0103 -0.8358 -0.8172
    2MOL   H848 1810   3.986   3.809   5.261 -1.3511 -0.8820 -1.4273
    2MOL   H849 1811   3.864   3.720   5.343  0.5048  0.3496  0.4413
    2MOL   H850 1812   4.061   3.664   5.527  3.2202 -1.0514  0.2823
    2MOL   H851 1813   4.164   3.745   5.424  0.3784 -0.7673  1.2310
    2MOL   H852 1814   4.082   3.565   5.256  0.4393  0.8404  0.7064
    2MOL   H853 1815   4.011   3.478   5.381  0.9139 -1.3630  0.0389
    2MOL   H854 1816   4.247   3.403   5.302  1.8392 -2.4476  3.2945
    2MOL   H855 1817   4.306   3.547   5.404 -1.1423  1.6501  1.5894
    2MOL   H856 1818   4.136   3.316   5.488 -1.7463  0.9899 -0.6372
    2MOL   H857 1819   4.201   3.457   5.580  2.1683  2.3918 -1.6164
    2MOL   H858 1820   4.529   3.066   5.432 -0.4927 -1.6372  2.0259
    2MOL   H859 1821   4.547   3.216   5.540 -1.3738  1.3103  0.0994
    2MOL   H860 1822   4.542   2.949   5.624  0.3985  0.2186  1.3253
    2MOL   H861 1823   4.371   2.981   5.616  0.1441 -0.1575 -0.5976
    2MOL   H862 1824   4.392   3.155   5.792 -1.5241 -2.2951 -0.1645
    2MOL   H863 1825   4.569   3.146   5.788  2.2468 -3.5790  1.8739
    2MOL   H864 1826   4.528   3.027   5.973  1.4490 -1.6216 -0.4829
    2MOL   H865 1827   4.551   2.908   5.851  0.2179 -0.0663 -0.6673
    2MOL   O866 1828   4.257   3.030   5.966 -0.0052 -0.1071  0.2300
    2MOL   C867 1829   4.138   2.985   6.028 -0.3868  0.0772  0.7929
    2MOL   C868 1830   4.161   2.980   6.177  0.1429 -0.6650 -0.1605
    2MOL   C869 1831   4.034   2.929   6.244 -0.5296 -0.3041 -0.7848
    2MOL   C870 1832   4.058   2.893   6.392 -0.4785 -0.4741  0.7859
    2MOL   C871 1833   3.933   2.840   6.457  0.4621  0.1197 -0.3838
    2MOL   C872 1834   3.880   2.702   6.407  0.1523 -0.2789 -0.2393
    2MOL   C873 1835   3.756   2.661   6.488 -0.0554 -0.4854 -0.3222
    2MOL   C874 1836   3.665   2.553   6.428 -0.3896 -0.1650  0.1752
    2MOL   C875 1837   3.520   2.528   6.475 -0.2103 -0.5297  0.7769
    2MOL   C876 1838   3.434   2.425   6.394 -0.5791  0.5110  0.2307
    2MOL   O877 1839   3.300   2.404   6.443 -0.3163 -0.3587  0.4049
    2MOL   C878 1840   3.243   2.284   6.442  0.3154  0.1000  0.1405
    2MOL   O879 1841   3.305   2.183   6.413  0.2181  0.2030 -0.0394
    2MOL   C880 1842   3.089   2.279   6.478  0.2136  0.1496  0.2404
    2MOL   C881 1843   3.017   2.145   6.460 -0.4648 -0.3774 -0.3616
    2MOL   C882 1844   3.041   2.055   6.580  0.4315 -0.4235 -0.4743
    2MOL   C883 1845   3.000   1.907   6.557 -0.1311 -0.1529 -0.2933
    2MOL   C884 1846   3.028   1.819   6.670 -0.1626  0.3613  0.0844
    2MOL   O885 1847   3.130   1.845   6.740  0.3686  0.1702 -0.5767
    2MOL   H886 1848   4.051   3.048   6.012 -0.9784 -0.8021  0.5147
    2MOL   H887 1849   4.112   2.887   5.989  0.1128 -0.4108  1.6831
    2MOL   H888 1850   4.165   3.082   6.213  0.1083 -0.9358  0.6173
    2MOL   H889 1851   4.249   2.923   6.207 -0.5177 -1.6889 -0.1208
    2MOL   H890 1852   3.952   2.999   6.235  1.4037  2.4359  1.9230
    2MOL   H891 1853   4.020   2.837   6.187  1.2262  1.1531 -3.6872
    2MOL   H892 1854   4.102   2.977   6.446 -1.2502  0.2956  0.2223
    2MOL   H893 1855   4.123   2.806   6.397  0.3547  0.1139  0.2284
    2MOL   H894 1856   3.855   2.916   6.464  2.1981  1.9014  0.0515
    2MOL   H895 1857   3.961   2.837   6.562  1.4665  2.2175 -0.5538
    2MOL   H896 1858   3.960   2.629   6.417  0.2928  0.1570  2.0841
    2MOL   H897 1859   3.853   2.699   6.301  2.4643 -2.7859 -0.8223
    2MOL   H898 1860   3.688   2.744   6.510  0.3969 -0.5927  1.5295
    2MOL   H899 1861   3.784   2.616   6.583  1.4815  4.0757  1.4941
    2MOL   H900 1862   3.719   2.458   6.438 -2.4293 -1.5174 -1.1889
    2MOL   H901 1863   3.659   2.585   6.324 -0.1813  1.6663  0.7118
    2MOL   H902 1864   3.515   2.484   6.575 -0.0567 -1.4077  0.4026
    2MOL   H903 1865   3.465   2.622   6.468  2.6136  1.1671  0.8769
    2MOL   H904 1866   3.492   2.333   6.384  0.3213  1.2275 -1.4506
    2MOL   H905 1867   3.416   2.460   6.292 -0.2781 -0.3709 -0.1227
    2MOL   H906 1868   3.073   2.302   6.584  0.5661 -0.7997  0.5066
    2MOL   H907 1869   3.025   2.344   6.418 -0.4598 -1.4484 -0.8083
    2MOL   H908 1870   3.069   2.082   6.388 -1.0360  1.1071 -2.0909
    2MOL   H909 1871   2.916   2.156   6.422 -1.2555  2.2724  2.3154
    2MOL   H910 1872   2.996   2.105   6.667  0.5266  0.3821 -0.8816
    2MOL   H911 1873   3.146   2.056   6.609 -0.0130  0.5780  1.2252
    2MOL   H912 1874   3.050   1.874   6.466  0.3262  2.1819 -0.9290
    2MOL   H913 1875   2.895   1.900   6.527 -0.0802  0.0284 -0.5187
    2MOL   O914 1876   2.949   1.709   6.683  0.3366  0.2447  0.2313
    2MOL   C915 1877   2.984   1.613   6.780  0.1301  0.3337  0.8022
    2MOL   C916 1878   2.872   1.516   6.792  0.0658  0.2928 -0.5719
    2MOL   C917 1879   2.744   1.575   6.857  0.3669  0.1230 -0.1379
    2MOL   C918 1880   2.624   1.486   6.883 -0.1099 -0.2395 -0.0523
    2MOL   C919 1881   2.515   1.549   6.975 -0.2518 -0.1386  0.1522
    2MOL   C920 1882   2.398   1.450   7.016 -0.0587  0.6639 -0.0232
    2MOL   C921 1883   2.445   1.337   7.109  0.6602  0.4842 -0.2174
    2MOL   C922 1884   2.340   1.244   7.171 -0.2156 -0.8578 -0.1651
    2MOL   C923 1885   2.256   1.309   7.288  0.0392 -0.3429 -0.5125
    2MOL   C924 1886   2.161   1.215   7.364 -0.2177  0.0166  0.0734
    2MOL   O925 1887   2.061   1.164   7.288  0.0852 -0.2188 -0.2341
    2MOL   C926 1888   2.075   1.042   7.232  0.3187 -0.0751 -0.5498
    2MOL   O927 1889   2.174   0.967   7.250 -0.4603 -0.3797  0.5672
    2MOL   C928 1890   1.955   0.996   7.151  0.2469  0.0144  0.0591
    2MOL   C929 1891   1.975   0.944   7.007  0.2982 -0.1922 -0.3362
    2MOL   C930 1892   2.020   1.061   6.917 -0.4529 -0.7163  0.0342
    2MOL   C931 1893   1.998   1.050   6.759  0.6241 -0.2100 -0.4060
    2MOL   C932 1894   2.070   0.926   6.712  0.3750 -0.0014  0.3682
    2MOL   O933 1895   2.015   0.820   6.704 -0.4959  0.5780  0.0135
    2MOL   H934 1896   3.076   1.560   6.754 -1.2508 -2.0224  0.5788
    2MOL   H935 1897   3.009   1.660   6.875  1.1447 -0.1675  0.8010
    2MOL   H936 1898   2.900   1.425   6.846 -1.1557 -0.1198 -0.6085
    2MOL   H937 1899   2.843   1.492   6.689 -0.0722 -2.2914  0.0379
    2MOL   H938 1900   2.777   1.610   6.955  0.1097  0.8488 -0.3088
    2MOL   H939 1901   2.710   1.662   6.801 -1.7221 -0.6536 -0.0920
    2MOL   H940 1902   2.656   1.394   6.931  1.0619  0.1240 -0.1155
    2MOL   H941 1903   2.578   1.447   6.792  0.5113  0.8313 -0.8396
    2MOL   H942 1904   2.470   1.637   6.927 -1.1143 -0.5002  0.2974
    2MOL   H943 1905   2.559   1.591   7.065  0.2214  0.9860 -0.5786
    2MOL   H944 1906   2.358   1.403   6.927  1.0924 -0.2418 -0.0693
    2MOL   H945 1907   2.326   1.509   7.074  0.9488  1.6181  0.2873
    2MOL   H946 1908   2.486   1.387   7.196  2.8621 -1.9957  0.2719
    2MOL   H947 1909   2.526   1.275   7.069  0.1628 -2.1984  2.7158
    2MOL   H948 1910   2.395   1.163   7.219 -0.8941 -0.2974  1.6140
    2MOL   H949 1911   2.286   1.200   7.088 -1.0371  0.1099 -0.1528
    2MOL   H950 1912   2.331   1.338   7.362 -1.2243  1.0743  0.2344
    2MOL   H951 1913   2.207   1.392   7.237 -1.0133 -2.1221 -2.4784
    2MOL   H952 1914   2.101   1.282   7.426  0.7358  1.1339 -0.1851
    2MOL   H953 1915   2.211   1.154   7.438 -0.1617  0.3701  0.3276
    2MOL   H954 1916   1.925   0.909   7.208  2.3501 -0.4142  0.5542
    2MOL   H955 1917   1.881   1.074   7.168  2.1081  1.2748  2.7202
    2MOL   H956 1918   1.882   0.896   6.977  0.3110  0.2707 -1.1238
    2MOL   H957 1919   2.036   0.854   7.018  0.6627  0.4513  3.9700
    2MOL   H958 1920   2.128   1.070   6.932  0.1047 -1.0772 -3.2911
    2MOL   H959 1921   1.972   1.152   6.954  0.0754 -1.3421  2.3710
    2MOL   H960 1922   2.021   1.143   6.708 -0.2985 -0.8675 -2.0638
    2MOL   H961 1923   1.895   1.034   6.729 -0.6052 -0.1153  3.5045
    2MOL   H962 1924   2.178   0.928   6.693  0.3057  0.9334  0.0650
    3MOL     O1 1925   1.399   5.410   1.611 -0.2336 -0.3910 -0.3996
    3MOL     C2 1926   1.295   5.315   1.628  0.6094 -0.4599 -0.8192
    3MOL     C3 1927   1.161   5.389   1.637 -0.1138 -1.1051 -0.2288
    3MOL     C4 1928   1.039   5.290   1.645  0.2675  0.2066  1.0639
    3MOL     C5 1929   0.903   5.356   1.654  0.6350  0.6627  0.0631
    3MOL     C6 1930   0.885   5.445   1.781 -0.2224  0.3317 -0.2977
    3MOL     C7 1931   0.887   5.372   1.913 -0.4448 -0.5649  0.8166
    3MOL     C8 1932   0.839   5.454   2.030 -0.2113 -0.4413 -0.6832
    3MOL     C9 1933   0.711   5.520   2.016  0.4350 -0.5904 -0.0471
    3MOL    C10 1934   0.666   5.589   2.148 -0.0734  0.5266  0.6028
    3MOL    C11 1935   0.527   5.651   2.137  0.1005 -0.2011  0.7117
    3MOL    O12 1936   0.429   5.564   2.166  0.4908 -0.4746  0.1643
    3MOL    C13 1937   0.303   5.621   2.186 -0.0411  0.5745 -0.2553
    3MOL    O14 1938   0.270   5.739   2.166 -0.1800 -0.0744 -0.5629
    3MOL    C15 1939   0.192   5.517   2.221 -0.1718  0.1937  0.1317
    3MOL    C16 1940   0.217   5.449   2.354  0.3392  0.3130 -0.0104
    3MOL    C17 1941   0.276   5.307   2.343  0.6466 -0.2661 -0.5982
    3MOL    C18 1942   0.287   5.223   2.481  0.7617  0.5823 -0.3798
    3MOL    C19 1943   0.406   5.253   2.575  0.5162 -0.6164  0.1636
    3MOL    O20 1944   0.518   5.295   2.529  0.5063 -0.3203 -0.2108
    3MOL    H21 1945   1.289   5.248   1.543 -1.3786 -0.2694 -0.8549
    3MOL    H22 1946   1.318   5.259   1.719  1.2541 -1.8358 -1.8319
    3MOL    H23 1947   1.169   5.448   1.545 -0.7506 -0.3705  0.1799
    3MOL    H24 1948   1.164   5.455   1.723  2.0732 -0.7136 -0.5534
    3MOL    H25 1949   1.038   5.228   1.555 -1.1607 -2.5995  2.9529
    3MOL    H26 1950   1.048   5.226   1.733  1.8298  0.9558  1.4714
    3MOL    H27 1951   0.830   5.275   1.663  3.3131 -1.7341  0.6961
    3MOL    H28 1952   0.905   5.414   1.562  1.1115 -0.6098 -0.7260
    3MOL    H29 1953   0.785   5.489   1.774 -0.1959  0.7758  1.7839
    3MOL    H30 1954   0.955   5.528   1.773  0.9717 -0.7205 -1.0817
    3MOL    H31 1955   0.981   5.322   1.936 -0.2849 -0.6313  0.0471
    3MOL    H32 1956   0.817   5.290   1.902 -1.5933  0.7188 -1.9162
    3MOL    H33 1957   0.905   5.534   2.062 -1.1139  0.1222 -0.2163
    3MOL    H34 1958   0.844   5.393   2.120  2.6334 -1.0490 -1.2082
    3MOL    H35 1959   0.637   5.447   1.984  1.3532 -1.2941 -0.5938
    3MOL    H36 1960   0.716   5.599   1.941  0.2396 -1.3142 -0.8379
    3MOL    H37 1961   0.659   5.519   2.232 -2.5674 -1.0825 -0.8902
    3MOL    H38 1962   0.741   5.661   2.179  2.6001 -2.1811  0.7586
    3MOL    H39 1963   0.512   5.706   2.043  0.7378  0.4540  0.9890
    3MOL    H40 1964   0.536   5.728   2.214 -0.1618  0.9148 -0.3444
    3MOL    H41 1965   0.104   5.581   2.217 -0.2791  0.0733  0.5240
    3MOL    H42 1966   0.173   5.443   2.143  2.1511 -0.9403  0.5754
    3MOL    H43 1967   0.122   5.450   2.406 -0.7446 -1.4734 -1.8996
    3MOL    H44 1968   0.275   5.502   2.430 -0.3289  1.0529 -0.0093
    3MOL    H45 1969   0.376   5.314   2.301  1.0605  0.6839  0.5277
    3MOL    H46 1970   0.217   5.241   2.279  1.5292 -1.7745  0.1098
    3MOL    H47 1971   0.283   5.115   2.466 -1.3679  0.6684 -0.6435
    3MOL    H48 1972   0.196   5.241   2.538  1.3136  1.0100  0.3658
    3MOL    H49 1973   1.483   5.375   1.637 -0.8804 -0.7366  1.2808
    3MOL    O50 1974   0.374   5.236   2.709 -0.5199  0.4441  0.2374
    3MOL    C51 1975   0.474   5.242   2.809  0.1048  0.5138 -0.1993
    3MOL    C52 1976   0.525   5.097   2.843 -0.2735  0.4858 -0.3265
    3MOL    C53 1977   0.418   5.007   2.909 -0.2235 -0.4329  0.2422
    3MOL    C54 1978   0.428   4.859   2.897 -0.8103 -0.3934 -0.4656
    3MOL    C55 1979   0.385   4.794   3.028 -0.2161 -0.0507  0.2416
    3MOL    C56 1980   0.368   4.640   3.011  0.2477  0.0946 -0.2945
    3MOL    C57 1981   0.282   4.581   3.122  0.2477 -0.7436 -0.4172
    3MOL    C58 1982   0.341   4.598   3.261  0.3222  0.7221 -0.2951
    3MOL    C59 1983   0.277   4.517   3.375 -0.2705  0.6228  0.0181
    3MOL    C60 1984   0.365   4.499   3.497  0.2810  0.1690  0.2979
    3MOL    O61 1985   0.405   4.632   3.532 -0.4629  0.2722  0.2454
    3MOL    C62 1986   0.528   4.674   3.547 -0.8226 -0.4600 -0.0825
    3MOL    O63 1987   0.627   4.608   3.521 -0.5588  0.1706 -0.6179
    3MOL    C64 1988   0.533   4.815   3.592 -0.6800  0.3288 -0.6107
    3MOL    C65 1989   0.650   4.904   3.540 -0.5090 -0.0717  0.3621
    3MOL    C66 1990   0.634   4.930   3.383  0.3953 -0.1755 -0.2265
    3MOL    C67 1991   0.534   5.049   3.359  0.2149 -0.2092 -0.2385
    3MOL    C68 1992   0.593   5.183   3.388  0.3595  0.2298 -0.3806
    3MOL    O69 1993   0.519   5.270   3.423 -0.7537 -0.5463  0.2028
    3MOL    H70 1994   0.561   5.297   2.773  0.0769 -0.0509 -1.1403
    3MOL    H71 1995   0.435   5.292   2.898  0.1341  3.1745 -1.6556
    3MOL    H72 1996   0.614   5.092   2.906 -0.3242 -0.8357 -0.3418
    3MOL    H73 1997   0.558   5.063   2.745  0.2890 -0.5033  0.1937
    3MOL    H74 1998   0.427   5.033   3.014 -1.6719 -0.5450  0.4033
    3MOL    H75 1999   0.316   5.033   2.880 -0.1610 -0.5905 -0.1250
    3MOL    H76 2000   0.535   4.842   2.886 -0.7788 -0.9958  0.7264
    3MOL    H77 2001   0.386   4.813   2.807 -0.3836 -2.3605  0.3152
    3MOL    H78 2002   0.290   4.840   3.052  0.5986  0.9927  1.5311
    3MOL    H79 2003   0.460   4.813   3.105 -0.1661  1.1562 -0.1004
    3MOL    H80 2004   0.466   4.591   3.010 -1.0913 -2.6832 -0.9856
    3MOL    H81 2005   0.321   4.614   2.916  0.4830 -1.1816 -0.0774
    3MOL    H82 2006   0.240   4.486   3.091  1.6748 -1.2311 -0.8775
    3MOL    H83 2007   0.195   4.647   3.131  0.5231 -0.3482 -0.6409
    3MOL    H84 2008   0.342   4.701   3.296 -0.8134  0.4454  0.5870
    3MOL    H85 2009   0.445   4.569   3.249  0.2340  0.9015 -1.5050
    3MOL    H86 2010   0.183   4.569   3.391 -1.1367 -0.1401 -2.4731
    3MOL    H87 2011   0.242   4.421   3.339  1.0101 -0.7404  2.2968
    3MOL    H88 2012   0.454   4.440   3.479 -0.0042  0.3107 -1.6715
    3MOL    H89 2013   0.309   4.464   3.584 -1.8125  2.8463  0.1129
    3MOL    H90 2014   0.433   4.857   3.580 -0.8028  0.2347  0.0251
    3MOL    H91 2015   0.538   4.802   3.701 -0.9380  2.0865 -0.3766
    3MOL    H92 2016   0.746   4.855   3.557 -0.0680  0.8563  0.6014
    3MOL    H93 2017   0.657   4.988   3.609  2.0176 -0.2998  0.4349
    3MOL    H94 2018   0.601   4.840   3.331 -2.0460  0.6551 -0.1397
    3MOL    H95 2019   0.736   4.952   3.349  0.1214  0.4661 -0.6466
    3MOL    H96 2020   0.438   5.037   3.408 -1.7081 -1.4688 -4.1241
    3MOL    H97 2021   0.510   5.040   3.253 -1.8431 -0.3481  0.2333
    3MOL    O98 2022   0.725   5.189   3.358  0.6188 -0.3413  0.1859
    3MOL    C99 2023   0.803   5.300   3.371  0.3017 -0.1802 -0.0480
    3MOL   C100 2024   0.886   5.289   3.494 -0.4466  0.3649 -0.2589
    3MOL   C101 2025   0.972   5.161   3.505 -0.7002 -0.7080  0.3660
    3MOL   C102 2026   1.079   5.167   3.618 -0.8049  0.2036  0.8937
    3MOL   C103 2027   1.180   5.052   3.636  0.1848  0.1939  0.3934
    3MOL   C104 2028   1.280   5.075   3.748  0.5450  0.1712 -0.1621
    3MOL   C105 2029   1.212   5.053   3.879  0.0750 -0.1275  0.3136
    3MOL   C106 2030   1.292   5.094   4.006 -0.5907  0.0937  0.0161
    3MOL   C107 2031   1.219   5.063   4.135 -0.1197  0.2057  0.0897
    3MOL   C108 2032   1.290   5.116   4.261  0.3263 -0.6646 -0.7662
    3MOL   O109 2033   1.414   5.052   4.301  0.3338  0.4108  0.0184
    3MOL   C110 2034   1.538   5.095   4.257 -0.3327 -0.4067  0.7319
    3MOL   O111 2035   1.560   5.203   4.202  0.1091  0.1471 -0.3823
    3MOL   C112 2036   1.646   4.995   4.295 -0.1952  0.2342  0.7540
    3MOL   C113 2037   1.780   5.014   4.230 -0.0154  0.2400 -0.0667
    3MOL   C114 2038   1.868   5.127   4.283  0.0788  0.0854  0.6720
    3MOL   C115 2039   1.919   5.103   4.424  0.3674  0.4241  0.1112
    3MOL   C116 2040   2.034   5.196   4.466  0.3238 -0.2565  0.6126
    3MOL   O117 2041   2.145   5.156   4.500  0.2189 -0.3381  0.2914
    3MOL   H118 2042   0.859   5.310   3.278  0.1479  1.3991  0.0055
    3MOL   H119 2043   0.740   5.389   3.368 -1.6099 -1.4007  2.3733
    3MOL   H120 2044   0.821   5.277   3.580 -0.0853 -0.1062 -0.0477
    3MOL   H121 2045   0.944   5.380   3.503  1.2131 -0.9499  3.1663
    3MOL   H122 2046   0.906   5.075   3.520 -1.5894 -0.1365 -0.2105
    3MOL   H123 2047   1.021   5.139   3.410 -2.0730 -1.2689 -0.2349
    3MOL   H124 2048   1.019   5.195   3.705  0.9926 -0.1427  2.2780
    3MOL   H125 2049   1.127   5.265   3.620 -1.6579  0.6257  1.1195
    3MOL   H126 2050   1.242   5.041   3.546 -1.8585 -0.2832 -0.9968
    3MOL   H127 2051   1.130   4.957   3.655  1.1863 -0.1075  1.5739
    3MOL   H128 2052   1.323   5.175   3.744 -1.1415  0.8540 -1.5617
    3MOL   H129 2053   1.361   5.002   3.748 -0.3536 -0.8372 -0.3575
    3MOL   H130 2054   1.188   4.947   3.882  0.4327 -0.2057  0.4376
    3MOL   H131 2055   1.124   5.118   3.878  1.3353  1.6384  0.6556
    3MOL   H132 2056   1.319   5.199   3.993 -0.7491  0.2564  0.9726
    3MOL   H133 2057   1.384   5.039   4.025 -0.5211  0.4318  0.7092
    3MOL   H134 2058   1.120   5.103   4.113  0.8983  2.1619 -1.0630
    3MOL   H135 2059   1.206   4.955   4.146  0.7623  0.1102  0.2010
    3MOL   H136 2060   1.232   5.080   4.346  1.9655  0.2377  0.7593
    3MOL   H137 2061   1.304   5.224   4.256  0.8291 -0.8569 -4.7618
    3MOL   H138 2062   1.657   4.980   4.403 -0.5875  0.8954  0.8931
    3MOL   H139 2063   1.600   4.902   4.264  1.2249 -0.0674 -0.4672
    3MOL   H140 2064   1.756   5.022   4.124  1.2833 -1.8007 -0.5530
    3MOL   H141 2065   1.837   4.921   4.222  0.8867  0.6575  1.3563
    3MOL   H142 2066   1.809   5.218   4.283 -0.6895 -0.3353 -2.8049
    3MOL   H143 2067   1.957   5.133   4.220  0.3072  0.3955  1.0236
    3MOL   H144 2068   1.969   5.008   4.441  0.8542  0.0581 -3.0726
    3MOL   H145 2069   1.840   5.106   4.499 -0.2954 -0.6856 -0.5332
    3MOL   O146 2070   2.000   5.324   4.465 -0.2621 -0.4772  0.8335
    3MOL   C147 2071   2.093   5.433   4.494  0.6072  0.1558 -0.2001
    3MOL   C148 2072   2.185   5.465   4.373 -0.7275 -0.2154 -0.5439
    3MOL   C149 2073   2.096   5.537   4.268 -0.1890 -0.0026  0.7604
    3MOL   C150 2074   2.164   5.548   4.129 -0.4353  0.4722 -0.2636
    3MOL   C151 2075   2.092   5.650   4.039 -0.3493 -0.1232  0.1692
    3MOL   C152 2076   2.141   5.653   3.900 -0.3142 -0.4195 -0.1510
    3MOL   C153 2077   2.080   5.764   3.826 -0.0879  0.1731  0.1601
    3MOL   C154 2078   2.127   5.783   3.681 -0.6313 -0.1300  0.0398
    3MOL   C155 2079   2.051   5.900   3.608 -0.2561 -0.2267  0.3958
    3MOL   C156 2080   2.083   5.902   3.459  0.1771  0.0440  0.0762
    3MOL   O157 2081   2.052   5.771   3.400 -0.1972 -0.7651 -0.0287
    3MOL   C158 2082   2.082   5.755   3.272 -0.1772  0.5141  0.3125
    3MOL   O159 2083   2.130   5.843   3.199 -0.5320 -0.0383  0.0633
    3MOL   C160 2084   2.050   5.611   3.229  0.7953  0.6012  0.1631
    3MOL   C161 2085   2.101   5.509   3.328  0.0353  0.9789 -0.4905
    3MOL   C162 2086   2.119   5.373   3.264  0.2341  0.3566 -0.2906
    3MOL   C163 2087   1.986   5.314   3.212  0.7178  0.3359 -1.0475
    3MOL   C164 2088   1.930   5.190   3.288  0.0125  1.0250 -0.3637
    3MOL   O165 2089   1.936   5.186   3.408  0.3082  0.2941 -0.0398
    3MOL   H166 2090   2.039   5.523   4.523  0.8955  0.2223  0.1221
    3MOL   H167 2091   2.149   5.398   4.580 -1.8312 -0.3633  1.2330
    3MOL   H168 2092   2.233   5.377   4.330 -0.4005  0.3858 -1.4394
    3MOL   H169 2093   2.270   5.519   4.415 -0.2302 -1.6796  0.3535
    3MOL   H170 2094   2.003   5.481   4.259 -0.4807  0.5263  0.5193
    3MOL   H171 2095   2.069   5.637   4.302  1.3527  0.5146  0.4939
    3MOL   H172 2096   2.162   5.454   4.073 -0.0922 -0.3809  1.1019
    3MOL   H173 2097   2.264   5.587   4.148  0.5946 -2.2988  0.3741
    3MOL   H174 2098   2.103   5.747   4.088  0.5512 -0.7348  1.2115
    3MOL   H175 2099   1.986   5.637   4.061  0.1809 -0.5716  2.6841
    3MOL   H176 2100   2.134   5.561   3.841  0.9391 -0.0107 -0.9432
    3MOL   H177 2101   2.248   5.664   3.915 -0.3725  1.4376 -1.0787
    3MOL   H178 2102   2.104   5.859   3.873 -0.0293  0.2283  0.0192
    3MOL   H179 2103   1.973   5.751   3.835  0.1940 -0.3728  3.3007
    3MOL   H180 2104   2.105   5.688   3.633  0.8723  0.1687 -1.2680
    3MOL   H181 2105   2.235   5.793   3.683 -0.3925 -2.4030 -0.4733
    3MOL   H182 2106   1.946   5.887   3.633 -0.6100 -1.2755 -1.5088
    3MOL   H183 2107   2.069   5.994   3.660  0.3590 -0.0052 -0.2032
    3MOL   H184 2108   2.189   5.922   3.445 -0.3737  3.9941  1.0864
    3MOL   H185 2109   2.026   5.981   3.410  0.8606 -0.5669 -1.7646
    3MOL   H186 2110   1.943   5.593   3.223  0.7359  1.3081 -0.9784
    3MOL   H187 2111   2.090   5.595   3.129 -2.2584 -0.8576 -0.8881
    3MOL   H188 2112   2.023   5.494   3.403 -0.3189 -1.6569 -1.3336
    3MOL   H189 2113   2.190   5.546   3.379  0.0065 -1.4390  1.4297
    3MOL   H190 2114   2.184   5.303   3.318 -2.0357 -2.5883 -1.2889
    3MOL   H191 2115   2.188   5.395   3.182 -0.8321 -1.6295 -1.7451
    3MOL   H192 2116   2.005   5.283   3.110  2.5852  0.2551 -0.7070
    3MOL   H193 2117   1.897   5.377   3.212 -1.0221 -1.9346  2.3574
    3MOL   O194 2118   1.884   5.094   3.209 -0.2310  0.2666 -0.1839
    3MOL   C195 2119   1.811   4.979   3.258 -0.3790 -0.0382  0.0452
    3MOL   C196 2120   1.900   4.856   3.283  0.1052 -0.4308  0.2640
    3MOL   C197 2121   1.974   4.807   3.160 -0.3395  0.1792  0.1501
    3MOL   C198 2122   2.055   4.682   3.177  0.7851 -0.3911  0.1579
    3MOL   C199 2123   2.139   4.644   3.050  0.4220 -0.2728  0.2629
    3MOL   C200 2124   2.219   4.519   3.094  0.7115  0.1897 -0.1174
    3MOL   C201 2125   2.295   4.440   2.974  0.2039  0.4891 -0.3770
    3MOL   C202 2126   2.369   4.317   3.041 -0.7500 -0.3662  0.6701
    3MOL   C203 2127   2.407   4.208   2.945  1.1062  0.4184  0.7332
    3MOL   C204 2128   2.519   4.256   2.856  0.6683  0.3174 -0.9818
    3MOL   O205 2129   2.640   4.300   2.919 -0.5202 -0.0040  0.3213
    3MOL   C206 2130   2.746   4.214   2.912 -0.1103 -0.6084 -0.2823
    3MOL   O207 2131   2.740   4.103   2.863 -0.5038  0.0937 -0.1826
    3MOL   C208 2132   2.876   4.285   2.957 -0.5212  0.0933  0.2767
    3MOL   C209 2133   2.992   4.190   2.971  0.1972 -0.0867  0.2021
    3MOL   C210 2134   3.121   4.255   3.029  0.0730  0.6473 -0.0413
    3MOL   C211 2135   3.249   4.180   3.014 -0.1022 -0.0431 -0.0721
    3MOL   C212 2136   3.263   4.049   3.086  0.2109 -0.3769 -0.3605
    3MOL   O213 2137   3.183   4.008   3.166  0.0018 -0.2343 -0.2539
    3MOL   H214 2138   1.767   5.009   3.353 -0.9141  0.1555 -0.2606
    3MOL   H215 2139   1.728   4.961   3.190 -0.2652 -4.3253  0.9276
    3MOL   H216 2140   1.826   4.786   3.321  0.5771 -1.1823 -0.1935
    3MOL   H217 2141   1.965   4.882   3.367 -0.2523  0.0182  0.4067
    3MOL   H218 2142   1.903   4.810   3.077  0.0169  1.6266 -0.1157
    3MOL   H219 2143   2.047   4.883   3.132  0.2710 -0.5390 -0.2468
    3MOL   H220 2144   1.985   4.606   3.213 -0.1402  0.6918  0.6790
    3MOL   H221 2145   2.121   4.696   3.263  1.3315 -0.1713 -0.2988
    3MOL   H222 2146   2.213   4.722   3.031  1.0635 -1.1616 -0.9587
    3MOL   H223 2147   2.087   4.616   2.959  1.6938 -0.0328 -0.5496
    3MOL   H224 2148   2.153   4.444   3.138 -0.0527  0.1850 -1.2523
    3MOL   H225 2149   2.290   4.545   3.172  0.9564  0.6250 -0.4863
    3MOL   H226 2150   2.361   4.513   2.928  0.5752  1.4964  1.6929
    3MOL   H227 2151   2.223   4.412   2.897  2.0326 -2.9398 -0.9122
    3MOL   H228 2152   2.307   4.263   3.113 -0.3552  0.4059  1.5910
    3MOL   H229 2153   2.451   4.352   3.103 -1.9611  1.7565  1.1075
    3MOL   H230 2154   2.450   4.121   2.996 -1.4177 -1.4449 -0.2270
    3MOL   H231 2155   2.319   4.180   2.888  2.6161 -1.7755 -0.6130
    3MOL   H232 2156   2.496   4.349   2.804  1.5128  1.6896  1.0053
    3MOL   H233 2157   2.538   4.189   2.773 -0.2274 -0.0567 -0.8914
    3MOL   H234 2158   2.895   4.362   2.882  4.2283  0.5832  1.7631
    3MOL   H235 2159   2.868   4.341   3.051  1.8115  0.6095  0.1945
    3MOL   H236 2160   3.007   4.144   2.873  0.0927 -0.3257  0.2981
    3MOL   H237 2161   2.964   4.110   3.039 -0.5950  0.1135  0.1124
    3MOL   H238 2162   3.107   4.280   3.134 -0.9621  0.8142 -0.2122
    3MOL   H239 2163   3.122   4.348   2.972 -0.1170  0.1826 -0.8025
    3MOL   H240 2164   3.341   4.237   3.027  0.8378 -1.7838  1.1107
    3MOL   H241 2165   3.254   4.161   2.907  1.7382 -1.1506  0.1887
    3MOL   O242 2166   3.370   3.988   3.055  0.0572 -0.1511 -0.6471
    3MOL   C243 2167   3.406   3.867   3.128  0.0351 -0.8848  0.3509
    3MOL   C244 2168   3.541   3.811   3.077  0.0614  0.3983 -0.2845
    3MOL   C245 2169   3.560   3.664   3.114  0.1871 -0.6533  0.3218
    3MOL   C246 2170   3.606   3.647   3.262 -0.1114 -0.7995  0.6991
    3MOL   C247 2171   3.625   3.498   3.287  0.6589 -0.3814 -0.2781
    3MOL   C248 2172   3.681   3.457   3.417 -0.2756  0.2049 -0.6093
    3MOL   C249 2173   3.706   3.305   3.433 -1.1085 -0.0468  0.3023
    3MOL   C250 2174   3.764   3.271   3.564 -0.0775  0.4778  0.0441
    3MOL   C251 2175   3.750   3.119   3.577 -0.1114 -0.3945  0.0437
    3MOL   C252 2176   3.824   3.076   3.702  0.6056 -0.0494  0.7150
    3MOL   O253 2177   3.960   3.100   3.705 -1.2871 -0.1064 -0.2604
    3MOL   C254 2178   4.025   3.123   3.825  0.7093  0.2368  0.6135
    3MOL   O255 2179   3.976   3.105   3.934  0.9290  0.5701  0.1203
    3MOL   C256 2180   4.160   3.173   3.796  0.5437  0.4747  0.3979
    3MOL   C257 2181   4.243   3.228   3.914  0.3959 -0.2515 -0.0642
    3MOL   C258 2182   4.169   3.349   3.980 -0.3178 -0.1750 -0.8251
    3MOL   C259 2183   4.236   3.395   4.112 -0.2263  0.1397 -0.2029
    3MOL   C260 2184   4.252   3.288   4.223  0.6975  1.0693 -0.5971
    3MOL   O261 2185   4.362   3.246   4.263 -0.3285 -0.2874 -0.1660
    3MOL   H262 2186   3.415   3.874   3.236 -3.4436  2.1453  0.5706
    3MOL   H263 2187   3.326   3.794   3.112  1.6601 -2.1954 -2.0720
    3MOL   H264 2188   3.626   3.879   3.088 -1.4249  2.1699  0.4914
    3MOL   H265 2189   3.523   3.819   2.970 -4.2138 -0.2558  0.2890
    3MOL   H266 2190   3.467   3.606   3.106 -0.5420  0.2245  2.1847
    3MOL   H267 2191   3.635   3.619   3.049 -0.7065 -1.0814 -0.4480
    3MOL   H268 2192   3.534   3.687   3.333 -0.7513 -0.2541 -0.2356
    3MOL   H269 2193   3.704   3.690   3.281  0.2874 -0.5499 -1.7598
    3MOL   H270 2194   3.690   3.446   3.217 -0.7883 -1.6238 -0.7227
    3MOL   H271 2195   3.525   3.454   3.279 -0.0991  1.3176 -0.2537
    3MOL   H272 2196   3.626   3.498   3.502 -3.2635  0.9122 -2.8101
    3MOL   H273 2197   3.779   3.504   3.419 -0.3398  0.3188  1.2266
    3MOL   H274 2198   3.772   3.270   3.353  0.9535  0.2350  1.8485
    3MOL   H275 2199   3.616   3.251   3.406  0.1716 -1.6163 -0.9549
    3MOL   H276 2200   3.715   3.314   3.652  1.8477  1.5886  0.6014
    3MOL   H277 2201   3.868   3.304   3.562 -0.2397  0.9069 -1.7851
    3MOL   H278 2202   3.646   3.085   3.578 -0.4197  0.5645  2.1993
    3MOL   H279 2203   3.799   3.068   3.493 -1.4657 -2.2156  0.3128
    3MOL   H280 2204   3.817   2.967   3.700  1.4616 -0.0840 -1.1931
    3MOL   H281 2205   3.779   3.115   3.794  0.6255 -0.0284  0.7157
    3MOL   H282 2206   4.209   3.094   3.739  0.6417  0.4479  0.5200
    3MOL   H283 2207   4.144   3.248   3.719  0.8765  0.0555 -0.0809
    3MOL   H284 2208   4.345   3.259   3.887  0.3372 -0.5508 -0.6431
    3MOL   H285 2209   4.244   3.153   3.992 -0.9990  0.5376  0.7361
    3MOL   H286 2210   4.066   3.328   4.007  0.0227  0.7470  1.2970
    3MOL   H287 2211   4.152   3.424   3.903 -1.7350 -0.9792 -1.3060
    3MOL   H288 2212   4.187   3.486   4.150  1.3224  1.5412 -1.4845
    3MOL   H289 2213   4.335   3.423   4.076 -0.4552  0.6324 -0.4658
    3MOL   O290 2214   4.136   3.243   4.253 -0.0944  0.1027 -0.3446
    3MOL   C291 2215   4.129   3.160   4.368  0.0758  0.0014  0.3223
    3MOL   C292 2216   3.999   3.079   4.346 -0.6928 -0.8076  0.3823
    3MOL   C293 2217   3.971   2.977   4.455 -0.2553  0.7360  0.2135
    3MOL   C294 2218   3.838   2.902   4.441 -0.1455  0.3771  0.5987
    3MOL   C295 2219   3.832   2.761   4.496  0.0047 -0.2715  0.2411
    3MOL   C296 2220   3.693   2.706   4.510  0.2661 -0.6654 -0.0163
    3MOL   C297 2221   3.698   2.555   4.530 -0.0095 -0.1234  0.0554
    3MOL   C298 2222   3.561   2.484   4.540 -0.2207  0.1319 -0.8509
    3MOL   C299 2223   3.466   2.519   4.654 -0.1315  0.0238  0.0799
    3MOL   C300 2224   3.346   2.441   4.662 -0.9041  0.7083  0.2162
    3MOL   O301 2225   3.262   2.472   4.555  0.2136 -0.4897 -0.2762
    3MOL   C302 2226   3.170   2.398   4.518 -0.1712  0.6365  0.1575
    3MOL   O303 2227   3.154   2.284   4.552  0.6850  0.6170 -0.0173
    3MOL   C304 2228   3.086   2.450   4.398 -0.0235 -0.2952 -0.3041
    3MOL   C305 2229   2.941   2.393   4.384 -0.2007 -0.1541 -0.4885
    3MOL   C306 2230   2.847   2.475   4.468 -0.2533 -0.1499 -0.3918
    3MOL   C307 2231   2.707   2.410   4.483  0.2526  0.3141 -0.1492
    3MOL   C308 2232   2.611   2.491   4.564 -0.1222 -0.4184  0.6220
    3MOL   O309 2233   2.494   2.495   4.533 -0.0914  0.3533  0.4877
    3MOL   H310 2234   4.217   3.096   4.371 -0.0951 -0.2909 -0.6127
    3MOL   H311 2235   4.121   3.207   4.466 -1.5290  0.5041 -0.0415
    3MOL   H312 2236   4.014   3.028   4.251 -0.8496 -1.5000  0.7219
    3MOL   H313 2237   3.913   3.146   4.339  0.6484  1.0252  1.1197
    3MOL   H314 2238   4.055   2.912   4.479  0.7584  2.4416  1.3833
    3MOL   H315 2239   3.961   3.031   4.550 -0.5195  1.0920 -0.0169
    3MOL   H316 2240   3.818   2.907   4.334 -0.1711  0.5849  0.6122
    3MOL   H317 2241   3.755   2.959   4.483 -1.6878  0.4417 -2.3400
    3MOL   H318 2242   3.888   2.766   4.590  1.5324 -0.6498 -0.6405
    3MOL   H319 2243   3.888   2.693   4.433 -0.4021  0.1171 -0.5547
    3MOL   H320 2244   3.633   2.715   4.420  1.9518 -1.2444 -1.2213
    3MOL   H321 2245   3.648   2.753   4.598  1.1266 -3.0588  1.7478
    3MOL   H322 2246   3.762   2.534   4.616  0.8203 -0.3503 -0.6024
    3MOL   H323 2247   3.758   2.515   4.448  0.3623  2.1412 -0.8333
    3MOL   H324 2248   3.581   2.376   4.541  1.4603  0.4215 -1.8257
    3MOL   H325 2249   3.512   2.493   4.443  1.2145  1.0083 -1.4993
    3MOL   H326 2250   3.519   2.510   4.748  0.6260  0.0822 -0.3378
    3MOL   H327 2251   3.442   2.624   4.667  0.5175 -0.1104  2.6744
    3MOL   H328 2252   3.294   2.466   4.754 -1.2586 -0.3546  0.3035
    3MOL   H329 2253   3.379   2.337   4.661  3.5631  2.0111  1.9498
    3MOL   H330 2254   3.095   2.554   4.368 -0.1616 -0.3445 -0.5202
    3MOL   H331 2255   3.147   2.409   4.316  0.6463 -2.2823  1.1380
    3MOL   H332 2256   2.933   2.291   4.422  0.9113  0.4726  1.5041
    3MOL   H333 2257   2.917   2.403   4.278 -0.4369  0.7211 -0.3593
    3MOL   H334 2258   2.831   2.578   4.437 -0.2104  0.9407  3.0075
    3MOL   H335 2259   2.890   2.480   4.568  2.2266 -0.5559 -1.4073
    3MOL   H336 2260   2.708   2.310   4.526 -1.6474  1.4411  2.6403
    3MOL   H337 2261   2.663   2.396   4.384  0.7392 -1.9125 -0.0624
    3MOL   O338 2262   2.658   2.543   4.677  0.4951 -0.2349 -0.3516
    3MOL   C339 2263   2.570   2.621   4.756 -0.6718  0.0736  0.0661
    3MOL   C340 2264   2.607   2.773   4.735  0.0945  0.2012  0.2237
    3MOL   C341 2265   2.612   2.815   4.586  0.5280 -0.1221 -0.1832
    3MOL   C342 2266   2.622   2.966   4.575  0.1779 -0.5364  0.4521
    3MOL   C343 2267   2.581   3.027   4.439 -0.3686 -0.3673  0.0116
    3MOL   C344 2268   2.598   3.178   4.420  0.1528 -0.0794  0.4133
    3MOL   C345 2269   2.556   3.212   4.277  0.6852 -0.1930  0.0030
    3MOL   C346 2270   2.571   3.354   4.240 -0.4691  0.0435 -0.5073
    3MOL   C347 2271   2.507   3.378   4.100  0.6501  0.0864 -0.1472
    3MOL   C348 2272   2.516   3.528   4.050 -0.8267  0.1123 -0.1926
    3MOL   O349 2273   2.501   3.522   3.905  0.8218  0.6256 -0.5413
    3MOL   C350 2274   2.525   3.633   3.843 -0.6269  0.2010  0.1397
    3MOL   O351 2275   2.561   3.739   3.902 -0.0768  0.4030  0.2889
    3MOL   C352 2276   2.514   3.628   3.694  0.1999  0.5840  0.5206
    3MOL   C353 2277   2.378   3.678   3.632  0.1515 -0.2864 -0.5407
    3MOL   C354 2278   2.386   3.831   3.621 -0.1806  0.2468 -0.4510
    3MOL   C355 2279   2.493   3.886   3.517 -0.4250  0.3327 -0.0280
    3MOL   C356 2280   2.456   3.867   3.370 -0.1255  0.6836  0.5543
    3MOL   O357 2281   2.338   3.871   3.333 -0.2813  0.1667 -0.1691
    3MOL   H358 2282   2.467   2.605   4.724 -1.1166 -3.9705  3.2587
    3MOL   H359 2283   2.563   2.596   4.861  1.3101 -0.3971  0.1040
    3MOL   H360 2284   2.701   2.788   4.789  1.2155 -2.2261 -0.9956
    3MOL   H361 2285   2.531   2.833   4.784 -0.2418  0.3251 -0.4402
    3MOL   H362 2286   2.695   2.773   4.529  0.5981  0.5089 -0.5441
    3MOL   H363 2287   2.527   2.779   4.529  1.1991 -0.8180 -0.7523
    3MOL   H364 2288   2.726   2.990   4.597  0.7953 -2.8451  0.1514
    3MOL   H365 2289   2.571   3.026   4.650  0.5155 -2.1975  2.0375
    3MOL   H366 2290   2.473   3.010   4.431 -0.3972  0.1587 -0.8036
    3MOL   H367 2291   2.638   2.980   4.359  0.2957  3.4427 -1.8736
    3MOL   H368 2292   2.694   3.218   4.451 -0.2710  0.2268  1.3250
    3MOL   H369 2293   2.528   3.236   4.479 -2.4397 -1.4632 -1.2220
    3MOL   H370 2294   2.450   3.191   4.266  0.5804  0.0656  0.4887
    3MOL   H371 2295   2.622   3.151   4.216  0.3445  0.3280 -0.8867
    3MOL   H372 2296   2.676   3.385   4.236 -0.8751  1.5178 -0.1973
    3MOL   H373 2297   2.516   3.407   4.318 -1.3401 -2.6706  0.7800
    3MOL   H374 2298   2.561   3.321   4.024  0.1841  2.0716 -2.0352
    3MOL   H375 2299   2.409   3.332   4.088  1.2343 -1.7058  1.7513
    3MOL   H376 2300   2.612   3.568   4.083 -1.2250 -0.2900  1.4936
    3MOL   H377 2301   2.427   3.584   4.081 -2.2725 -1.5368 -1.2426
    3MOL   H378 2302   2.594   3.692   3.657  0.9365 -0.6189 -0.0166
    3MOL   H379 2303   2.535   3.524   3.667  1.4406  0.9190  0.1402
    3MOL   H380 2304   2.303   3.656   3.707 -0.1529 -0.3476 -0.8620
    3MOL   H381 2305   2.357   3.626   3.538  1.3623 -2.0376  0.1142
    3MOL   H382 2306   2.390   3.889   3.713  2.5696  0.7421 -0.8121
    3MOL   H383 2307   2.285   3.856   3.590 -0.7303  1.3748  2.0997
    3MOL   H384 2308   2.596   3.868   3.545 -0.4240  0.3093 -0.0474
    3MOL   H385 2309   2.496   3.993   3.539  3.6656 -0.0149  1.5489
    3MOL   O386 2310   2.567   3.854   3.294 -0.3285  0.0565 -0.2984
    3MOL   C387 2311   2.561   3.854   3.146  0.4520 -0.2416  0.6439
    3MOL   C388 2312   2.701   3.894   3.082 -1.0305 -0.6397  0.1286
    3MOL   C389 2313   2.828   3.838   3.148  0.1611 -0.1144 -0.8013
    3MOL   C390 2314   2.859   3.710   3.072  0.3122 -0.5828 -0.1154
    3MOL   C391 2315   2.982   3.638   3.112 -0.0602  0.7426  0.2427
    3MOL   C392 2316   3.005   3.510   3.030 -0.3578 -0.4022  1.0660
    3MOL   C393 2317   3.154   3.457   3.048  0.2312  0.3532 -0.3662
    3MOL   C394 2318   3.175   3.313   2.982  0.0929 -0.4188  0.1233
    3MOL   C395 2319   3.316   3.263   3.006  0.0700 -0.6854  1.0139
    3MOL   C396 2320   3.343   3.216   3.150 -0.5263  0.8875 -0.4456
    3MOL   O397 2321   3.478   3.181   3.176  0.1128 -0.3060 -0.3191
    3MOL   C398 2322   3.530   3.074   3.129 -0.2666 -0.5194 -0.3723
    3MOL   O399 2323   3.467   2.982   3.070  0.1241  0.2893  0.0263
    3MOL   C400 2324   3.680   3.070   3.134  0.1068  0.0534  1.2769
    3MOL   C401 2325   3.743   3.163   3.032  0.8203 -0.3135 -0.1140
    3MOL   C402 2326   3.746   3.114   2.885  0.2626  0.1963  0.4442
    3MOL   C403 2327   3.846   3.200   2.808 -0.3996 -0.4881 -0.8874
    3MOL   C404 2328   3.852   3.162   2.660 -0.8851 -0.4219  0.2833
    3MOL   O405 2329   3.941   3.090   2.614  0.3549 -0.1167 -0.1736
    3MOL   H406 2330   2.544   3.750   3.121 -3.4411 -0.4054  3.5326
    3MOL   H407 2331   2.481   3.920   3.113  0.3293 -0.4694  0.4856
    3MOL   H408 2332   2.702   4.001   3.098 -0.9147 -0.4960 -0.8200
    3MOL   H409 2333   2.697   3.883   2.973  2.2193 -0.6038 -0.0570
    3MOL   H410 2334   2.908   3.911   3.135  1.0467 -0.8705  0.3691
    3MOL   H411 2335   2.822   3.813   3.254  0.5205 -0.5302 -0.8769
    3MOL   H412 2336   2.860   3.739   2.967 -1.5408 -0.2007 -0.0585
    3MOL   H413 2337   2.775   3.642   3.087 -0.4535 -0.5064 -3.6143
    3MOL   H414 2338   2.988   3.610   3.217  1.6058 -0.0524 -0.0486
    3MOL   H415 2339   3.059   3.710   3.085 -0.3593  1.1939  0.5724
    3MOL   H416 2340   2.986   3.521   2.923 -0.1525  1.0070  1.1659
    3MOL   H417 2341   2.927   3.440   3.061 -0.6242  0.2297  1.8420
    3MOL   H418 2342   3.189   3.461   3.151  1.5749  0.1266 -0.8026
    3MOL   H419 2343   3.220   3.535   3.009  0.0415  0.6911 -0.0148
    3MOL   H420 2344   3.153   3.307   2.875 -2.2321 -1.5973  0.6292
    3MOL   H421 2345   3.109   3.240   3.028  0.5858 -2.8298 -2.8877
    3MOL   H422 2346   3.336   3.188   2.929 -1.5796  0.6184 -0.7517
    3MOL   H423 2347   3.389   3.342   2.990 -0.0428 -1.2516 -2.6677
    3MOL   H424 2348   3.280   3.130   3.168  0.9529  0.1490  1.4246
    3MOL   H425 2349   3.310   3.291   3.222  0.0155  1.6648 -0.9969
    3MOL   H426 2350   3.708   3.102   3.235  2.5953  2.4049 -0.0776
    3MOL   H427 2351   3.731   2.974   3.129  4.1209  2.2078 -3.3598
    3MOL   H428 2352   3.848   3.176   3.060  0.8102 -2.2157  0.9076
    3MOL   H429 2353   3.693   3.259   3.025 -2.0051 -1.8810 -2.4467
    3MOL   H430 2354   3.645   3.125   2.845 -0.5790  1.3459  2.7977
    3MOL   H431 2355   3.771   3.008   2.881 -0.3738 -0.0874  3.3151
    3MOL   H432 2356   3.944   3.193   2.856 -1.6459 -0.3888  1.8001
    3MOL   H433 2357   3.813   3.304   2.809 -1.0099 -0.6521 -2.3898
    3MOL   O434 2358   3.758   3.216   2.595 -0.1685 -0.3389  0.3475
    3MOL   C435 2359   3.758   3.193   2.454  0.2176 -1.6301  0.2908
    3MOL   C436 2360   3.671   3.289   2.369 -0.1759 -0.3768  0.0649
    3MOL   C437 2361   3.736   3.429   2.350  0.4100  0.5703  0.0812
    3MOL   C438 2362   3.636   3.533   2.293  0.2965 -0.8390  0.7097
    3MOL   C439 2363   3.697   3.673   2.270 -0.5712 -0.4625  0.5154
    3MOL   C440 2364   3.819   3.673   2.176 -0.1222  0.1409 -0.3533
    3MOL   C441 2365   3.884   3.815   2.153 -0.1243  0.6512  0.1518
    3MOL   C442 2366   3.964   3.870   2.274 -0.1726  0.5188 -0.4256
    3MOL   C443 2367   4.012   4.017   2.248  0.5491 -0.2888  0.3058
    3MOL   C444 2368   4.092   4.088   2.354  0.3000 -0.3921 -0.4454
    3MOL   O445 2369   4.213   4.024   2.367  0.1730  0.7281  0.3607
    3MOL   C446 2370   4.307   4.074   2.454 -0.1390  0.7637  0.6054
    3MOL   O447 2371   4.290   4.167   2.529  0.1339  0.1817 -0.2347
    3MOL   C448 2372   4.428   3.993   2.451 -0.0932 -0.4100  0.5477
    3MOL   C449 2373   4.415   3.875   2.552 -0.3352 -1.0332 -0.1500
    3MOL   C450 2374   4.343   3.746   2.499 -0.0472 -0.5592  0.1036
    3MOL   C451 2375   4.208   3.706   2.565  0.8225 -0.4738 -0.1175
    3MOL   C452 2376   4.119   3.595   2.496 -0.9207  0.2771 -0.0288
    3MOL   O453 2377   4.001   3.619   2.472 -0.1321  0.0480 -0.0785
    3MOL   H454 2378   3.861   3.217   2.425 -0.6550  1.1660 -0.7139
    3MOL   H455 2379   3.739   3.086   2.450 -0.4171 -1.4942 -0.3658
    3MOL   H456 2380   3.568   3.296   2.406  0.2604  1.0820  1.0423
    3MOL   H457 2381   3.652   3.248   2.270  0.0111  1.0535 -0.5777
    3MOL   H458 2382   3.777   3.469   2.443 -2.0891  1.7446  0.7487
    3MOL   H459 2383   3.817   3.409   2.281  1.1123  3.2528  0.0531
    3MOL   H460 2384   3.562   3.547   2.372  1.3871 -1.5239  1.8668
    3MOL   H461 2385   3.583   3.500   2.204  0.0167  0.3147  0.4381
    3MOL   H462 2386   3.715   3.731   2.360  0.3343  0.0818  0.0006
    3MOL   H463 2387   3.616   3.730   2.224 -0.0612 -0.1086  0.0372
    3MOL   H464 2388   3.802   3.615   2.085 -1.1202  1.5653 -1.0823
    3MOL   H465 2389   3.905   3.623   2.221 -0.6219 -0.1136  0.3217
    3MOL   H466 2390   3.801   3.882   2.129 -2.0736 -1.6710  0.2861
    3MOL   H467 2391   3.957   3.810   2.072 -0.8640 -0.5831 -0.4493
    3MOL   H468 2392   4.052   3.808   2.295 -1.5658 -1.0905  0.8974
    3MOL   H469 2393   3.911   3.854   2.369 -0.6704 -3.1002 -1.2343
    3MOL   H470 2394   4.069   4.024   2.155  0.0676  2.6128  0.1892
    3MOL   H471 2395   3.922   4.074   2.227  1.4803  0.6801 -1.1597
    3MOL   H472 2396   4.037   4.089   2.448  2.8787 -2.2538  1.1662
    3MOL   H473 2397   4.100   4.195   2.335  0.6360 -0.5552 -1.2477
    3MOL   H474 2398   4.434   3.961   2.347 -0.5975 -2.0186  0.9943
    3MOL   H475 2399   4.523   4.044   2.466  1.0302 -2.2399 -0.2242
    3MOL   H476 2400   4.365   3.910   2.643 -0.4083 -2.3760  0.3453
    3MOL   H477 2401   4.514   3.838   2.580 -0.0004 -0.1125 -0.1169
    3MOL   H478 2402   4.414   3.664   2.508  0.0464 -0.6957 -1.8027
    3MOL   H479 2403   4.326   3.758   2.392 -0.1804  2.5140  0.4126
    3MOL   H480 2404   4.149   3.797   2.560 -2.3867 -2.4805 -0.0724
    3MOL   H481 2405   4.221   3.682   2.670 -2.0720 -2.5983 -0.1725
    3MOL   O482 2406   4.188   3.482   2.468  0.2849 -0.9047  0.0665
    3MOL   C483 2407   4.121   3.383   2.395 -0.3080  0.2602  0.3236
    3MOL   C484 2408   4.195   3.246   2.426  0.4391 -0.7436 -0.1070
    3MOL   C485 2409   4.322   3.232   2.339  0.6283  0.0160 -0.2821
    3MOL   C486 2410   4.382   3.103   2.360 -0.5314  0.4050  0.3324
    3MOL   C487 2411   4.473   3.049   2.243 -0.7514  0.0664  0.0925
    3MOL   C488 2412   4.584   2.956   2.287  0.4258 -0.2553 -0.1973
    3MOL   C489 2413   4.660   2.900   2.166  0.6393 -0.2149 -0.4050
    3MOL   C490 2414   4.772   2.806   2.199 -0.3438 -0.3265  0.4794
    3MOL   C491 2415   4.727   2.663   2.255  0.1591  0.7854  0.5509
    3MOL   C492 2416   4.840   2.579   2.307 -0.1232  0.9250 -0.3958
    3MOL   O493 2417   4.879   2.661   2.415 -0.7153  0.0465  0.7026
    3MOL   C494 2418   4.943   2.611   2.518 -0.6970 -0.4805 -0.0929
    3MOL   O495 2419   4.979   2.497   2.534  0.1737  0.3118  0.0712
    3MOL   C496 2420   4.983   2.708   2.631 -0.4193  0.1049  0.1027
    3MOL   C497 2421   4.879   2.813   2.677 -0.4545  0.2650 -0.3511
    3MOL   C498 2422   4.887   2.942   2.601 -0.1210 -0.0610 -0.4337
    3MOL   C499 2423   4.768   3.035   2.625  0.0880 -0.0203  0.0549
    3MOL   C500 2424   4.792   3.184   2.595 -0.0735 -0.3127  0.5735
    3MOL   O501 2425   4.907   3.228   2.608 -0.8461  0.0998  0.0498
    3MOL   H502 2426   4.016   3.383   2.424 -0.2283 -0.1577  0.6185
    3MOL   H503 2427   4.118   3.415   2.291  0.9725  1.9545  0.7649
    3MOL   H504 2428   4.125   3.165   2.405 -1.2638  1.1162 -1.9994
    3MOL   H505 2429   4.221   3.239   2.531 -2.2222 -1.1705  0.5768
    3MOL   H506 2430   4.307   3.255   2.234  2.5735 -0.6036 -0.7103
    3MOL   H507 2431   4.390   3.310   2.375  0.4208  0.0680 -0.0003
    3MOL   H508 2432   4.311   3.028   2.396  1.5831 -2.6403 -1.5950
    3MOL   H509 2433   4.454   3.103   2.441 -1.1345 -0.5717  0.8796
    3MOL   H510 2434   4.504   3.140   2.193  0.3590  0.2509  1.0946
    3MOL   H511 2435   4.406   2.997   2.175 -3.0047  0.2538  2.0552
    3MOL   H512 2436   4.534   2.870   2.332 -0.1473  1.8869  3.4702
    3MOL   H513 2437   4.653   3.006   2.356  1.7149  1.3890 -2.5923
    3MOL   H514 2438   4.708   2.986   2.120 -1.4762  0.3961 -1.5100
    3MOL   H515 2439   4.600   2.863   2.083 -1.2266 -1.5335  1.4741
    3MOL   H516 2440   4.840   2.855   2.268 -0.9140  3.0503 -1.2867
    3MOL   H517 2441   4.820   2.790   2.102  0.3100 -0.4511  0.8201
    3MOL   H518 2442   4.655   2.667   2.337 -0.1037  1.8720  0.2722
    3MOL   H519 2443   4.676   2.607   2.177 -3.2280  1.8550  1.9472
    3MOL   H520 2444   4.920   2.580   2.232  0.0250 -1.9774 -0.3417
    3MOL   H521 2445   4.800   2.483   2.338  2.1225 -0.5916 -2.0815
    3MOL   H522 2446   4.995   2.634   2.710  1.8883 -0.5556 -0.8183
    3MOL   H523 2447   5.077   2.761   2.612 -0.3254 -0.4403 -0.9479
    3MOL   H524 2448   4.902   2.834   2.781  0.0877 -0.5324 -0.2944
    3MOL   H525 2449   4.779   2.770   2.671 -1.2862  2.3410 -2.2263
    3MOL   H526 2450   4.891   2.922   2.494  0.5050  0.3760 -0.4960
    3MOL   H527 2451   4.990   2.976   2.615 -0.1140 -0.7843  1.4606
    3MOL   H528 2452   4.738   3.035   2.730  0.3998 -0.1561  0.1449
    3MOL   H529 2453   4.683   2.989   2.575 -0.6541 -1.0155  2.1527
    3MOL   O530 2454   4.687   3.258   2.557  0.3095 -0.2315 -0.5744
    3MOL   C531 2455   4.690   3.404   2.539 -0.4869 -0.3495  0.3573
    3MOL   C532 2456   4.626   3.467   2.661 -0.4671 -0.1546  0.0035
    3MOL   C533 2457   4.476   3.418   2.673 -0.2521 -0.0625 -0.3722
    3MOL   C534 2458   4.405   3.477   2.795 -0.0581 -0.1209  0.1669
    3MOL   C535 2459   4.277   3.408   2.843 -0.1323  0.1776  1.1963
    3MOL   C536 2460   4.199   3.487   2.959 -0.1486 -0.1757  0.2910
    3MOL   C537 2461   4.079   3.410   3.018  0.0682  0.6459  0.8112
    3MOL   C538 2462   4.017   3.470   3.151 -0.9232  0.7878 -0.0103
    3MOL   C539 2463   4.122   3.487   3.262 -0.3812  0.0321  0.2587
    3MOL   C540 2464   4.073   3.544   3.390 -0.9974 -0.1647 -0.5950
    3MOL   O541 2465   4.185   3.592   3.465 -0.4050  0.2799 -0.0023
    3MOL   C542 2466   4.274   3.510   3.514  0.5006  0.0636  0.1236
    3MOL   O543 2467   4.258   3.390   3.532  0.3754 -0.0102 -0.0445
    3MOL   C544 2468   4.407   3.580   3.553  0.1318  0.4223 -0.4787
    3MOL   C545 2469   4.529   3.491   3.588  0.0490 -0.6528  0.3203
    3MOL   C546 2470   4.520   3.398   3.711  0.1441  0.4120  0.4252
    3MOL   C547 2471   4.646   3.362   3.788  0.3526  0.4607  0.4453
    3MOL   C548 2472   4.682   3.471   3.888 -0.0462 -0.3768 -0.3226
    3MOL   O549 2473   4.713   3.581   3.856  0.4424  0.4582  0.2431
    3MOL   H550 2474   4.788   3.451   2.528 -1.1528  1.6212  2.5633
    3MOL   H551 2475   4.631   3.427   2.451  1.3899  2.0168 -0.3579
    3MOL   H552 2476   4.626   3.573   2.636  0.4922  0.0377  0.7991
    3MOL   H553 2477   4.684   3.442   2.750  1.3201  0.9917 -0.8229
    3MOL   H554 2478   4.429   3.450   2.580  0.1974  1.0276 -0.2339
    3MOL   H555 2479   4.472   3.310   2.660  0.7689 -0.1497  0.0121
    3MOL   H556 2480   4.387   3.584   2.781  0.0910  0.1357  1.8344
    3MOL   H557 2481   4.482   3.467   2.871  0.3065 -0.0646 -0.1950
    3MOL   H558 2482   4.322   3.316   2.880 -1.3343 -1.1639 -0.5823
    3MOL   H559 2483   4.208   3.386   2.761 -2.0504  2.0872  2.2364
    3MOL   H560 2484   4.160   3.581   2.920  1.5965 -0.6477 -2.6643
    3MOL   H561 2485   4.272   3.499   3.039 -0.2492 -1.7556  0.6416
    3MOL   H562 2486   4.115   3.308   3.035 -0.6453  0.3601  0.6397
    3MOL   H563 2487   4.013   3.401   2.932  2.2220  0.2924 -0.8401
    3MOL   H564 2488   3.940   3.399   3.181  0.8458 -2.2041 -2.2150
    3MOL   H565 2489   3.966   3.566   3.141 -0.3670  1.5615  3.8248
    3MOL   H566 2490   4.175   3.392   3.267 -0.2291  0.1445  0.8780
    3MOL   H567 2491   4.200   3.552   3.224 -0.3252 -1.4881 -2.3916
    3MOL   H568 2492   4.034   3.459   3.446  1.7204 -0.2822  1.2064
    3MOL   H569 2493   4.004   3.623   3.359 -0.1958  0.6682 -0.2636
    3MOL   H570 2494   4.445   3.638   3.469  0.6250  0.5509 -0.1716
    3MOL   H571 2495   4.382   3.653   3.631  2.3337 -0.6609  1.2862
    3MOL   H572 2496   4.609   3.565   3.593  0.9254 -1.5196 -0.5969
    3MOL   H573 2497   4.561   3.423   3.509  0.1850 -0.6888  0.4049
    3MOL   H574 2498   4.456   3.311   3.691 -2.2846  2.7497 -2.5158
    3MOL   H575 2499   4.465   3.451   3.788  0.3028  1.0030  0.1328
    3MOL   H576 2500   4.737   3.355   3.728 -0.1901  0.3474 -0.3789
    3MOL   H577 2501   4.631   3.269   3.842  3.9337  0.9734  2.4450
    3MOL   O578 2502   4.670   3.432   4.016  0.0106 -0.1060 -0.1650
    3MOL   C579 2503   4.680   3.531   4.118 -0.6601  0.1099  0.8207
    3MOL   C580 2504   4.651   3.459   4.248  0.1685  0.2419 -0.7568
    3MOL   C581 2505   4.656   3.570   4.362 -0.2402  0.2417 -0.2101
    3MOL   C582 2506   4.620   3.518   4.501  0.0213  0.0147 -0.6297
    3MOL   C583 2507   4.641   3.626   4.613 -0.2957 -0.1298 -0.2762
    3MOL   C584 2508   4.582   3.593   4.756  0.4547 -0.0328 -0.1569
    3MOL   C585 2509   4.597   3.702   4.855 -0.4606  0.0748  0.3365
    3MOL   C586 2510   4.505   3.685   4.971 -0.0719 -0.2155  0.1450
    3MOL   C587 2511   4.525   3.779   5.088 -0.4061 -0.0621  0.2955
    3MOL   C588 2512   4.429   3.742   5.205 -0.0936 -0.7572 -0.2541
    3MOL   O589 2513   4.497   3.801   5.314  0.2969  0.7394 -0.4018
    3MOL   C590 2514   4.446   3.909   5.379 -0.3922 -0.1272  0.4377
    3MOL   O591 2515   4.347   3.973   5.346  0.5084  0.2567  0.5257
    3MOL   C592 2516   4.540   3.955   5.484  0.1278 -0.1035 -0.8457
    3MOL   C593 2517   4.683   3.997   5.431  1.1616 -0.0118  0.1906
    3MOL   C594 2518   4.775   4.059   5.536 -0.5370 -0.1046  0.0983
    3MOL   C595 2519   4.901   3.968   5.584 -0.9915 -0.1930  0.2847
    3MOL   C596 2520   5.014   3.948   5.487 -0.3128  0.1181  0.2012
    3MOL   O597 2521   5.119   4.012   5.486  0.1927  0.4496 -0.2893
    3MOL   H598 2522   4.780   3.574   4.110 -0.1740 -1.3222 -1.0902
    3MOL   H599 2523   4.608   3.608   4.093  0.7512  1.5859  1.2433
    3MOL   H600 2524   4.739   3.398   4.267 -0.2639 -1.1762 -3.0518
    3MOL   H601 2525   4.559   3.400   4.252  1.7607 -2.3743 -1.6829
    3MOL   H602 2526   4.758   3.607   4.359 -1.1279  2.7759 -0.7592
    3MOL   H603 2527   4.586   3.652   4.343 -1.0641 -0.1817  0.9506
    3MOL   H604 2528   4.676   3.431   4.535 -0.6610 -0.6262 -1.1332
    3MOL   H605 2529   4.513   3.498   4.508  0.0719  0.5104  1.9411
    3MOL   H606 2530   4.608   3.721   4.572 -0.0479  0.2711  0.4594
    3MOL   H607 2531   4.748   3.650   4.613 -0.4385  0.5647 -1.4544
    3MOL   H608 2532   4.617   3.491   4.775  2.4509  0.6867  0.0782
    3MOL   H609 2533   4.477   3.577   4.733  0.2101  0.5911  0.5125
    3MOL   H610 2534   4.566   3.801   4.820  0.5923 -0.1202 -1.1943
    3MOL   H611 2535   4.701   3.707   4.888 -0.5202  1.2472  0.3636
    3MOL   H612 2536   4.519   3.585   5.011 -2.7379 -1.3229 -1.5099
    3MOL   H613 2537   4.399   3.687   4.946  0.0574  0.1104 -0.3801
    3MOL   H614 2538   4.626   3.769   5.128 -0.0823 -1.1347 -0.7480
    3MOL   H615 2539   4.521   3.884   5.060 -0.1697  0.3612  1.8093
    3MOL   H616 2540   4.420   3.637   5.234  0.9840 -0.7216  0.2598
    3MOL   H617 2541   4.329   3.783   5.197  0.7937  1.6051  0.0916
    3MOL   H618 2542   4.489   4.040   5.529 -0.6081 -1.1821  0.3611
    3MOL   H619 2543   4.544   3.880   5.562 -0.5599 -0.6298 -1.3127
    3MOL   H620 2544   4.665   4.060   5.344 -0.6064 -0.4829  0.1904
    3MOL   H621 2545   4.733   3.908   5.393 -0.8462 -1.3416  0.5578
    3MOL   H622 2546   4.720   4.085   5.627 -2.5559  1.3476 -1.5185
    3MOL   H623 2547   4.813   4.153   5.499 -2.4574  0.9211  0.6526
    3MOL   H624 2548   4.881   3.872   5.632 -1.1457  0.4967  1.6329
    3MOL   H625 2549   4.944   4.021   5.669  1.6358  0.2799 -1.3013
    3MOL   O626 2550   4.986   3.845   5.396 -0.2155 -0.3653 -0.0150
    3MOL   C627 2551   5.070   3.814   5.287 -0.4884  0.3534  0.1418
    3MOL   C628 2552   5.071   3.911   5.161  0.4751 -0.3077 -0.6872
    3MOL   C629 2553   4.929   3.928   5.101 -0.6120  0.2559  0.6669
    3MOL   C630 2554   4.936   4.014   4.977  0.5234 -0.1081  0.0371
    3MOL   C631 2555   4.804   3.999   4.901  0.4254 -0.1280 -0.4036
    3MOL   C632 2556   4.822   4.070   4.758  0.1885  0.2547  0.4073
    3MOL   C633 2557   4.700   4.056   4.668 -0.0264  0.6741 -0.5045
    3MOL   C634 2558   4.731   4.095   4.525  0.2045 -0.2208  0.0746
    3MOL   C635 2559   4.616   4.067   4.426  0.1322 -0.6204  0.6755
    3MOL   C636 2560   4.657   4.097   4.278  0.4074 -0.0055 -0.1521
    3MOL   O637 2561   4.673   4.242   4.259  0.0896 -0.1838  0.1973
    3MOL   C638 2562   4.742   4.293   4.155  0.2389 -0.8053 -0.0526
    3MOL   O639 2563   4.789   4.231   4.063  0.1307 -0.0481  0.1904
    3MOL   C640 2564   4.738   4.445   4.146 -0.4031 -0.3869  0.5493
    3MOL   C641 2565   4.860   4.515   4.073  0.5746  0.3565  0.4070
    3MOL   C642 2566   4.862   4.667   4.074  0.4579 -0.0965  0.1074
    3MOL   C643 2567   4.737   4.730   4.010  0.4173 -0.3799  0.3988
    3MOL   C644 2568   4.637   4.785   4.107  0.3661  0.2744  0.1221
    3MOL   O645 2569   4.531   4.722   4.128 -0.0120 -0.3411 -0.1937
    3MOL   H646 2570   5.174   3.809   5.319 -1.1807 -0.2381  2.4171
    3MOL   H647 2571   5.045   3.708   5.273  1.7430 -0.3456  1.2322
    3MOL   H648 2572   5.140   3.868   5.089  0.7815 -1.1974  0.1341
    3MOL   H649 2573   5.116   4.008   5.184 -0.1092 -0.3616  0.7580
    3MOL   H650 2574   4.895   3.828   5.073 -0.5746  1.0274 -2.3486
    3MOL   H651 2575   4.853   3.970   5.168 -1.9500  1.9599 -1.8210
    3MOL   H652 2576   5.017   3.976   4.915  0.9388 -0.4127  0.7553
    3MOL   H653 2577   4.966   4.115   5.003  0.3169 -0.1130  0.3018
    3MOL   H654 2578   4.721   4.039   4.959  0.1989  0.6500 -1.2645
    3MOL   H655 2579   4.785   3.894   4.878 -2.2988  0.7682 -2.4757
    3MOL   H656 2580   4.908   4.026   4.707  0.1352  1.3979 -0.7002
    3MOL   H657 2581   4.842   4.177   4.765  0.0268  0.3185 -0.0678
    3MOL   H658 2582   4.617   4.109   4.713  0.0886 -0.0091  0.5518
    3MOL   H659 2583   4.683   3.948   4.664  0.9047  0.4355  1.0720
    3MOL   H660 2584   4.814   4.032   4.492  1.6898  1.3839  0.6771
    3MOL   H661 2585   4.766   4.198   4.516  1.4616 -0.5288  1.3223
    3MOL   H662 2586   4.590   3.962   4.434  0.0145 -0.5809  0.8055
    3MOL   H663 2587   4.539   4.136   4.462  0.3996 -0.1031  0.2693
    3MOL   H664 2588   4.583   4.055   4.210  0.0152  2.8133 -1.5397
    3MOL   H665 2589   4.753   4.055   4.248  0.7549  0.4064  0.3665
    3MOL   H666 2590   4.646   4.474   4.096 -1.4763 -1.8625  1.6070
    3MOL   H667 2591   4.738   4.478   4.250  0.5357  1.1333  0.0837
    3MOL   H668 2592   4.852   4.472   3.974  2.2246  0.4795  0.2185
    3MOL   H669 2593   4.952   4.480   4.120  0.6517  0.5687  0.4134
    3MOL   H670 2594   4.950   4.696   4.016 -0.1117 -0.4373 -0.9557
    3MOL   H671 2595   4.864   4.701   4.177 -0.6664 -0.7930  0.3683
    3MOL   H672 2596   4.689   4.661   3.941 -0.2363 -1.4608  1.9093
    3MOL   H673 2597   4.765   4.814   3.946  2.4819 -1.0459  0.3935
    3MOL   O674 2598   4.685   4.884   4.176 -0.4354  0.2773 -0.0912
    3MOL   C675 2599   4.605   4.942   4.275  0.4611  0.2648 -0.2847
    3MOL   C676 2600   4.653   5.092   4.305 -0.3655 -0.0509 -0.1918
    3MOL   C677 2601   4.628   5.193   4.191  0.9287 -0.5299 -0.1361
    3MOL   C678 2602   4.685   5.331   4.213  0.2670  0.6770  0.6659
    3MOL   C679 2603   4.644   5.429   4.109  0.5494 -0.0500  0.2902
    3MOL   C680 2604   4.709   5.564   4.134 -0.4085  0.1423 -1.0640
    3MOL   C681 2605   4.705   5.668   4.016  0.2715  0.4460 -0.0192
    3MOL   C682 2606   4.573   5.741   3.989 -0.6900 -0.1306  0.2027
    3MOL   C683 2607   4.537   5.856   4.076 -0.0106  0.0124  0.3272
    3MOL   C684 2608   4.401   5.927   4.052 -0.3544 -0.2413  0.5633
    3MOL   O685 2609   4.406   6.056   4.114  0.3973 -0.0280 -0.7535
    3MOL   C686 2610   4.392   6.071   4.244 -0.4584 -0.4529 -0.3897
    3MOL   O687 2611   4.380   5.988   4.331 -0.0982  0.6085 -0.4059
    3MOL   C688 2612   4.406   6.220   4.276  0.1522  0.1653 -0.2972
    3MOL   C689 2613   4.288   6.306   4.231 -0.0409  0.1582 -0.4213
    3MOL   C690 2614   4.320   6.458   4.240 -0.0586 -0.2655  0.0322
    3MOL   C691 2615   4.203   6.546   4.190  0.7227 -0.3401 -0.1208
    3MOL   C692 2616   4.085   6.538   4.291  0.4084  0.2092  0.7616
    3MOL   O693 2617   4.083   6.630   4.373  0.7389  0.5489 -0.1660
    3MOL   H694 2618   4.499   4.933   4.250  0.6832  1.5723 -1.8158
    3MOL   H695 2619   4.617   4.883   4.365 -0.0799 -1.8309 -1.5521
    3MOL   H696 2620   4.759   5.081   4.324 -0.3666  0.0456 -0.1313
    3MOL   H697 2621   4.608   5.121   4.399  0.8812  0.0880  0.3705
    3MOL   H698 2622   4.685   5.168   4.102  1.0437 -2.2642  0.4012
    3MOL   H699 2623   4.524   5.197   4.158  0.7992  4.2682  0.4778
    3MOL   H700 2624   4.793   5.317   4.208  0.2524  0.8389 -0.3014
    3MOL   H701 2625   4.651   5.363   4.311  2.5564  3.3178  0.6681
    3MOL   H702 2626   4.539   5.448   4.087  1.2849  1.5796 -1.9907
    3MOL   H703 2627   4.683   5.402   4.011 -3.7627  0.4967 -1.7202
    3MOL   H704 2628   4.814   5.545   4.155 -0.9058 -2.5166 -0.8114
    3MOL   H705 2629   4.676   5.608   4.228  0.7974 -2.1754  0.4890
    3MOL   H706 2630   4.729   5.628   3.918 -2.5626  1.0435 -1.0172
    3MOL   H707 2631   4.784   5.739   4.042  1.4708 -1.2786  1.1348
    3MOL   H708 2632   4.491   5.670   3.998 -2.0116  1.2991 -0.3206
    3MOL   H709 2633   4.575   5.772   3.884 -0.0586 -1.2140 -0.1074
    3MOL   H710 2634   4.549   5.837   4.183 -0.2861  1.4864  0.6391
    3MOL   H711 2635   4.611   5.932   4.051 -0.2433 -0.1392 -0.8355
    3MOL   H712 2636   4.314   5.871   4.086 -0.2117  0.1466  1.5761
    3MOL   H713 2637   4.389   5.960   3.949 -0.3949 -2.6287 -0.2196
    3MOL   H714 2638   4.419   6.226   4.384  1.3680 -0.7615 -0.3830
    3MOL   H715 2639   4.495   6.256   4.225 -0.2453 -1.1140 -1.9120
    3MOL   H716 2640   4.210   6.284   4.304 -0.1563 -0.0548 -0.6080
    3MOL   H717 2641   4.252   6.270   4.135 -2.1374 -0.6039  0.6272
    3MOL   H718 2642   4.412   6.484   4.187 -0.6363  0.4689 -0.6345
    3MOL   H719 2643   4.329   6.476   4.347  1.7209  1.3235 -0.3472
    3MOL   H720 2644   4.186   6.511   4.088 -0.2618 -1.3131  0.3696
    3MOL   H721 2645   4.236   6.650   4.185 -0.5873  0.1156  0.4412
    3MOL   O722 2646   4.002   6.430   4.273 -0.1476  0.2435 -0.8921
    3MOL   C723 2647   3.894   6.409   4.368  0.2894  0.2385  0.1147
    3MOL   C724 2648   3.928   6.304   4.472 -0.2580  0.0264 -0.4661
    3MOL   C725 2649   3.806   6.239   4.537  0.1925 -0.6470  0.2989
    3MOL   C726 2650   3.711   6.152   4.456  0.1911  0.4038 -0.2947
    3MOL   C727 2651   3.597   6.090   4.552 -0.7438 -0.6127  0.5170
    3MOL   C728 2652   3.481   6.029   4.479 -0.2416 -0.3515 -0.6105
    3MOL   C729 2653   3.360   5.997   4.560  0.2370 -0.3974 -0.4145
    3MOL   C730 2654   3.259   5.918   4.485  0.5206 -0.4520 -0.4922
    3MOL   C731 2655   3.137   5.875   4.571 -0.4241 -0.1502  0.2153
    3MOL   C732 2656   3.016   5.842   4.479  0.0794 -0.0583 -0.2105
    3MOL   O733 2657   2.896   5.854   4.554 -0.2559 -0.0550 -0.1966
    3MOL   C734 2658   2.786   5.792   4.522 -0.0467 -0.3026  0.1625
    3MOL   O735 2659   2.782   5.702   4.432  0.2458 -0.2285 -0.1226
    3MOL   C736 2660   2.664   5.830   4.601  0.6303 -0.4720  0.0559
    3MOL   C737 2661   2.691   5.834   4.744  0.3051  0.5755 -0.1467
    3MOL   C738 2662   2.722   5.970   4.794 -0.5074 -0.3067 -0.5829
    3MOL   C739 2663   2.772   5.973   4.943 -0.7439 -0.9039 -1.5186
    3MOL   C740 2664   2.662   5.947   5.043  0.1505 -0.1902  0.6099
    3MOL   O741 2665   2.543   5.947   5.012 -0.0447 -0.5112 -0.1628
    3MOL   H742 2666   3.844   6.501   4.399 -0.2832  0.3714 -1.1722
    3MOL   H743 2667   3.817   6.366   4.304 -0.3980  1.4301  0.1237
    3MOL   H744 2668   3.985   6.348   4.554 -0.3623 -1.3637  0.3824
    3MOL   H745 2669   3.995   6.229   4.428  1.3310  1.9058 -1.3184
    3MOL   H746 2670   3.828   6.179   4.625  0.3737  0.7854  1.2582
    3MOL   H747 2671   3.746   6.321   4.576 -0.3830 -0.3183 -1.2634
    3MOL   H748 2672   3.767   6.073   4.405  2.4050  1.3648  0.5711
    3MOL   H749 2673   3.674   6.205   4.368  0.5907  2.2711  0.6302
    3MOL   H750 2674   3.558   6.173   4.611  1.5151 -0.0732  1.2774
    3MOL   H751 2675   3.639   6.013   4.617  0.5383 -0.4469 -0.1086
    3MOL   H752 2676   3.520   5.942   4.426  0.4164 -1.1850  1.2123
    3MOL   H753 2677   3.455   6.103   4.403 -3.0790 -1.2639 -0.6120
    3MOL   H754 2678   3.315   6.088   4.601 -0.5885 -0.6368 -0.7814
    3MOL   H755 2679   3.399   5.940   4.644  1.1020  1.2371  0.3168
    3MOL   H756 2680   3.302   5.839   4.424  2.3415 -0.9764  1.4088
    3MOL   H757 2681   3.220   5.980   4.403 -1.0421 -2.7642 -1.5420
    3MOL   H758 2682   3.173   5.789   4.628  0.9952  0.0836 -0.3020
    3MOL   H759 2683   3.107   5.950   4.644  1.5083 -0.3803  1.2724
    3MOL   H760 2684   3.031   5.744   4.433  0.5901 -0.1908  0.2361
    3MOL   H761 2685   3.013   5.899   4.386  0.2521  1.8550  0.9494
    3MOL   H762 2686   2.619   5.927   4.577  0.4859 -0.7435 -0.7966
    3MOL   H763 2687   2.588   5.753   4.588  3.4065 -3.6022  1.6500
    3MOL   H764 2688   2.779   5.774   4.766 -0.4859 -1.2685 -1.9286
    3MOL   H765 2689   2.610   5.784   4.797 -0.8660  0.1679 -2.2646
    3MOL   H766 2690   2.632   6.032   4.797  0.2657  0.7964  0.1668
    3MOL   H767 2691   2.798   6.012   4.728 -0.0223  0.5154  0.4874
    3MOL   H768 2692   2.799   6.075   4.971  0.3875 -1.1397 -1.7383
    3MOL   H769 2693   2.860   5.912   4.965 -0.2665 -0.1717 -1.3550
    3MOL   O770 2694   2.702   5.946   5.170  0.3812 -0.0269 -0.5270
    3MOL   C771 2695   2.607   5.921   5.276  0.3604 -0.7581  0.0014
    3MOL   C772 2696   2.680   5.868   5.404  0.4487 -1.1570  0.4561
    3MOL   C773 2697   2.755   5.984   5.476 -0.4421  0.1258  0.4236
    3MOL   C774 2698   2.858   5.929   5.582 -0.1818  1.2286 -0.0696
    3MOL   C775 2699   2.940   6.043   5.651  0.3580  0.5399  0.5557
    3MOL   C776 2700   3.011   5.992   5.778  0.5561  0.4549  0.3296
    3MOL   C777 2701   2.932   5.968   5.909  0.3379  0.5912  0.1256
    3MOL   C778 2702   3.020   5.929   6.028  0.4633  0.5643 -0.3506
    3MOL   C779 2703   2.923   5.904   6.145  0.3142 -0.3010 -0.0631
    3MOL   C780 2704   2.988   5.858   6.275 -0.1044  0.0465  0.1186
    3MOL   O781 2705   3.044   5.732   6.249 -0.3327 -0.3302 -0.4537
    3MOL   C782 2706   3.157   5.683   6.314  0.5899 -0.8203 -0.9038
    3MOL   O783 2707   3.224   5.745   6.395  0.5239  0.0008 -0.7781
    3MOL   C784 2708   3.197   5.543   6.272  0.3658 -0.4331  0.2065
    3MOL   C785 2709   3.337   5.489   6.304  0.2830 -0.1485  0.0939
    3MOL   C786 2710   3.380   5.356   6.249  0.0729  0.0268 -1.0852
    3MOL   C787 2711   3.488   5.279   6.331  0.1287  0.4713  0.0003
    3MOL   C788 2712   3.637   5.295   6.280  0.7114 -0.0594  0.0708
    3MOL   O789 2713   3.720   5.206   6.285 -0.5911 -0.6224  0.1532
    3MOL   H790 2714   2.567   6.021   5.292 -0.3719 -1.0313 -0.1053
    3MOL   H791 2715   2.519   5.862   5.250 -0.9040  1.4859 -0.9627
    3MOL   H792 2716   2.757   5.799   5.371 -1.0260 -2.0874 -1.0665
    3MOL   H793 2717   2.611   5.817   5.471  0.4033 -0.6166  0.8241
    3MOL   H794 2718   2.793   6.048   5.397  1.2658 -1.4739 -0.0790
    3MOL   H795 2719   2.681   6.035   5.537 -3.5762 -1.8078 -1.6638
    3MOL   H796 2720   2.930   5.861   5.537 -1.1589  0.4309 -0.4204
    3MOL   H797 2721   2.797   5.864   5.645  1.0144  0.2571  0.0943
    3MOL   H798 2722   2.874   6.122   5.687  0.5750  0.4765  1.1030
    3MOL   H799 2723   3.013   6.088   5.584  0.5596  1.2244  1.2294
    3MOL   H800 2724   3.091   6.066   5.790  2.2591 -1.0740 -1.1486
    3MOL   H801 2725   3.070   5.902   5.760  2.1331  1.1739  1.7780
    3MOL   H802 2726   2.855   5.893   5.894  0.4576  0.4998 -0.0277
    3MOL   H803 2727   2.881   6.062   5.929 -2.3224 -0.5901 -0.9265
    3MOL   H804 2728   3.100   5.999   6.051  0.6613 -0.1714  1.2915
    3MOL   H805 2729   3.081   5.844   5.997  0.2202  0.3099 -0.1336
    3MOL   H806 2730   2.861   5.989   6.176  0.6202  0.2852 -1.0267
    3MOL   H807 2731   2.856   5.830   6.103  0.1573  0.0417 -0.4221
    3MOL   H808 2732   2.914   5.848   6.355  0.1840 -1.9572  0.1624
    3MOL   H809 2733   3.057   5.941   6.292  1.7255 -1.4663  0.2744
    3MOL   H810 2734   3.117   5.483   6.316 -1.1668  1.7147  0.4351
    3MOL   H811 2735   3.176   5.535   6.165 -1.0572  2.6585  0.2165
    3MOL   H812 2736   3.333   5.476   6.412  2.3186  0.7433  0.3075
    3MOL   H813 2737   3.414   5.565   6.291 -0.9439  1.1283  0.1898
    3MOL   H814 2738   3.408   5.366   6.145  1.6923 -2.1846 -0.8992
    3MOL   H815 2739   3.288   5.297   6.259 -1.6292  2.5786 -1.3859
    3MOL   H816 2740   3.473   5.171   6.322 -0.1489  0.3229  2.1719
    3MOL   H817 2741   3.470   5.307   6.434 -0.8945  0.5717 -0.1977
    3MOL   O818 2742   3.655   5.414   6.222  0.3439 -0.9951  0.0515
    3MOL   C819 2743   3.771   5.432   6.145 -0.7335  0.3210  0.1070
    3MOL   C820 2744   3.741   5.557   6.067  0.2320 -0.3113  0.2448
    3MOL   C821 2745   3.857   5.586   5.971  0.4729 -0.2710  0.4323
    3MOL   C822 2746   3.819   5.703   5.873  0.2439 -0.1588 -0.1536
    3MOL   C823 2747   3.738   5.647   5.753  0.2002 -0.1038 -0.4375
    3MOL   C824 2748   3.716   5.754   5.648  0.3543  0.3365 -0.6609
    3MOL   C825 2749   3.648   5.706   5.520 -1.4312 -0.0841  0.3380
    3MOL   C826 2750   3.646   5.794   5.397 -0.2606  0.1870  0.3382
    3MOL   C827 2751   3.592   5.726   5.273  0.7684  0.0421 -0.1641
    3MOL   C828 2752   3.588   5.798   5.136  0.2289 -0.8252  0.0231
    3MOL   O829 2753   3.499   5.724   5.049  0.2010  0.1028  0.2398
    3MOL   C830 2754   3.488   5.767   4.928  0.2096  0.3911 -0.0884
    3MOL   O831 2755   3.553   5.853   4.871  0.4424  0.7703 -0.4205
    3MOL   C832 2756   3.390   5.685   4.843 -0.4244  0.2448  0.1054
    3MOL   C833 2757   3.454   5.560   4.772 -0.3811 -0.0788  0.0785
    3MOL   C834 2758   3.503   5.587   4.623 -0.7419 -0.1664  0.1135
    3MOL   C835 2759   3.624   5.678   4.593  0.4103 -0.2405 -0.1658
    3MOL   C836 2760   3.758   5.620   4.628  0.4426  0.2598 -0.1702
    3MOL   O837 2761   3.832   5.583   4.538  0.2093 -0.1148 -0.3444
    3MOL   H838 2762   3.854   5.434   6.215 -0.8922 -0.0591  0.3083
    3MOL   H839 2763   3.779   5.350   6.074 -0.4267 -1.1029  1.7558
    3MOL   H840 2764   3.727   5.640   6.137  1.6131 -0.1956  0.4120
    3MOL   H841 2765   3.644   5.535   6.023  0.1329  1.3528 -0.4175
    3MOL   H842 2766   3.950   5.616   6.019  1.6356 -0.4255 -1.6759
    3MOL   H843 2767   3.888   5.498   5.916  0.5947 -0.4495  0.7825
    3MOL   H844 2768   3.910   5.746   5.831 -0.6797  1.1378 -0.8718
    3MOL   H845 2769   3.766   5.790   5.913  1.5808  2.0898 -3.1627
    3MOL   H846 2770   3.645   5.603   5.791  0.2689  0.4720  0.4200
    3MOL   H847 2771   3.783   5.563   5.700 -1.7134 -0.7915 -1.0332
    3MOL   H848 2772   3.813   5.802   5.629 -0.3936  2.5002  0.7291
    3MOL   H849 2773   3.664   5.836   5.698  2.0565  0.0989  1.6099
    3MOL   H850 2774   3.548   5.666   5.538 -1.7010 -1.0785 -2.9081
    3MOL   H851 2775   3.701   5.613   5.502 -0.7051  0.0678  1.6655
    3MOL   H852 2776   3.752   5.818   5.381  0.0299 -2.5256 -2.1200
    3MOL   H853 2777   3.604   5.891   5.426 -0.1614 -0.2871  2.1461
    3MOL   H854 2778   3.654   5.643   5.241 -1.1367 -0.7866 -1.8539
    3MOL   H855 2779   3.498   5.675   5.299  0.4219  0.3720 -0.7602
    3MOL   H856 2780   3.686   5.813   5.089  0.4817  2.6743  1.4691
    3MOL   H857 2781   3.538   5.894   5.151  1.4481  0.2080 -2.2988
    3MOL   H858 2782   3.313   5.660   4.916 -1.5422 -1.8205 -1.7316
    3MOL   H859 2783   3.330   5.743   4.773 -1.1869  1.5918  1.8208
    3MOL   H860 2784   3.389   5.473   4.778 -1.5229  0.6998 -0.8059
    3MOL   H861 2785   3.534   5.517   4.833 -1.0586 -0.6098  0.5956
    3MOL   H862 2786   3.415   5.620   4.567 -0.9263  0.2958  0.6810
    3MOL   H863 2787   3.514   5.489   4.575 -0.7217  0.8258 -1.9471
    3MOL   H864 2788   3.619   5.779   4.632 -4.4239  0.5352 -2.4483
    3MOL   H865 2789   3.626   5.679   4.484 -2.0774  1.2024 -0.2236
    3MOL   O866 2790   3.781   5.624   4.752 -0.5072  0.1382  0.0073
    3MOL   C867 2791   3.904   5.575   4.805  0.0086 -0.5537 -0.5544
    3MOL   C868 2792   3.894   5.606   4.952 -0.8723 -0.0391 -0.4138
    3MOL   C869 2793   4.020   5.552   5.016 -0.3863 -0.2787 -0.0245
    3MOL   C870 2794   4.029   5.564   5.171  0.1676 -0.3616  0.5591
    3MOL   C871 2795   4.040   5.712   5.216  0.6845 -0.5856  0.0370
    3MOL   C872 2796   4.045   5.724   5.371 -0.3422 -0.0156 -0.5930
    3MOL   C873 2797   4.121   5.852   5.399 -0.2447 -0.0720 -1.1640
    3MOL   C874 2798   4.149   5.871   5.551  0.1219  0.0968  0.1819
    3MOL   C875 2799   4.204   6.005   5.583 -0.5271  0.1159  0.6182
    3MOL   C876 2800   4.098   6.123   5.604  0.5784 -0.0103  0.4454
    3MOL   O877 2801   4.069   6.137   5.738  0.0536 -0.1164 -0.3497
    3MOL   C878 2802   3.957   6.082   5.785  0.9133 -0.0323  0.7493
    3MOL   O879 2803   3.872   6.026   5.712  0.2388  0.3036 -0.4447
    3MOL   C880 2804   3.946   6.099   5.936 -0.1596 -0.4953 -0.0738
    3MOL   C881 2805   3.826   6.178   5.978 -0.5029  0.2219 -0.6021
    3MOL   C882 2806   3.815   6.201   6.133  0.1672  0.0753 -0.0604
    3MOL   C883 2807   3.780   6.067   6.200  1.0538  0.2754  0.3392
    3MOL   C884 2808   3.628   6.051   6.214  0.4926 -0.7539  0.5722
    3MOL   O885 2809   3.563   6.114   6.300  0.3074 -0.9542  0.6226
    3MOL   H886 2810   3.919   5.468   4.795 -4.6022 -1.3142 -0.0873
    3MOL   H887 2811   3.991   5.633   4.771  0.0421 -0.3190 -0.0713
    3MOL   H888 2812   3.803   5.570   5.001  0.3501 -0.0658  1.8812
    3MOL   H889 2813   3.901   5.715   4.952 -0.8292 -0.0427  0.0885
    3MOL   H890 2814   4.011   5.448   4.986  0.1072 -0.1704 -0.5417
    3MOL   H891 2815   4.116   5.588   4.980 -0.6583  1.4213  0.9066
    3MOL   H892 2816   4.113   5.505   5.206  1.4609  0.2740 -1.4209
    3MOL   H893 2817   3.942   5.519   5.218  0.8158 -0.2558  1.8931
    3MOL   H894 2818   3.954   5.772   5.187  0.5576  0.3027  2.2126
    3MOL   H895 2819   4.128   5.761   5.175  1.7650  0.4745  3.4714
    3MOL   H896 2820   4.095   5.638   5.416  1.7508 -0.2691 -3.2990
    3MOL   H897 2821   3.944   5.736   5.411  0.0623 -0.1682  0.4810
    3MOL   H898 2822   4.069   5.942   5.366  0.3248  0.2773 -1.1087
    3MOL   H899 2823   4.220   5.855   5.353 -0.6953 -3.3936 -2.5437
    3MOL   H900 2824   4.215   5.793   5.590 -0.2463 -0.2040  0.1993
    3MOL   H901 2825   4.052   5.857   5.598  0.2367 -0.0636  0.3717
    3MOL   H902 2826   4.272   5.992   5.667 -0.9963 -2.5796  0.6379
    3MOL   H903 2827   4.269   6.036   5.501 -3.7219  0.3364 -1.9067
    3MOL   H904 2828   4.011   6.105   5.540  0.5858  3.1366 -0.5678
    3MOL   H905 2829   4.147   6.217   5.576 -1.1150  0.7996  0.1432
    3MOL   H906 2830   3.931   6.002   5.984 -3.0452 -1.9177 -3.6336
    3MOL   H907 2831   4.036   6.140   5.981  0.4303 -2.9227  1.0506
    3MOL   H908 2832   3.742   6.116   5.947 -1.3468 -0.4219  2.7416
    3MOL   H909 2833   3.826   6.278   5.937 -0.8162  1.2795  1.8563
    3MOL   H910 2834   3.740   6.274   6.164 -0.5957 -1.3801  1.5935
    3MOL   H911 2835   3.910   6.240   6.167  0.2741 -0.4927  0.2938
    3MOL   H912 2836   3.826   6.063   6.299 -1.0262  0.0207  1.3078
    3MOL   H913 2837   3.834   5.984   6.153  3.0259 -0.4415  3.7300
    3MOL   O914 2838   3.586   5.951   6.141 -0.1282 -0.4198 -0.8711
    3MOL   C915 2839   3.455   5.901   6.145  0.4328 -0.4534 -0.1050
    3MOL   C916 2840   3.431   5.824   6.017 -0.4631  0.0657 -0.0073
    3MOL   C917 2841   3.419   5.914   5.896 -0.4595 -0.3611  0.0760
    3MOL   C918 2842   3.366   5.833   5.774 -0.1330  0.7753  0.1057
    3MOL   C919 2843   3.344   5.920   5.642  0.5599  0.5939  0.0786
    3MOL   C920 2844   3.276   5.855   5.519  0.0380  0.3983  0.5794
    3MOL   C921 2845   3.276   5.942   5.398  0.1033  0.3566 -1.2130
    3MOL   C922 2846   3.226   5.874   5.273  0.3140 -0.4384  0.6520
    3MOL   C923 2847   3.179   5.960   5.151 -0.1505  0.3248 -0.4484
    3MOL   C924 2848   3.044   6.028   5.183 -0.2375  0.0305  0.5196
    3MOL   O925 2849   3.017   6.127   5.084 -0.9109  0.9918 -0.3098
    3MOL   C926 2850   3.032   6.253   5.095 -0.0943  0.1093  0.8412
    3MOL   O927 2851   3.049   6.312   5.198 -0.1966  0.3790  0.2407
    3MOL   C928 2852   3.016   6.323   4.954  0.4440  0.4494 -0.6969
    3MOL   C929 2853   3.083   6.459   4.945  0.6529  0.2226 -0.1107
    3MOL   C930 2854   3.238   6.448   4.958 -0.2789 -0.0219  0.0878
    3MOL   C931 2855   3.335   6.559   4.903 -0.0877 -0.5604  0.4320
    3MOL   C932 2856   3.308   6.709   4.929  0.4218  0.1446 -0.0108
    3MOL   O933 2857   3.221   6.754   4.999  0.6092 -0.4510  0.2969
    3MOL   H934 2858   3.442   5.842   6.236 -1.5015  0.1004 -0.0058
    3MOL   H935 2859   3.378   5.978   6.153  0.7528 -0.1044 -0.3490
    3MOL   H936 2860   3.341   5.763   6.022 -0.2427 -0.2275  0.4754
    3MOL   H937 2861   3.508   5.748   6.002 -0.8086 -0.1012 -0.9808
    3MOL   H938 2862   3.357   6.003   5.902  0.9117  0.6156 -0.1710
    3MOL   H939 2863   3.515   5.959   5.872 -0.3383  0.4470  1.9872
    3MOL   H940 2864   3.274   5.784   5.805 -0.0227  1.7918  2.1550
    3MOL   H941 2865   3.434   5.751   5.753  0.6678  1.3872  0.2588
    3MOL   H942 2866   3.439   5.956   5.605  0.9017  2.6481  2.7711
    3MOL   H943 2867   3.292   6.012   5.668 -0.1083  0.1651  0.3018
    3MOL   H944 2868   3.175   5.834   5.554 -0.1713  0.3778 -0.0351
    3MOL   H945 2869   3.321   5.758   5.495  0.1542  0.5867  0.0327
    3MOL   H946 2870   3.373   5.982   5.371  1.4390 -0.5489  1.9237
    3MOL   H947 2871   3.209   6.028   5.409 -0.3281 -0.3127  2.1860
    3MOL   H948 2872   3.144   5.807   5.297 -0.0099  0.5719  2.4684
    3MOL   H949 2873   3.305   5.815   5.226 -1.0917 -1.0737 -0.9454
    3MOL   H950 2874   3.254   6.038   5.141  0.2093  0.4309  2.6142
    3MOL   H951 2875   3.165   5.908   5.056 -0.3053 -0.3776 -0.0449
    3MOL   H952 2876   3.049   6.074   5.282  0.6431  0.6866  0.1757
    3MOL   H953 2877   2.959   5.960   5.176 -0.6355  0.6002 -0.3077
    3MOL   H954 2878   3.049   6.258   4.874  2.1953  0.6563 -0.1751
    3MOL   H955 2879   2.910   6.341   4.935  0.0912  1.3425  1.8759
    3MOL   H956 2880   3.044   6.525   5.023  0.7677  0.1582  0.0025
    3MOL   H957 2881   3.039   6.503   4.856 -0.2742 -2.2567 -0.9289
    3MOL   H958 2882   3.266   6.357   4.905  0.4112 -1.3985  2.7076
    3MOL   H959 2883   3.260   6.429   5.063  1.3376  1.0918 -0.0318
    3MOL   H960 2884   3.345   6.553   4.794 -1.7934  0.5436  0.1984
    3MOL   H961 2885   3.435   6.545   4.945  1.2000 -1.4279 -2.7750
    3MOL   H962 2886   3.367   6.779   4.869  0.8276 -1.8333 -2.0361
    4MOL     O1 2887   1.488   2.244   4.626  0.0728 -0.2518 -0.7762
    4MOL     C2 2888   1.544   2.227   4.756 -0.0990 -0.4727 -0.4064
    4MOL     C3 2889   1.641   2.339   4.785 -0.4756  0.4170 -0.3388
    4MOL     C4 2890   1.718   2.305   4.918 -0.0721 -0.5545 -0.1382
    4MOL     C5 2891   1.796   2.419   4.978 -0.2145 -0.5259 -0.2701
    4MOL     C6 2892   1.846   2.384   5.124  0.8394 -0.0551 -0.2984
    4MOL     C7 2893   1.957   2.472   5.172 -0.5259 -0.0841 -0.4177
    4MOL     C8 2894   1.924   2.627   5.163  0.8705 -0.4139  0.3647
    4MOL     C9 2895   1.820   2.669   5.262  0.2452 -0.2377  0.0183
    4MOL    C10 2896   1.871   2.718   5.403 -0.3793  0.0661 -0.0934
    4MOL    C11 2897   1.757   2.763   5.505  0.1425  0.2570 -0.3730
    4MOL    O12 2898   1.684   2.868   5.444  0.0940 -0.0387  0.3568
    4MOL    C13 2899   1.632   2.961   5.519  0.3223  0.1344 -0.8484
    4MOL    O14 2900   1.630   2.967   5.639 -0.6467  0.5605 -0.2277
    4MOL    C15 2901   1.583   3.081   5.431 -0.0260 -0.3713 -0.2909
    4MOL    C16 2902   1.643   3.215   5.475 -0.6336  0.5860  0.6828
    4MOL    C17 2903   1.799   3.218   5.464 -0.2409  0.1974 -0.4782
    4MOL    C18 2904   1.873   3.193   5.601  0.1582 -0.7753  0.2981
    4MOL    C19 2905   1.852   3.284   5.721 -0.6496 -0.5496  0.3601
    4MOL    O20 2906   1.832   3.403   5.704 -0.6424 -0.1021  0.3623
    4MOL    H21 2907   1.460   2.237   4.823 -0.2967  0.0190 -0.7214
    4MOL    H22 2908   1.572   2.125   4.780  1.2832  0.4023  1.8177
    4MOL    H23 2909   1.579   2.428   4.792  1.2539  1.8307 -2.5109
    4MOL    H24 2910   1.705   2.366   4.701 -1.5424  2.4194 -0.5414
    4MOL    H25 2911   1.651   2.274   4.998  0.7529  0.4895  0.9793
    4MOL    H26 2912   1.793   2.228   4.900 -0.5930 -1.1349  0.1946
    4MOL    H27 2913   1.726   2.502   4.976 -1.2305 -1.3435  0.6751
    4MOL    H28 2914   1.875   2.442   4.906  0.0573 -0.7423 -0.0457
    4MOL    H29 2915   1.888   2.283   5.123  1.7147  0.3054  0.3026
    4MOL    H30 2916   1.761   2.368   5.191  0.0691 -0.4760 -1.3559
    4MOL    H31 2917   2.051   2.450   5.122  0.4030  0.2922  1.1256
    4MOL    H32 2918   1.979   2.448   5.276 -0.3402  2.6953  0.2246
    4MOL    H33 2919   1.883   2.643   5.063  0.0425 -1.9317  0.4544
    4MOL    H34 2920   2.006   2.698   5.175 -0.9399  1.7585  0.3493
    4MOL    H35 2921   1.744   2.593   5.277 -0.8421  0.5858 -1.2325
    4MOL    H36 2922   1.756   2.747   5.222 -2.7122 -2.0524  1.0847
    4MOL    H37 2923   1.924   2.640   5.458 -0.1774  2.2665  2.9564
    4MOL    H38 2924   1.937   2.801   5.380 -0.2747  0.2895  0.9791
    4MOL    H39 2925   1.795   2.802   5.599 -1.0950  0.8462 -0.1073
    4MOL    H40 2926   1.686   2.681   5.511 -1.9034  2.0564  0.3507
    4MOL    H41 2927   1.620   3.045   5.335  2.3214  2.0560 -0.3729
    4MOL    H42 2928   1.474   3.083   5.429 -0.0133  0.0436 -0.8030
    4MOL    H43 2929   1.610   3.242   5.576  0.0897 -0.1053  1.1195
    4MOL    H44 2930   1.609   3.296   5.411 -0.2706 -0.2647 -0.6075
    4MOL    H45 2931   1.840   3.317   5.442  0.1160  0.4439  1.2171
    4MOL    H46 2932   1.836   3.153   5.385 -4.2580 -1.4337 -1.1378
    4MOL    H47 2933   1.981   3.189   5.586 -0.2398 -1.3267 -2.7808
    4MOL    H48 2934   1.850   3.091   5.633  0.6992 -0.9350  0.1873
    4MOL    H49 2935   1.439   2.166   4.607  0.7051 -1.4132  2.1320
    4MOL    O50 2936   1.860   3.216   5.833  0.0061  0.1654 -0.8840
    4MOL    C51 2937   1.816   3.274   5.961  0.3949 -0.1016 -0.2523
    4MOL    C52 2938   1.760   3.157   6.049 -0.2302  0.0670 -0.4203
    4MOL    C53 2939   1.629   3.095   6.001 -0.1934  0.5417  0.2419
    4MOL    C54 2940   1.573   2.987   6.088 -0.3182 -0.2487 -0.1177
    4MOL    C55 2941   1.664   2.861   6.095 -0.3871 -0.9051 -0.2277
    4MOL    C56 2942   1.699   2.807   5.960 -0.2022  0.5321  0.0859
    4MOL    C57 2943   1.744   2.662   5.954 -0.1039  0.9619 -0.5554
    4MOL    C58 2944   1.800   2.609   5.817 -0.4498  0.3204  0.1348
    4MOL    C59 2945   1.839   2.459   5.815  1.0755 -0.2274 -0.2187
    4MOL    C60 2946   1.901   2.407   5.683 -0.0504 -0.1506 -0.2909
    4MOL    O61 2947   2.022   2.483   5.645 -0.0956 -0.4181  0.5240
    4MOL    C62 2948   2.102   2.431   5.544  0.0499 -0.1755  0.4713
    4MOL    O63 2949   2.078   2.335   5.472 -0.2996 -0.3453  0.2246
    4MOL    C64 2950   2.225   2.516   5.531 -0.4476 -0.0555 -0.7897
    4MOL    C65 2951   2.319   2.483   5.405 -0.2917  0.1127  0.0791
    4MOL    C66 2952   2.394   2.355   5.430 -0.0627  0.2967  0.3337
    4MOL    C67 2953   2.450   2.291   5.302 -0.6919  0.3226 -0.3144
    4MOL    C68 2954   2.578   2.359   5.241 -0.3059 -0.3805 -0.3360
    4MOL    O69 2955   2.570   2.445   5.159  0.2768 -0.2605  0.5249
    4MOL    H70 2956   1.902   3.324   6.006  1.0501 -1.1344 -0.3470
    4MOL    H71 2957   1.748   3.358   5.946  3.3926  2.3565 -0.6456
    4MOL    H72 2958   1.754   3.186   6.154  1.0670  0.7862 -0.5247
    4MOL    H73 2959   1.839   3.082   6.058  0.7683  1.1780  0.1780
    4MOL    H74 2960   1.553   3.174   5.994 -0.6203 -0.0528 -2.7911
    4MOL    H75 2961   1.641   3.059   5.899  1.2596 -0.2941  0.6959
    4MOL    H76 2962   1.476   2.957   6.050  0.0524 -0.3554 -0.9912
    4MOL    H77 2963   1.547   3.019   6.189  0.7739  0.0981  0.0578
    4MOL    H78 2964   1.615   2.778   6.147 -0.1810 -0.2485  1.0407
    4MOL    H79 2965   1.756   2.879   6.150 -0.1596  0.7955 -1.1432
    4MOL    H80 2966   1.778   2.870   5.920  1.0590 -1.2874 -0.3777
    4MOL    H81 2967   1.610   2.801   5.897 -0.7847 -0.1072  0.9634
    4MOL    H82 2968   1.665   2.589   5.971  0.7969  0.4671  1.6758
    4MOL    H83 2969   1.811   2.654   6.039 -2.2163 -1.6642  0.9430
    4MOL    H84 2970   1.892   2.663   5.792 -0.9804  0.2852 -2.0085
    4MOL    H85 2971   1.722   2.619   5.742 -1.8938 -0.6562  1.4769
    4MOL    H86 2972   1.904   2.429   5.897  1.9960  0.0867 -0.8227
    4MOL    H87 2973   1.751   2.399   5.836  2.2393 -1.3714  1.5164
    4MOL    H88 2974   1.832   2.407   5.598 -1.8010 -0.4541  1.1135
    4MOL    H89 2975   1.934   2.305   5.702  0.1665 -0.2096 -0.9605
    4MOL    H90 2976   2.189   2.618   5.522 -1.9370 -0.3168  1.8078
    4MOL    H91 2977   2.282   2.505   5.624  2.3854  0.2698 -2.4296
    4MOL    H92 2978   2.396   2.560   5.394  0.2957  0.0007  3.0445
    4MOL    H93 2979   2.268   2.467   5.310  0.1301 -0.7573  0.0006
    4MOL    H94 2980   2.335   2.280   5.482 -1.0596  0.2508 -0.8570
    4MOL    H95 2981   2.480   2.374   5.495 -0.1389 -1.5103  0.9763
    4MOL    H96 2982   2.378   2.287   5.220 -1.1077 -1.7435  0.1136
    4MOL    H97 2983   2.465   2.187   5.331  0.1804  0.0122 -1.8427
    4MOL    O98 2984   2.698   2.327   5.300 -0.9927 -0.2211  0.3884
    4MOL    C99 2985   2.819   2.383   5.252  0.0199 -0.2671  0.0506
    4MOL   C100 2986   2.862   2.503   5.329 -0.0798  0.4177 -0.0079
    4MOL   C101 2987   2.867   2.460   5.474 -0.0369  0.9499  0.0249
    4MOL   C102 2988   2.934   2.558   5.574  0.2346 -0.3293  0.1009
    4MOL   C103 2989   2.969   2.483   5.710 -0.8509 -0.0305  0.2620
    4MOL   C104 2990   3.026   2.585   5.808  0.0354  0.6484  0.8695
    4MOL   C105 2991   3.068   2.522   5.935  0.5451  0.8094  0.2249
    4MOL   C106 2992   3.143   2.619   6.030  0.0431  0.6448  0.3007
    4MOL   C107 2993   3.125   2.559   6.172 -0.4473 -0.4313  0.7285
    4MOL   C108 2994   3.156   2.667   6.285  0.2745 -0.0528  0.1847
    4MOL   O109 2995   3.271   2.739   6.245  0.1337  0.4128  0.0717
    4MOL   C110 2996   3.315   2.842   6.311  0.4327 -0.1647  0.6766
    4MOL   O111 2997   3.257   2.911   6.394 -0.5523  0.4234  0.2881
    4MOL   C112 2998   3.452   2.885   6.268 -0.0845 -0.0814 -0.3954
    4MOL   C113 2999   3.490   3.031   6.316 -0.3877  0.3441 -0.8179
    4MOL   C114 3000   3.636   3.072   6.279  0.0522  0.2760 -0.4958
    4MOL   C115 3001   3.684   3.214   6.315 -0.2682  0.7565  0.4019
    4MOL   C116 3002   3.820   3.253   6.254 -1.1396 -0.5846 -0.1555
    4MOL   O117 3003   3.864   3.210   6.150 -0.3275 -0.0447 -0.6496
    4MOL   H118 3004   2.883   2.295   5.266 -2.5448 -2.0285  1.0136
    4MOL   H119 3005   2.819   2.411   5.147  0.5323 -2.3633 -0.5287
    4MOL   H120 3006   2.796   2.588   5.314 -1.7147 -0.8662 -0.2736
    4MOL   H121 3007   2.963   2.538   5.307  0.6346 -1.4798  0.1469
    4MOL   H122 3008   2.771   2.427   5.516 -0.1542  1.2526 -0.0076
    4MOL   H123 3009   2.937   2.377   5.481 -1.5168 -0.4437 -1.2293
    4MOL   H124 3010   2.876   2.647   5.595  0.9275  0.5403 -1.6096
    4MOL   H125 3011   3.031   2.587   5.534 -0.4135 -0.0036 -1.2370
    4MOL   H126 3012   3.039   2.406   5.679 -0.8413  0.3059 -0.5713
    4MOL   H127 3013   2.883   2.427   5.747 -0.8399  0.6655  1.3879
    4MOL   H128 3014   2.955   2.662   5.840 -1.3014  0.5721 -1.7521
    4MOL   H129 3015   3.111   2.631   5.757 -0.2270 -0.2220 -0.3429
    4MOL   H130 3016   3.119   2.428   5.916  1.3695  1.2327  0.2915
    4MOL   H131 3017   2.975   2.487   5.978 -0.7865  3.5322 -0.2990
    4MOL   H132 3018   3.095   2.717   6.025 -2.4594 -0.5687 -0.4686
    4MOL   H133 3019   3.246   2.620   5.996 -0.0853 -3.6919 -0.4917
    4MOL   H134 3020   3.029   2.510   6.185 -0.4259 -0.5544  0.4178
    4MOL   H135 3021   3.201   2.481   6.166 -0.1873 -0.2473  1.5661
    4MOL   H136 3022   3.174   2.636   6.388  0.1268 -0.5013  0.0768
    4MOL   H137 3023   3.072   2.736   6.293 -0.1751 -0.8738  3.5707
    4MOL   H138 3024   3.523   2.811   6.306 -0.7007 -0.2518  0.4434
    4MOL   H139 3025   3.457   2.894   6.160 -0.9900  1.9691 -0.2846
    4MOL   H140 3026   3.491   3.025   6.424 -0.1208  2.9916 -0.6407
    4MOL   H141 3027   3.419   3.109   6.288 -0.4348  0.0281 -1.6078
    4MOL   H142 3028   3.641   3.041   6.174 -5.1209 -0.9676 -0.5065
    4MOL   H143 3029   3.691   2.998   6.337 -0.0322  0.3982 -0.2606
    4MOL   H144 3030   3.699   3.219   6.422  1.3717 -0.3220  0.2446
    4MOL   H145 3031   3.608   3.285   6.283  0.5430  1.1199 -0.7814
    4MOL   O146 3032   3.894   3.326   6.339 -0.0720 -0.3553 -0.0846
    4MOL   C147 3033   4.015   3.377   6.278  0.5585 -0.1670 -0.0363
    4MOL   C148 3034   4.089   3.460   6.383 -0.4439  0.2654  0.2492
    4MOL   C149 3035   4.198   3.537   6.317  0.0600  0.1929  0.9223
    4MOL   C150 3036   4.243   3.651   6.409  0.3682 -0.0389  0.8807
    4MOL   C151 3037   4.287   3.618   6.553  0.1147 -0.1945  0.3277
    4MOL   C152 3038   4.369   3.720   6.637 -0.0663 -0.3900  0.4019
    4MOL   C153 3039   4.395   3.663   6.774  0.2587 -0.2020 -0.3501
    4MOL   C154 3040   4.498   3.753   6.846 -0.7213 -0.0217 -0.3173
    4MOL   C155 3041   4.564   3.703   6.983  0.1738  0.2929  1.3635
    4MOL   C156 3042   4.671   3.804   7.033  0.2023 -0.0531 -0.4308
    4MOL   O157 3043   4.602   3.921   7.074  0.0160 -0.2551 -0.1483
    4MOL   C158 3044   4.562   3.933   7.203  0.0745 -0.0301  0.0015
    4MOL   O159 3045   4.565   3.845   7.291 -0.3926 -0.1810 -0.1230
    4MOL   C160 3046   4.504   4.073   7.234  1.2204  0.0673 -0.4198
    4MOL   C161 3047   4.605   4.180   7.211 -0.2662  0.4034 -0.4857
    4MOL   C162 3048   4.604   4.241   7.076 -0.2515  0.0358 -0.2391
    4MOL   C163 3049   4.698   4.361   7.053  0.0961  0.2608  0.5637
    4MOL   C164 3050   4.683   4.422   6.913  0.6220  0.0554  0.0018
    4MOL   O165 3051   4.780   4.457   6.847 -0.2039 -0.9378 -0.4722
    4MOL   H166 3052   4.074   3.294   6.241  0.5932 -0.0208 -0.3093
    4MOL   H167 3053   3.969   3.428   6.193 -1.9054  1.0927  1.9667
    4MOL   H168 3054   4.135   3.402   6.462 -2.1164 -1.4290  0.0302
    4MOL   H169 3055   4.020   3.526   6.435  2.8709  2.9332  1.3749
    4MOL   H170 3056   4.292   3.481   6.314  0.4643  0.6629  3.4391
    4MOL   H171 3057   4.176   3.562   6.213  0.3813  1.1716  1.0768
    4MOL   H172 3058   4.161   3.722   6.412  1.6659  1.5623 -0.2926
    4MOL   H173 3059   4.328   3.703   6.364 -0.4485 -0.3506 -1.0946
    4MOL   H174 3060   4.357   3.535   6.546  2.0692  1.5595 -1.9759
    4MOL   H175 3061   4.193   3.596   6.602  0.4294  2.9426  2.5091
    4MOL   H176 3062   4.314   3.813   6.652 -1.4235 -1.1210  0.0815
    4MOL   H177 3063   4.461   3.737   6.581  0.3319 -1.7081  0.6501
    4MOL   H178 3064   4.439   3.563   6.763  0.5257 -0.0472 -0.7023
    4MOL   H179 3065   4.301   3.658   6.829  0.4311 -0.5239 -0.0776
    4MOL   H180 3066   4.455   3.852   6.865 -1.0407 -0.3433  0.6939
    4MOL   H181 3067   4.579   3.768   6.775  1.2116  0.5149  1.9443
    4MOL   H182 3068   4.486   3.691   7.059 -0.7680  3.0481  0.8776
    4MOL   H183 3069   4.612   3.608   6.960 -0.2640  0.6889 -1.3530
    4MOL   H184 3070   4.747   3.827   6.959  0.9754 -0.5982  0.1760
    4MOL   H185 3071   4.715   3.759   7.123 -0.1301 -0.5130 -0.4979
    4MOL   H186 3072   4.409   4.088   7.183 -0.0426 -0.3142  1.7254
    4MOL   H187 3073   4.476   4.077   7.339 -0.2166 -1.2247 -0.7434
    4MOL   H188 3074   4.708   4.164   7.242 -0.1126  1.4951 -0.3976
    4MOL   H189 3075   4.577   4.255   7.285  2.2896  1.3431 -0.4119
    4MOL   H190 3076   4.502   4.279   7.066 -0.3087 -0.1052 -0.1847
    4MOL   H191 3077   4.621   4.163   7.001  0.1385  0.1131 -0.2324
    4MOL   H192 3078   4.801   4.332   7.077  0.6498  0.6237 -1.3243
    4MOL   H193 3079   4.673   4.440   7.124 -0.4092 -1.4791  2.3480
    4MOL   O194 3080   4.553   4.427   6.873  0.2987  0.3272  0.3817
    4MOL   C195 3081   4.528   4.481   6.747 -0.7742 -0.7211 -0.5116
    4MOL   C196 3082   4.379   4.529   6.729  0.2960 -0.1330 -0.7315
    4MOL   C197 3083   4.292   4.403   6.741  0.6265 -0.8843  0.2206
    4MOL   C198 3084   4.251   4.363   6.881 -0.1470 -0.4733 -0.3956
    4MOL   C199 3085   4.185   4.223   6.894 -0.0554 -0.2274  0.3189
    4MOL   C200 3086   4.164   4.181   7.037 -0.0572  0.5022 -0.7566
    4MOL   C201 3087   4.101   4.043   7.059 -0.1785  0.1549 -0.0176
    4MOL   C202 3088   4.106   3.992   7.204 -0.1449 -0.2896  0.5165
    4MOL   C203 3089   4.035   3.862   7.213  0.0956 -0.2297 -0.1645
    4MOL   C204 3090   4.116   3.738   7.166 -0.3438 -0.3343 -0.7187
    4MOL   O205 3091   4.229   3.717   7.249  0.2984 -0.3859  0.0866
    4MOL   C206 3092   4.226   3.612   7.325  0.3661 -0.0935 -0.2974
    4MOL   O207 3093   4.135   3.522   7.334 -0.1928 -0.1008  0.3347
    4MOL   C208 3094   4.342   3.607   7.426 -0.4192 -0.0971  0.0483
    4MOL   C209 3095   4.335   3.723   7.522 -0.1822  0.1290  0.7867
    4MOL   C210 3096   4.450   3.741   7.627 -0.4027  0.3910  0.2144
    4MOL   C211 3097   4.465   3.619   7.716  0.6922  0.5049  0.3586
    4MOL   C212 3098   4.557   3.648   0.075  0.2813  0.5428 -0.1806
    4MOL   O213 3099   4.640   3.736   0.077  0.4511  0.0185  0.0260
    4MOL   H214 3100   4.593   4.569   6.739 -2.7411  0.5804 -2.5417
    4MOL   H215 3101   4.557   4.423   6.659 -1.0413 -1.6882  0.0354
    4MOL   H216 3102   4.364   4.582   6.636 -0.3915  1.9507  0.5424
    4MOL   H217 3103   4.360   4.609   6.801  1.4517 -1.6791  1.3764
    4MOL   H218 3104   4.195   4.418   6.692  1.9088  1.7983 -1.6032
    4MOL   H219 3105   4.335   4.321   6.683 -0.9127 -1.6249  0.0968
    4MOL   H220 3106   4.189   4.442   6.924  2.3141  1.6783 -0.6890
    4MOL   H221 3107   4.329   4.355   6.956 -1.3116  0.3465  0.9230
    4MOL   H222 3108   4.247   4.148   6.845 -2.0201 -0.7655 -1.4202
    4MOL   H223 3109   4.086   4.224   6.847 -0.0770  0.9704  0.3670
    4MOL   H224 3110   4.106   4.258   7.089 -2.0273 -2.0579  0.9185
    4MOL   H225 3111   4.264   4.176   7.081  0.9890  0.3322 -3.0659
    4MOL   H226 3112   4.149   3.979   6.985  1.4217 -1.7768  2.6069
    4MOL   H227 3113   3.999   4.042   7.021  0.5321 -2.2391 -1.9590
    4MOL   H228 3114   4.052   4.062   7.269 -0.0317  0.5760 -0.3119
    4MOL   H229 3115   4.209   3.989   7.240 -0.0179 -2.8710  0.0347
    4MOL   H230 3116   3.994   3.842   7.312 -0.5271 -1.1362 -0.5964
    4MOL   H231 3117   3.948   3.870   7.148  1.0346  0.6988 -1.3298
    4MOL   H232 3118   4.155   3.769   7.068  0.2783 -0.4929 -0.5219
    4MOL   H233 3119   4.059   3.648   7.145  0.3570 -0.6582 -1.2255
    4MOL   H234 3120   4.335   3.506   7.466  3.7569 -2.2259 -4.1284
    4MOL   H235 3121   4.435   3.609   7.368 -0.4165  0.0027  0.0555
    4MOL   H236 3122   4.237   3.707   7.568  0.2519 -2.5038  0.8696
    4MOL   H237 3123   4.315   3.817   7.472 -1.3540 -1.0504 -1.0520
    4MOL   H238 3124   4.422   3.827   7.687 -2.5024  0.6926 -1.1045
    4MOL   H239 3125   4.542   3.771   7.576 -0.2423 -0.3404  0.0695
    4MOL   H240 3126   4.504   3.530   7.666 -0.1807 -0.2547  1.0050
    4MOL   H241 3127   4.371   3.588   7.763  1.2149 -0.9837  0.4726
    4MOL   O242 3128   4.529   3.574   0.176  0.5091 -0.2159 -0.1999
    4MOL   C243 3129   4.598   3.604   0.301  0.5734  0.0498 -0.0125
    4MOL   C244 3130   4.581   3.505   0.404  0.6677 -0.7262 -0.0189
    4MOL   C245 3131   4.438   3.475   0.440 -0.2156  0.3208 -1.2282
    4MOL   C246 3132   4.425   3.358   0.541  0.7023 -0.9366 -0.9560
    4MOL   C247 3133   4.324   3.247   0.508 -0.3454  0.0858  0.5790
    4MOL   C248 3134   4.188   3.299   0.477 -0.1470 -0.5235 -0.1164
    4MOL   C249 3135   4.079   3.194   0.510  0.0538  0.1927 -0.3567
    4MOL   C250 3136   3.932   3.246   0.514  0.9542  0.0069 -0.0761
    4MOL   C251 3137   3.849   3.147   0.596  0.0181 -0.1711 -0.1035
    4MOL   C252 3138   3.694   3.164   0.571 -1.0165 -0.3982  0.9649
    4MOL   O253 3139   3.640   3.050   0.639 -0.5202 -0.0633 -0.1511
    4MOL   C254 3140   3.550   3.071   0.742  0.0232  0.0232  0.0583
    4MOL   O255 3141   3.492   3.177   0.765  0.2674 -0.3282 -0.1413
    4MOL   C256 3142   3.500   2.944   0.808  0.6844 -0.4354 -0.2980
    4MOL   C257 3143   3.377   2.878   0.734  0.5032  0.0392 -0.1311
    4MOL   C258 3144   3.334   2.743   0.795  0.1917 -0.2163 -0.3621
    4MOL   C259 3145   3.217   2.689   0.704  0.0045  0.5439  0.0588
    4MOL   C260 3146   3.086   2.745   0.749 -0.1716  0.7190  0.5404
    4MOL   O261 3147   3.017   2.819   0.674  0.5280 -0.8153 -0.3175
    4MOL   H262 3148   4.707   3.610   0.290  0.3833 -1.6696 -3.3641
    4MOL   H263 3149   4.565   3.699   0.344  0.7963  0.0289  0.2096
    4MOL   H264 3150   4.635   3.536   0.494  0.1989  0.8721 -0.2590
    4MOL   H265 3151   4.620   3.412   0.364 -2.0602 -1.0145 -2.1358
    4MOL   H266 3152   4.399   3.572   0.471 -2.6555 -0.9538 -0.2256
    4MOL   H267 3153   4.379   3.451   0.351  0.0873 -2.2086 -0.7620
    4MOL   H268 3154   4.409   3.408   0.636 -3.3769 -0.1057 -1.9906
    4MOL   H269 3155   4.520   3.306   0.553  0.2671 -1.3883  0.7079
    4MOL   H270 3156   4.322   3.179   0.593 -1.0907  0.9033  1.2324
    4MOL   H271 3157   4.359   3.184   0.427 -1.9059 -0.9091  0.6730
    4MOL   H272 3158   4.198   3.327   0.372 -3.0158  2.8550  0.3997
    4MOL   H273 3159   4.166   3.391   0.532  1.9462 -1.2955  2.0499
    4MOL   H274 3160   4.101   3.150   0.607 -1.4941  1.7275  0.7318
    4MOL   H275 3161   4.087   3.111   0.440  0.6622 -2.1181  2.3942
    4MOL   H276 3162   3.895   3.252   0.412  0.2209 -0.1559  0.1763
    4MOL   H277 3163   3.926   3.346   0.556  1.5139 -0.1067  0.2773
    4MOL   H278 3164   3.883   3.044   0.587 -0.7732 -0.5038  0.6649
    4MOL   H279 3165   3.863   3.166   0.702  0.7886 -0.9979 -0.0541
    4MOL   H280 3166   3.659   3.157   0.468  0.5950 -2.1236  0.5055
    4MOL   H281 3167   3.651   3.261   0.598  1.7637  1.6274 -1.6065
    4MOL   H282 3168   3.585   2.878   0.827  2.2329  1.3833 -0.7629
    4MOL   H283 3169   3.451   2.973   0.901  0.5468  1.6427 -0.9753
    4MOL   H284 3170   3.382   2.859   0.627  2.0456 -1.8326  0.2560
    4MOL   H285 3171   3.292   2.945   0.752  0.1730  0.1272 -1.9114
    4MOL   H286 3172   3.296   2.752   0.897  0.5272  3.2628 -0.4883
    4MOL   H287 3173   3.422   2.679   0.794 -0.5504 -1.2907  1.0182
    4MOL   H288 3174   3.199   2.583   0.719 -1.2839  0.3443 -2.5285
    4MOL   H289 3175   3.226   2.721   0.600 -0.3671  0.1358 -0.0996
    4MOL   O290 3176   3.050   2.700   0.866 -0.1588 -0.2001 -0.3370
    4MOL   C291 3177   2.951   2.763   0.946 -0.2319 -0.2326  0.7579
    4MOL   C292 3178   2.980   2.733   1.092  0.0100  0.1272 -0.2777
    4MOL   C293 3179   2.892   2.809   1.186 -0.2853  0.2045 -1.0658
    4MOL   C294 3180   2.915   2.767   1.334  0.4123  0.6126 -0.2286
    4MOL   C295 3181   2.888   2.621   1.366  0.2743  0.0994  0.9553
    4MOL   C296 3182   2.925   2.589   1.509  0.0487  0.8136 -0.2869
    4MOL   C297 3183   2.881   2.447   1.550 -0.6802  0.4444 -1.0568
    4MOL   C298 3184   2.939   2.402   1.684  0.5825 -0.4616 -0.2572
    4MOL   C299 3185   2.925   2.253   1.705 -0.1089 -0.0697 -0.5946
    4MOL   C300 3186   2.966   2.192   1.838 -0.0320  0.0573 -0.5978
    4MOL   O301 3187   2.892   2.088   1.892  0.1549 -0.5374 -0.0307
    4MOL   C302 3188   2.945   2.002   1.978  1.0879 -0.3476  0.5573
    4MOL   O303 3189   3.065   1.993   2.000 -0.2780 -0.0154  0.0656
    4MOL   C304 3190   2.844   1.910   2.036  0.1238 -0.6579  0.0042
    4MOL   C305 3191   2.789   1.801   1.948 -0.1660  0.3385  0.1831
    4MOL   C306 3192   2.707   1.854   1.822  0.4498 -0.2128 -0.3693
    4MOL   C307 3193   2.624   1.743   1.752 -0.1561  0.5080  0.8392
    4MOL   C308 3194   2.487   1.717   1.809 -0.4588 -0.2767 -0.2273
    4MOL   O309 3195   2.457   1.741   1.927  0.3635 -0.3078 -0.6240
    4MOL   H310 3196   2.953   2.869   0.923  1.2773 -0.2302  0.8421
    4MOL   H311 3197   2.853   2.723   0.921 -0.6917  1.0924  0.4304
    4MOL   H312 3198   3.085   2.759   1.105  0.4167 -0.1048 -2.7600
    4MOL   H313 3199   2.973   2.626   1.111  2.0865  0.2534  1.4133
    4MOL   H314 3200   2.923   2.913   1.174  0.7883  0.2014  1.3590
    4MOL   H315 3201   2.786   2.810   1.159 -0.7282  0.3863  0.6296
    4MOL   H316 3202   2.850   2.832   1.392 -1.2930 -2.9133  1.9955
    4MOL   H317 3203   3.019   2.791   1.359  0.6669 -1.2841  0.6529
    4MOL   H318 3204   2.955   2.561   1.305 -0.5320 -1.2032  1.3285
    4MOL   H319 3205   2.783   2.600   1.347 -0.4733  2.7143  1.9099
    4MOL   H320 3206   2.890   2.665   1.579 -3.3917  1.6585 -2.7992
    4MOL   H321 3207   3.033   2.586   1.515  0.0531  0.5807 -0.4720
    4MOL   H322 3208   2.924   2.374   1.482  0.3703 -0.7570  0.8382
    4MOL   H323 3209   2.772   2.447   1.542 -0.8263  2.5614  0.6411
    4MOL   H324 3210   2.901   2.458   1.769  2.6777 -0.3238  0.6251
    4MOL   H325 3211   3.048   2.407   1.681  0.4587  2.5371 -1.2596
    4MOL   H326 3212   2.821   2.221   1.698  0.3500 -1.2232 -2.2657
    4MOL   H327 3213   2.969   2.194   1.626  2.2964  1.5944 -0.5625
    4MOL   H328 3214   2.959   2.275   1.908  0.2757 -0.4367  0.0219
    4MOL   H329 3215   3.075   2.182   1.833  0.1211  0.5616  1.5045
    4MOL   H330 3216   2.892   1.864   2.123 -1.9797  1.2286  2.2569
    4MOL   H331 3217   2.766   1.968   2.087 -2.3526 -0.4787 -3.7927
    4MOL   H332 3218   2.724   1.740   2.012 -1.7159  0.5807 -1.1372
    4MOL   H333 3219   2.867   1.731   1.919  1.7133  2.6838 -0.5671
    4MOL   H334 3220   2.761   1.912   1.746 -0.2622  0.4265 -0.3974
    4MOL   H335 3221   2.633   1.915   1.874  1.2914  0.8828 -0.4227
    4MOL   H336 3222   2.680   1.649   1.751 -0.6488  0.2010  1.5893
    4MOL   H337 3223   2.609   1.771   1.648 -0.6697 -1.9171  0.2200
    4MOL   O338 3224   2.422   1.634   1.741  0.0539 -0.7194  0.0722
    4MOL   C339 3225   2.298   1.571   1.788  0.4608  0.9038  0.5749
    4MOL   C340 3226   2.300   1.426   1.733  0.1085  0.3343  0.1529
    4MOL   C341 3227   2.393   1.334   1.814 -0.6777  0.7085 -0.2548
    4MOL   C342 3228   2.407   1.189   1.752  0.5885 -0.3503 -0.8431
    4MOL   C343 3229   2.511   1.114   1.832 -0.1661 -0.0835 -0.2687
    4MOL   C344 3230   2.513   0.966   1.818  0.3141 -0.2383  0.0831
    4MOL   C345 3231   2.530   0.919   1.671 -0.8674 -0.3368  0.2750
    4MOL   C346 3232   2.530   0.769   1.647  0.3068 -0.2148  0.1137
    4MOL   C347 3233   2.474   0.726   1.512 -0.1769  0.1364  0.1259
    4MOL   C348 3234   2.433   0.576   1.504  0.2181  0.0763 -0.4215
    4MOL   O349 3235   2.362   0.545   1.387  0.0891 -0.3557  0.1921
    4MOL   C350 3236   2.423   0.512   1.272  0.4437  0.7780  0.9300
    4MOL   O351 3237   2.540   0.512   1.257  0.0113  0.5953  0.3693
    4MOL   C352 3238   2.327   0.471   1.164 -0.3222  0.3191 -0.1725
    4MOL   C353 3239   2.201   0.549   1.140  0.4461 -0.5157 -0.7520
    4MOL   C354 3240   2.213   0.662   1.051 -0.1937 -0.6597  0.0185
    4MOL   C355 3241   2.091   0.751   1.077 -0.1794  0.4125 -0.1618
    4MOL   C356 3242   1.970   0.691   1.006 -0.0210 -0.0284 -0.4046
    4MOL   O357 3243   1.956   0.703   0.885  0.2881  0.4367 -0.5325
    4MOL   H358 3244   2.287   1.565   1.896  0.1732 -0.3848  0.4807
    4MOL   H359 3245   2.206   1.614   1.748  0.7502 -0.3356 -1.5000
    4MOL   H360 3246   2.321   1.414   1.627  1.3755  0.1691  0.4128
    4MOL   H361 3247   2.206   1.375   1.753  1.3496 -1.4709  1.5813
    4MOL   H362 3248   2.499   1.361   1.809 -0.2512 -1.0144 -1.0172
    4MOL   H363 3249   2.369   1.327   1.920  0.2299  1.0291 -0.0241
    4MOL   H364 3250   2.448   1.190   1.652 -0.0761 -0.6859 -1.1205
    4MOL   H365 3251   2.306   1.149   1.742 -1.5517  3.7465  2.4650
    4MOL   H366 3252   2.492   1.123   1.939  1.1875  0.8993 -0.0923
    4MOL   H367 3253   2.610   1.154   1.812 -1.0176  1.2403 -1.8720
    4MOL   H368 3254   2.416   0.926   1.848  0.2031 -0.5657 -0.7053
    4MOL   H369 3255   2.589   0.912   1.875 -0.2416 -0.4841  0.6028
    4MOL   H370 3256   2.621   0.961   1.628 -1.1754 -2.1142 -2.2415
    4MOL   H371 3257   2.458   0.958   1.599  0.5625  1.6036 -0.1513
    4MOL   H372 3258   2.470   0.718   1.723  0.0425 -0.5080 -0.2840
    4MOL   H373 3259   2.627   0.721   1.655 -0.2463 -1.9445 -2.5720
    4MOL   H374 3260   2.391   0.790   1.481  2.1930  3.0694 -0.5111
    4MOL   H375 3261   2.549   0.744   1.435 -0.5400  0.2107 -0.2113
    4MOL   H376 3262   2.368   0.540   1.583  1.2467  1.3875  1.0437
    4MOL   H377 3263   2.522   0.512   1.505  0.9450  0.9637 -2.7092
    4MOL   H378 3264   2.374   0.442   1.070 -0.7878 -3.2328  0.6196
    4MOL   H379 3265   2.284   0.376   1.198  2.1381 -0.5567  0.5806
    4MOL   H380 3266   2.157   0.572   1.237 -0.6744 -1.0171 -1.1355
    4MOL   H381 3267   2.130   0.478   1.097  2.5722 -1.8447 -2.1214
    4MOL   H382 3268   2.218   0.637   0.945 -0.2769  3.0531 -0.9265
    4MOL   H383 3269   2.304   0.718   1.073 -1.2110  0.8641  0.4410
    4MOL   H384 3270   2.116   0.852   1.044  0.0407 -0.3440 -2.3883
    4MOL   H385 3271   2.069   0.763   1.183  1.1387  1.8322 -0.0273
    4MOL   O386 3272   1.886   0.621   1.095 -1.1181  1.1347 -0.0754
    4MOL   C387 3273   1.765   0.558   1.055  0.1301 -0.6074  0.1669
    4MOL   C388 3274   1.645   0.655   1.094  0.0319 -0.0091 -0.2004
    4MOL   C389 3275   1.604   0.660   1.248  0.3980  0.1689  0.3486
    4MOL   C390 3276   1.463   0.730   1.268  0.7416  0.3166 -0.6586
    4MOL   C391 3277   1.379   0.675   1.393 -0.1383 -0.0743  0.9073
    4MOL   C392 3278   1.242   0.741   1.373  0.3053 -0.2828 -0.7002
    4MOL   C393 3279   1.158   0.737   1.505 -0.0684 -0.4800  0.5378
    4MOL   C394 3280   1.095   0.597   1.528  0.1375  0.2265  0.4602
    4MOL   C395 3281   0.995   0.587   1.638  0.3810  0.2130 -0.3809
    4MOL   C396 3282   0.930   0.454   1.657 -0.4785 -0.7231 -0.8541
    4MOL   O397 3283   0.993   0.387   1.773  0.0678  0.5834 -0.1623
    4MOL   C398 3284   0.926   0.308   1.850  0.7287  0.6448 -0.3407
    4MOL   O399 3285   0.810   0.272   1.826  0.4497  0.6555 -0.1640
    4MOL   C400 3286   1.003   0.257   1.980 -0.1631  0.0591 -0.1998
    4MOL   C401 3287   0.992   0.342   2.098 -1.0756 -0.6258 -0.0083
    4MOL   C402 3288   0.849   0.370   2.147  0.3993  0.0279 -0.2192
    4MOL   C403 3289   0.839   0.442   2.289 -0.2534  0.1595  0.8783
    4MOL   C404 3290   0.878   0.359   2.415 -0.7441  0.1075 -0.4349
    4MOL   O405 3291   0.860   0.406   2.523  0.2513  0.4545  0.0619
    4MOL   H406 3292   1.759   0.545   0.947  3.1246  2.6636 -0.4824
    4MOL   H407 3293   1.755   0.459   1.099 -0.5415 -1.1833 -1.2483
    4MOL   H408 3294   1.556   0.616   1.045  0.0643 -0.2477 -0.0675
    4MOL   H409 3295   1.656   0.758   1.058 -2.6517  0.9097  1.4589
    4MOL   H410 3296   1.599   0.559   1.289 -1.1041  0.4980  1.0436
    4MOL   H411 3297   1.679   0.707   1.312  1.0329 -1.1556  0.6000
    4MOL   H412 3298   1.399   0.723   1.180 -1.0071  0.4738  0.5695
    4MOL   H413 3299   1.472   0.839   1.268 -0.1854  0.3956 -1.0462
    4MOL   H414 3300   1.411   0.707   1.493 -1.9792  2.1300  0.8440
    4MOL   H415 3301   1.375   0.567   1.391 -0.5020 -0.0476 -1.5552
    4MOL   H416 3302   1.181   0.686   1.302  1.9324 -1.0241 -1.5419
    4MOL   H417 3303   1.245   0.844   1.337  0.1936 -0.0660 -0.1073
    4MOL   H418 3304   1.072   0.805   1.505 -1.6202 -2.2502 -3.1970
    4MOL   H419 3305   1.200   0.759   1.602 -1.6752 -0.3559  1.2199
    4MOL   H420 3306   1.173   0.523   1.549 -0.7592 -0.3538  1.8178
    4MOL   H421 3307   1.050   0.564   1.434  0.1142 -0.8289  0.8280
    4MOL   H422 3308   1.045   0.610   1.732  0.0360  0.5874 -0.2867
    4MOL   H423 3309   0.915   0.660   1.633  0.7293  0.6160 -0.0793
    4MOL   H424 3310   0.929   0.385   1.573 -1.0300 -0.6508 -0.9083
    4MOL   H425 3311   0.829   0.485   1.680  0.1303  0.9545 -0.3599
    4MOL   H426 3312   0.974   0.154   2.002 -1.0488  0.2062 -0.6213
    4MOL   H427 3313   1.109   0.247   1.958 -0.5872 -2.9599 -1.1393
    4MOL   H428 3314   1.039   0.437   2.073  1.7907 -1.7876  0.7204
    4MOL   H429 3315   1.042   0.306   2.189 -0.9237  0.9025  0.5359
    4MOL   H430 3316   0.791   0.278   2.154  0.7106 -0.2971 -1.7023
    4MOL   H431 3317   0.801   0.432   2.072 -0.9663 -1.4738 -0.6119
    4MOL   H432 3318   0.743   0.487   2.314 -1.7187 -2.4023  0.0270
    4MOL   H433 3319   0.903   0.530   2.278 -0.1611  0.1342  1.1936
    4MOL   O434 3320   0.922   0.233   2.385  0.6121 -0.5045  0.5684
    4MOL   C435 3321   0.977   0.157   2.494  0.1174  0.0821 -0.5194
    4MOL   C436 3322   1.042   0.030   2.434  0.0701  0.3435  0.0629
    4MOL   C437 3323   1.135   7.720   2.528  0.1340 -0.5010 -0.1667
    4MOL   C438 3324   1.204   7.601   2.462 -0.1018 -0.4305  0.3222
    4MOL   C439 3325   1.292   7.521   2.565 -0.0946 -0.5608 -0.3148
    4MOL   C440 3326   1.360   7.397   2.504  0.4437 -0.1608 -0.3356
    4MOL   C441 3327   1.440   7.326   2.608  0.1190 -0.0725 -0.4587
    4MOL   C442 3328   1.515   7.211   2.544  0.2914  0.2584 -0.0619
    4MOL   C443 3329   1.428   7.083   2.528 -0.2310  0.0526  0.3215
    4MOL   C444 3330   1.506   6.962   2.531 -0.0569 -0.1954  0.1331
    4MOL   O445 3331   1.429   6.841   2.537  0.1732  0.3654 -0.3626
    4MOL   C446 3332   1.493   6.722   2.535  0.0989  0.4142  0.5373
    4MOL   O447 3333   1.610   6.691   2.520  0.2379  1.0919 -0.0817
    4MOL   C448 3334   1.390   6.612   2.548  0.2356  0.0844  0.4418
    4MOL   C449 3335   1.346   6.550   2.412  0.0339  0.0530 -0.0662
    4MOL   C450 3336   1.230   6.627   2.344  0.5711  0.7016 -0.1487
    4MOL   C451 3337   1.095   6.615   2.418  0.0458  0.2929  0.0736
    4MOL   C452 3338   0.986   6.700   2.360  0.0196 -0.1744  0.3894
    4MOL   O453 3339   0.885   6.655   2.309  0.2074  1.1310  0.2958
    4MOL   H454 3340   1.047   0.216   2.553  2.2245 -0.3944 -2.4738
    4MOL   H455 3341   0.899   0.128   2.564 -1.2216  0.2808 -1.9142
    4MOL   H456 3342   1.099   0.055   2.345  0.5095  2.1621  0.8301
    4MOL   H457 3343   0.970   7.725   2.390  2.1337 -1.0575 -1.1313
    4MOL   H458 3344   1.208   0.030   2.560  0.3647 -0.3001 -1.1551
    4MOL   H459 3345   1.075   7.690   2.614 -1.0671 -0.0824 -0.8548
    4MOL   H460 3346   1.258   7.648   2.380 -0.5072  1.1897  0.9668
    4MOL   H461 3347   1.132   7.528   2.428  0.6886 -0.9857 -0.1811
    4MOL   H462 3348   1.227   7.491   2.648  0.9033  0.6867  0.9450
    4MOL   H463 3349   1.375   7.579   2.605 -4.0008  3.0565  2.9431
    4MOL   H464 3350   1.411   7.438   2.417  0.3952  1.3958  0.3482
    4MOL   H465 3351   1.277   7.337   2.467  1.5277 -0.3021 -2.6421
    4MOL   H466 3352   1.377   7.297   2.691  1.3317 -1.4486  0.0076
    4MOL   H467 3353   1.510   7.402   2.644 -1.0424 -0.6976  3.2778
    4MOL   H468 3354   1.587   7.180   2.620 -2.2459 -2.1123  1.5132
    4MOL   H469 3355   1.569   7.222   2.450 -0.8740 -1.1430 -0.9145
    4MOL   H470 3356   1.353   7.065   2.606 -1.9124  0.1728 -1.2253
    4MOL   H471 3357   1.373   7.075   2.434  1.7023 -0.1040 -0.8051
    4MOL   H472 3358   1.577   6.957   2.613 -0.0910 -0.0903  0.1673
    4MOL   H473 3359   1.561   6.967   2.437 -1.7144  0.9305 -0.8039
    4MOL   H474 3360   1.435   6.524   2.595  2.3503  1.0633  0.3043
    4MOL   H475 3361   1.302   6.640   2.607 -0.8113 -0.6558 -0.7401
    4MOL   H476 3362   1.327   6.444   2.429 -4.0907  0.8253  0.7586
    4MOL   H477 3363   1.430   6.549   2.343  0.4445 -1.5508  0.4285
    4MOL   H478 3364   1.222   6.575   2.248  0.7793 -0.4343  0.4441
    4MOL   H479 3365   1.251   6.728   2.308 -1.6179  1.2503  0.0230
    4MOL   H480 3366   1.105   6.654   2.520 -1.0297 -0.9534  0.6728
    4MOL   H481 3367   1.078   6.508   2.420 -0.1890  0.3246 -0.2454
    4MOL   O482 3368   1.003   6.828   2.382  0.0869 -0.2345  0.0587
    4MOL   C483 3369   0.908   6.919   2.326  0.0508  0.5610  0.1950
    4MOL   C484 3370   0.953   7.061   2.344 -0.1323  0.6189  0.2000
    4MOL   C485 3371   1.087   7.092   2.272 -0.1332 -1.3088 -0.0217
    4MOL   C486 3372   1.092   7.232   2.212 -0.3292  0.1886 -0.3269
    4MOL   C487 3373   1.008   7.255   2.093  0.1983 -0.4068  0.7725
    4MOL   C488 3374   1.031   7.390   2.034 -0.0368 -0.4767 -0.5808
    4MOL   C489 3375   0.919   7.435   1.933 -0.0742 -0.4305  0.0826
    4MOL   C490 3376   0.965   7.558   1.863  0.6907 -0.1646 -0.0783
    4MOL   C491 3377   0.861   7.608   1.760  0.1977 -0.1782  0.0269
    4MOL   C492 3378   0.890   7.752   1.703 -0.0661 -0.3407  0.0736
    4MOL   O493 3379   0.891   7.739   1.565 -0.2061 -0.3086 -0.2143
    4MOL   C494 3380   0.952   0.067   1.482 -0.0961  0.4270 -0.0946
    4MOL   O495 3381   1.013   0.164   1.513 -0.4720 -0.1661 -0.2627
    4MOL   C496 3382   0.936   0.021   1.336 -0.0254 -0.1187  0.6579
    4MOL   C497 3383   0.882   7.640   1.313 -0.8222  0.3814 -0.0747
    4MOL   C498 3384   0.863   7.617   1.162  0.3318  0.0920 -0.2326
    4MOL   C499 3385   0.990   7.616   1.076 -0.5159  0.3958  0.0214
    4MOL   C500 3386   1.093   7.513   1.128 -0.7661 -0.5183  0.3430
    4MOL   O501 3387   1.060   7.416   1.196  0.1053  0.7764 -0.7688
    4MOL   H502 3388   0.895   6.905   2.218 -0.2747  0.7385  0.2130
    4MOL   H503 3389   0.807   6.903   2.361  0.4149  1.4272  1.6970
    4MOL   H504 3390   0.968   7.091   2.448 -0.1110  0.2302  0.3106
    4MOL   H505 3391   0.876   7.126   2.303  0.8961  1.4522 -0.4589
    4MOL   H506 3392   1.179   7.093   2.330  2.1273 -1.2170 -3.4625
    4MOL   H507 3393   1.097   7.022   2.188  0.6033 -0.4675 -0.6450
    4MOL   H508 3394   1.193   7.255   2.179  0.1196 -0.4811  0.5676
    4MOL   H509 3395   1.082   7.306   2.291 -0.4620  0.0464 -0.2107
    4MOL   H510 3396   0.903   7.254   2.123 -0.7215  1.4116 -2.1279
    4MOL   H511 3397   1.028   7.169   2.029  1.1289  0.2099  0.2162
    4MOL   H512 3398   1.124   7.387   1.977  0.2595  4.9436 -0.6980
    4MOL   H513 3399   1.038   7.467   2.111  0.4993  0.2280 -1.3123
    4MOL   H514 3400   0.828   7.456   1.988 -1.7181 -1.4103 -2.1919
    4MOL   H515 3401   0.897   7.350   1.869 -0.0695 -0.9342  0.7402
    4MOL   H516 3402   1.062   7.536   1.816  0.2342  0.0474 -1.1453
    4MOL   H517 3403   0.994   7.638   1.931 -1.9702  1.9007 -1.2972
    4MOL   H518 3404   0.869   7.539   1.676  1.2853  2.2108 -1.8714
    4MOL   H519 3405   0.765   7.605   1.811  0.2394  0.3295  0.1352
    4MOL   H520 3406   0.986   0.028   1.736 -0.7250 -0.9138  2.8170
    4MOL   H521 3407   0.824   0.064   1.744  0.8913  0.1159  0.7906
    4MOL   H522 3408   0.862   0.092   1.300  0.8392 -0.4063 -1.8237
    4MOL   H523 3409   1.027   0.043   1.279  0.4548  3.9101  2.7994
    4MOL   H524 3410   0.790   7.619   1.368  0.2667 -0.6596  1.4043
    4MOL   H525 3411   0.946   7.559   1.349  0.3151  0.4084 -1.9791
    4MOL   H526 3412   0.802   7.695   1.117  2.0197  1.4442 -0.2143
    4MOL   H527 3413   0.834   7.513   1.146  1.2570 -0.0415 -1.1255
    4MOL   H528 3414   1.045   7.710   1.074  0.3288 -0.0564  1.0754
    4MOL   H529 3415   0.966   7.603   0.971 -2.3829  3.0715  0.0800
    4MOL   O530 3416   1.212   7.531   1.076  0.5624  0.3077 -0.4243
    4MOL   C531 3417   1.327   7.477   1.141 -0.6313 -0.3792 -0.3361
    4MOL   C532 3418   1.379   7.568   1.251 -0.2139  0.0160  0.9247
    4MOL   C533 3419   1.512   7.526   1.317  0.3212  0.0812  0.2075
    4MOL   C534 3420   1.570   7.623   1.425  0.2697 -0.2885  0.9145
    4MOL   C535 3421   1.535   7.569   1.565 -1.2805 -0.7036  0.4182
    4MOL   C536 3422   1.387   7.538   1.588 -0.3591 -0.4536  0.3529
    4MOL   C537 3423   1.374   7.493   1.733 -0.5069 -0.4881 -0.8060
    4MOL   C538 3424   1.372   7.610   1.837 -0.2894  0.0906  0.6482
    4MOL   C539 3425   1.377   7.539   1.982  0.9103  0.5183  0.1729
    4MOL   C540 3426   1.299   7.609   2.091  0.0976 -0.0076 -0.4145
    4MOL   O541 3427   1.332   7.746   2.102  0.3555  0.1668  0.3626
    4MOL   C542 3428   1.432   0.026   2.185  0.7498 -0.4483  0.6329
    4MOL   O543 3429   1.511   7.714   2.242  0.0640  0.2146 -0.4290
    4MOL   C544 3430   1.441   0.175   2.192  0.1512  0.3524 -0.4740
    4MOL   C545 3431   1.539   0.237   2.092 -0.3912  0.5348 -0.5814
    4MOL   C546 3432   1.539   0.390   2.093  0.0604 -0.2291 -0.1729
    4MOL   C547 3433   1.399   0.457   2.046  0.2624 -0.0556  0.1355
    4MOL   C548 3434   1.351   0.438   1.900 -0.2903  0.1670 -0.4729
    4MOL   O549 3435   1.339   0.538   1.826 -0.3041  0.2860  0.6120
    4MOL   H550 3436   1.304   7.375   1.173 -0.7146  0.7501  3.4515
    4MOL   H551 3437   1.407   7.472   1.066 -0.4589  1.4995 -0.2927
    4MOL   H552 3438   1.312   7.594   1.332 -0.5503 -2.0613  1.3414
    4MOL   H553 3439   1.396   7.662   1.198  1.9900 -0.5638  0.5349
    4MOL   H554 3440   1.511   7.420   1.345 -0.6997 -0.4791 -1.8324
    4MOL   H555 3441   1.589   7.531   1.241 -0.5710  2.7171 -0.5670
    4MOL   H556 3442   1.535   7.720   1.391 -1.4292 -1.6062 -1.3449
    4MOL   H557 3443   1.678   7.628   1.415 -0.0235  1.7793 -2.1441
    4MOL   H558 3444   1.574   7.647   1.630 -0.9865 -1.7012  1.4404
    4MOL   H559 3445   1.594   7.482   1.591 -1.0174 -0.1781  1.6354
    4MOL   H560 3446   1.358   7.450   1.531 -1.5890  0.7413 -0.9050
    4MOL   H561 3447   1.314   7.613   1.556 -1.6505 -0.8389  2.2786
    4MOL   H562 3448   1.439   7.409   1.757  0.0721  0.0710 -0.3970
    4MOL   H563 3449   1.277   7.443   1.728 -1.0997  0.5627 -0.1003
    4MOL   H564 3450   1.276   7.661   1.824  0.2797  1.0311  0.1170
    4MOL   H565 3451   1.445   7.689   1.821 -0.7552  0.9996  2.8115
    4MOL   H566 3452   1.342   7.435   1.976 -0.4934  0.9445  0.7812
    4MOL   H567 3453   1.483   7.539   2.005  0.9190  0.5002  0.1337
    4MOL   H568 3454   1.310   7.562   2.189  0.7004 -1.6563 -1.2622
    4MOL   H569 3455   1.191   7.604   2.079  0.0177 -0.6280  0.4803
    4MOL   H570 3456   1.347   0.219   2.160  1.1897  1.1933 -2.4921
    4MOL   H571 3457   1.471   0.205   2.292  1.1544 -1.0118 -0.3469
    4MOL   H572 3458   1.511   0.214   1.990  1.1203 -1.5787 -0.5549
    4MOL   H573 3459   1.639   0.198   2.113 -0.8944 -0.8677 -0.7524
    4MOL   H574 3460   1.609   0.421   2.014 -0.0239 -0.2100 -0.2399
    4MOL   H575 3461   1.567   0.423   2.193 -0.9587 -2.0177  0.7310
    4MOL   H576 3462   1.412   0.559   2.082  0.6046  0.1788 -0.6269
    4MOL   H577 3463   1.315   0.441   2.113  0.1584  0.6656  0.1774
    4MOL   O578 3464   1.315   0.315   1.864  0.2200  0.3566  0.3730
    4MOL   C579 3465   1.276   0.290   1.728  0.4824 -0.5085 -0.5039
    4MOL   C580 3466   1.380   0.229   1.640  0.2183  0.4104 -0.4348
    4MOL   C581 3467   1.495   0.324   1.602 -0.4202  0.1291 -0.1552
    4MOL   C582 3468   1.613   0.246   1.541  0.3638  0.1531 -0.1997
    4MOL   C583 3469   1.714   0.352   1.506  0.0148  0.8521 -0.5755
    4MOL   C584 3470   1.831   0.275   1.431 -0.3976 -1.0700 -0.5628
    4MOL   C585 3471   1.947   0.355   1.372  0.3801 -0.8297 -0.8849
    4MOL   C586 3472   2.027   0.455   1.463 -0.0630  0.2128 -0.2639
    4MOL   C587 3473   1.965   0.591   1.461  0.4850  0.1077 -0.8582
    4MOL   C588 3474   2.040   0.699   1.538  0.6354 -0.7475  0.2589
    4MOL   O589 3475   2.063   0.685   1.679 -0.1541  0.4020  0.1625
    4MOL   C590 3476   2.073   0.798   1.758  0.0146  0.3691  0.4748
    4MOL   O591 3477   2.091   0.915   1.714 -0.1528  0.2657  0.0042
    4MOL   C592 3478   2.055   0.763   1.906 -0.3098 -0.8052 -0.3995
    4MOL   C593 3479   2.177   0.789   2.002  0.4496 -0.6288 -0.4051
    4MOL   C594 3480   2.283   0.681   1.989  0.0041  0.2086  0.1322
    4MOL   C595 3481   2.411   0.701   2.076 -0.2563 -0.0662 -0.5599
    4MOL   C596 3482   2.381   0.675   2.223 -0.2344  0.2644  0.2606
    4MOL   O597 3483   2.418   0.573   2.283 -0.7262  0.4454  0.3911
    4MOL   H598 3484   1.191   0.222   1.729  1.0817 -1.3007 -1.8095
    4MOL   H599 3485   1.230   0.379   1.684  1.2682  0.2244  0.1235
    4MOL   H600 3486   1.343   0.193   1.544  0.2485  0.4483 -0.4608
    4MOL   H601 3487   1.422   0.139   1.685 -0.3697  1.0777  1.5169
    4MOL   H602 3488   1.455   0.392   1.528  1.7063  1.4264 -0.1605
    4MOL   H603 3489   1.536   0.373   1.690  1.4619 -1.5270 -0.0532
    4MOL   H604 3490   1.582   0.186   1.455 -0.9551  1.3500 -0.5771
    4MOL   H605 3491   1.651   0.172   1.612 -2.0926 -1.4610 -0.4761
    4MOL   H606 3492   1.742   0.419   1.587 -1.5509  2.8939 -1.6613
    4MOL   H607 3493   1.672   0.416   1.428  0.5544 -0.1043 -1.6745
    4MOL   H608 3494   1.782   0.222   1.349 -2.7531  0.9268 -0.5373
    4MOL   H609 3495   1.878   0.203   1.497  0.8377  2.3657  2.5106
    4MOL   H610 3496   1.895   0.412   1.294 -1.8716 -2.4130 -0.6013
    4MOL   H611 3497   2.008   0.283   1.317 -0.7658 -2.1235 -0.5081
    4MOL   H612 3498   2.134   0.450   1.441  0.1836 -0.0980  0.9893
    4MOL   H613 3499   2.028   0.422   1.567  0.7479 -0.7058 -0.5505
    4MOL   H614 3500   1.967   0.629   1.359 -0.0392 -1.2032 -1.3696
    4MOL   H615 3501   1.860   0.590   1.490  0.4302 -3.7968 -1.0217
    4MOL   H616 3502   1.984   0.792   1.529 -0.2643 -1.0965  2.0000
    4MOL   H617 3503   2.138   0.709   1.492 -0.0118 -1.9880 -1.4279
    4MOL   H618 3504   1.969   0.821   1.939  0.7250  0.0083  0.9120
    4MOL   H619 3505   2.020   0.661   1.913  2.1766 -1.6398  0.4683
    4MOL   H620 3506   2.140   0.773   2.103 -0.0792 -0.2252 -0.5309
    4MOL   H621 3507   2.219   0.889   2.002 -1.7600  0.3374  0.6895
    4MOL   H622 3508   2.310   0.687   1.884 -0.7043  0.6724 -0.0251
    4MOL   H623 3509   2.241   0.582   2.007  0.2359 -0.0668 -0.8210
    4MOL   H624 3510   2.449   0.803   2.085  1.3529 -0.6913 -0.0000
    4MOL   H625 3511   2.481   0.625   2.040  3.0045  0.7713  3.6079
    4MOL   O626 3512   2.310   0.770   2.275 -0.2161 -0.6487  0.1683
    4MOL   C627 3513   2.291   0.764   2.411  0.9714 -0.0199  0.3437
    4MOL   C628 3514   2.169   0.844   2.445 -0.5917 -0.0288 -0.2792
    4MOL   C629 3515   2.158   0.861   2.607  0.5396 -0.3230  0.3253
    4MOL   C630 3516   2.020   0.893   2.669  0.1688 -0.1543  0.2612
    4MOL   C631 3517   2.028   0.926   2.815 -0.7555 -0.6042  0.2722
    4MOL   C632 3518   1.898   0.997   2.866  0.1080 -0.0575  0.2765
    4MOL   C633 3519   1.903   1.027   3.015  0.8665  0.0436 -0.3237
    4MOL   C634 3520   1.962   1.164   3.043 -0.2377  0.0158  0.5228
    4MOL   C635 3521   1.956   1.193   3.191  0.3828  0.1197  0.0669
    4MOL   C636 3522   1.927   1.335   3.230  0.0142 -0.3785 -0.1361
    4MOL   O637 3523   1.921   1.336   3.370  0.3747  0.3651 -0.0739
    4MOL   C638 3524   1.926   1.454   3.443 -0.0147 -0.5606  0.0960
    4MOL   O639 3525   1.943   1.563   3.394 -0.4994  0.4885 -0.3727
    4MOL   C640 3526   1.902   1.431   3.590  0.3148 -0.0698  0.3748
    4MOL   C641 3527   1.909   1.556   3.685 -0.0596  0.3590  0.6305
    4MOL   C642 3528   1.794   1.653   3.676  0.0763  0.3728 -0.2840
    4MOL   C643 3529   1.657   1.594   3.725 -0.1463  0.2789 -0.3243
    4MOL   C644 3530   1.537   1.672   3.671 -0.7206  0.4171  0.0547
    4MOL   O645 3531   1.496   1.660   3.553 -0.2176  0.7308 -0.1241
    4MOL   H646 3532   2.275   0.660   2.439  2.5562 -0.1156  0.9855
    4MOL   H647 3533   2.384   0.806   2.451  0.1102  3.2923 -0.9517
    4MOL   H648 3534   2.075   0.810   2.402 -0.8326 -0.5094  0.6218
    4MOL   H649 3535   2.182   0.944   2.405  1.8648 -1.4233 -3.1304
    4MOL   H650 3536   2.194   0.764   2.642 -0.4276 -1.2665 -1.2135
    4MOL   H651 3537   2.235   0.930   2.642 -0.3834  0.7196  0.3050
    4MOL   H652 3538   1.951   0.809   2.655 -1.0847  0.4373  2.5328
    4MOL   H653 3539   1.987   0.982   2.614  0.8472 -0.8274 -1.2742
    4MOL   H654 3540   2.117   0.988   2.825 -0.1679 -0.8542 -2.8485
    4MOL   H655 3541   2.032   0.834   2.873  2.0711 -0.3458  0.5485
    4MOL   H656 3542   1.806   0.943   2.839  1.9857 -1.7749 -3.0854
    4MOL   H657 3543   1.889   1.091   2.812 -2.0790  0.0716  0.8305
    4MOL   H658 3544   1.946   0.947   3.075 -0.2222 -0.1950  0.1519
    4MOL   H659 3545   1.802   1.032   3.056  0.1659  2.0728 -2.1946
    4MOL   H660 3546   1.917   1.245   2.986  0.8600  0.8141  0.7691
    4MOL   H661 3547   2.068   1.161   3.016 -0.5082 -0.4485 -0.5206
    4MOL   H662 3548   1.883   1.126   3.237  2.0341 -2.0581 -0.4101
    4MOL   H663 3549   2.051   1.150   3.221  0.7078 -1.3753 -2.9300
    4MOL   H664 3550   1.836   1.382   3.194 -0.0718 -1.4186 -1.3157
    4MOL   H665 3551   2.006   1.406   3.206 -0.1707 -0.4239 -0.8796
    4MOL   H666 3552   1.802   1.388   3.598  0.7426 -0.9954  0.8116
    4MOL   H667 3553   1.966   1.350   3.623  1.0721  1.6423  3.3051
    4MOL   H668 3554   2.009   1.597   3.670  0.1151 -0.2915 -0.0624
    4MOL   H669 3555   1.914   1.524   3.789  0.7904 -1.0764  0.1683
    4MOL   H670 3556   1.775   1.691   3.575  2.0075 -2.0057 -1.6218
    4MOL   H671 3557   1.831   1.731   3.741 -0.2467 -1.4072  2.0956
    4MOL   H672 3558   1.656   1.589   3.834 -1.7352  1.0850 -0.2966
    4MOL   H673 3559   1.645   1.488   3.703 -1.4914  0.2173  0.6583
    4MOL   O674 3560   1.488   1.759   3.769 -0.6823  0.3375  0.0959
    4MOL   C675 3561   1.390   1.857   3.729  0.4462 -0.5805  0.2965
    4MOL   C676 3562   1.402   1.990   3.807 -0.0763 -0.4068 -0.3172
    4MOL   C677 3563   1.323   2.101   3.730  0.1849  0.1568 -0.2309
    4MOL   C678 3564   1.339   2.245   3.800  0.0597  0.0291 -0.2723
    4MOL   C679 3565   1.274   2.355   3.729 -0.0813  0.1597  0.4495
    4MOL   C680 3566   1.313   2.497   3.778  0.2575 -0.9775 -0.4780
    4MOL   C681 3567   1.219   2.552   3.889  0.7526  0.0672 -0.6361
    4MOL   C682 3568   1.246   2.689   3.953 -0.8041 -0.9313 -0.4435
    4MOL   C683 3569   1.389   2.687   4.020 -0.3586  0.2375  0.1703
    4MOL   C684 3570   1.400   2.779   4.142  0.2430 -0.0502  0.7743
    4MOL   O685 3571   1.384   2.904   4.081 -0.1850 -0.4126  0.5255
    4MOL   C686 3572   1.348   3.010   4.153 -0.3103 -0.0384 -0.5018
    4MOL   O687 3573   1.321   3.009   4.274 -0.3211 -0.4874  0.0684
    4MOL   C688 3574   1.337   3.140   4.072  0.3986 -0.8112 -0.0575
    4MOL   C689 3575   1.311   3.267   4.154  0.3040  1.2453 -0.4008
    4MOL   C690 3576   1.284   3.388   4.059 -0.1313 -0.4021 -0.3612
    4MOL   C691 3577   1.263   3.518   4.140  0.2162 -0.0354 -0.1898
    4MOL   C692 3578   1.258   3.635   4.042 -0.1120  0.2886  0.0286
    4MOL   O693 3579   1.316   3.633   3.930  0.2518 -0.2836 -0.0557
    4MOL   H694 3580   1.396   1.878   3.622  2.0741  0.7414  0.6229
    4MOL   H695 3581   1.291   1.819   3.754 -1.6753  3.8898 -0.7880
    4MOL   H696 3582   1.506   2.021   3.819 -0.2165 -0.4837  1.2259
    4MOL   H697 3583   1.375   1.985   3.913  0.1408 -0.3575 -0.2589
    4MOL   H698 3584   1.363   2.102   3.629  0.2540  2.2256 -0.2066
    4MOL   H699 3585   1.218   2.079   3.712  0.5426 -2.0401  0.3133
    4MOL   H700 3586   1.445   2.264   3.811  0.2416 -0.8914 -0.4196
    4MOL   H701 3587   1.285   2.240   3.895 -0.9025 -0.5082 -0.8372
    4MOL   H702 3588   1.165   2.344   3.731  0.0016 -0.5741  1.9517
    4MOL   H703 3589   1.303   2.343   3.625 -2.1404 -0.8327 -0.0477
    4MOL   H704 3590   1.325   2.568   3.697 -0.1600 -0.5461 -0.1631
    4MOL   H705 3591   1.411   2.492   3.826  0.0235 -2.6660 -0.1601
    4MOL   H706 3592   1.214   2.476   3.967 -0.3311  1.4358  0.6479
    4MOL   H707 3593   1.119   2.552   3.846  0.3789 -0.8138  0.2248
    4MOL   H708 3594   1.169   2.712   4.027 -0.4845  0.5091 -0.5359
    4MOL   H709 3595   1.234   2.779   3.893 -0.6959 -1.3914 -1.1641
    4MOL   H710 3596   1.416   2.586   4.051  0.3491 -0.2411 -1.9516
    4MOL   H711 3597   1.453   2.706   3.934  0.4772 -2.1261  0.2184
    4MOL   H712 3598   1.492   2.762   4.198  1.1149  1.4606 -0.1702
    4MOL   H713 3599   1.325   2.761   4.218 -0.8444  1.0803 -0.0046
    4MOL   H714 3600   1.432   3.146   4.018  0.0529 -0.9628 -0.6790
    4MOL   H715 3601   1.261   3.125   3.997 -0.4808  2.8799  0.0371
    4MOL   H716 3602   1.393   3.282   4.224 -1.0258 -2.3691  2.1102
    4MOL   H717 3603   1.224   3.258   4.219  0.6037  2.3686  0.1631
    4MOL   H718 3604   1.197   3.360   3.998 -0.1582 -2.4565  0.5723
    4MOL   H719 3605   1.365   3.381   3.987 -0.3940 -0.2501 -0.6726
    4MOL   H720 3606   1.345   3.533   4.210  1.0238 -1.4736 -0.8089
    4MOL   H721 3607   1.167   3.503   4.189 -1.0924  1.4910 -2.1753
    4MOL   O722 3608   1.162   3.714   4.070 -0.8850  0.0686 -0.3711
    4MOL   C723 3609   1.114   3.818   3.987 -0.1129 -0.2583  0.5971
    4MOL   C724 3610   1.002   3.885   4.062  0.5831  0.4149 -0.0773
    4MOL   C725 3611   1.056   3.985   4.170  0.2756 -0.5209  0.2845
    4MOL   C726 3612   0.946   4.080   4.219  0.2947 -0.1804  0.7207
    4MOL   C727 3613   1.004   4.151   4.345  0.4270 -0.7268 -0.3637
    4MOL   C728 3614   0.935   4.289   4.386  0.5386  0.1861 -0.0820
    4MOL   C729 3615   0.780   4.284   4.373 -0.1198  0.4075  0.3239
    4MOL   C730 3616   0.722   4.416   4.434  0.3829 -0.1574 -0.3656
    4MOL   C731 3617   0.566   4.430   4.420 -0.3665 -0.2267 -0.3345
    4MOL   C732 3618   0.489   4.299   4.457  0.6269  0.0539 -0.4779
    4MOL   O733 3619   0.494   4.208   4.344  0.7755  0.0023  0.1739
    4MOL   C734 3620   0.431   4.232   4.225  1.0233 -0.2828 -0.3034
    4MOL   O735 3621   0.346   4.314   4.203 -0.4659  0.0062 -0.2641
    4MOL   C736 3622   0.497   4.159   4.111 -0.7225 -0.0700 -0.0138
    4MOL   C737 3623   0.486   4.002   4.128  0.3697  0.1735 -0.0876
    4MOL   C738 3624   0.582   3.920   4.045  0.6556 -0.1788  0.4770
    4MOL   C739 3625   0.580   3.769   4.062  0.0492  0.2735 -0.4030
    4MOL   C740 3626   0.649   3.687   3.949 -0.0320 -0.0448  0.6889
    4MOL   O741 3627   0.771   3.695   3.928 -0.3525 -0.1408  0.2774
    4MOL   H742 3628   1.204   3.874   3.962  1.2488 -1.2198  3.1285
    4MOL   H743 3629   1.070   3.779   3.896 -0.7423 -0.8042  1.1281
    4MOL   H744 3630   0.933   3.818   4.115 -0.8996  0.6495 -1.6952
    4MOL   H745 3631   0.942   3.949   3.998  0.3798  0.0019 -0.3019
    4MOL   H746 3632   1.098   3.936   4.258 -0.0537  1.3249  1.5017
    4MOL   H747 3633   1.140   4.047   4.140  0.1165  0.2460  1.4101
    4MOL   H748 3634   0.858   4.025   4.253  0.6672 -0.4178  1.3043
    4MOL   H749 3635   0.921   4.155   4.144 -0.7365 -0.8108  0.4316
    4MOL   H750 3636   1.107   4.182   4.328 -0.0353  0.8162 -0.5010
    4MOL   H751 3637   1.006   4.083   4.430 -0.7431 -2.5365 -1.7647
    4MOL   H752 3638   0.985   4.363   4.324 -0.1241  0.6336 -0.0894
    4MOL   H753 3639   0.950   4.300   4.493 -1.3823  1.3490  0.0914
    4MOL   H754 3640   0.748   4.188   4.413  1.4515 -0.3060 -0.1158
    4MOL   H755 3641   0.757   4.283   4.266 -0.6493  1.9300  0.4075
    4MOL   H756 3642   0.761   4.503   4.382 -0.7738  0.4771 -0.1863
    4MOL   H757 3643   0.740   4.421   4.541  1.6972 -2.3171 -0.4635
    4MOL   H758 3644   0.535   4.504   4.493 -1.6663  0.0107 -1.1002
    4MOL   H759 3645   0.546   4.459   4.316  0.0231  1.3002  0.0064
    4MOL   H760 3646   0.382   4.318   4.466  0.1723 -3.3522  2.2960
    4MOL   H761 3647   0.512   4.251   4.552  0.4102 -1.5144 -1.2108
    4MOL   H762 3648   0.453   4.189   4.015 -1.7388 -0.8634  0.1919
    4MOL   H763 3649   0.601   4.187   4.096 -0.4660 -0.1062  1.6888
    4MOL   H764 3650   0.378   3.990   4.114  0.0806  0.3246  1.9132
    4MOL   H765 3651   0.495   3.977   4.234  0.0023 -0.1331 -0.1251
    4MOL   H766 3652   0.687   3.948   4.058  0.2490  2.1182 -0.8289
    4MOL   H767 3653   0.558   3.947   3.942 -0.2489 -1.5635  0.3171
    4MOL   H768 3654   0.478   3.730   4.060  0.4989 -0.8832 -1.5691
    4MOL   H769 3655   0.635   3.751   4.155 -1.8602 -3.2842  0.1393
    4MOL   O770 3656   0.572   3.606   3.878  0.1131 -0.3434 -0.3465
    4MOL   C771 3657   0.617   3.507   3.784  0.3495  0.1144  0.2702
    4MOL   C772 3658   0.555   3.370   3.813 -0.5199  0.0987  0.2991
    4MOL   C773 3659   0.588   3.315   3.955  0.0763 -0.0581  0.2791
    4MOL   C774 3660   0.518   3.185   3.997  0.0223 -0.2512 -0.6314
    4MOL   C775 3661   0.369   3.182   4.008 -0.7477 -0.3694 -0.2179
    4MOL   C776 3662   0.319   3.058   4.087  0.1116  0.0963  0.1829
    4MOL   C777 3663   0.167   3.070   4.112 -0.3407 -0.4351 -0.4727
    4MOL   C778 3664   0.116   2.943   4.172  0.5810  0.0772 -0.7308
    4MOL   C779 3665   0.154   2.911   4.318 -0.0650  0.3862  0.6686
    4MOL   C780 3666   0.071   2.786   4.378 -0.7731 -0.2187 -0.1643
    4MOL   O781 3667   7.697   2.815   4.362  0.3559  0.6308  0.1889
    4MOL   C782 3668   7.628   2.858   4.474  0.5237  0.2705  0.1245
    4MOL   O783 3669   7.681   2.879   4.580  0.0105 -0.3686 -0.8448
    4MOL   C784 3670   7.489   2.886   4.447  0.3430  0.0487  0.5929
    4MOL   C785 3671   7.420   2.806   4.333 -0.4082  0.2940 -0.6040
    4MOL   C786 3672   7.403   2.655   4.360 -0.0948  0.3271 -0.2017
    4MOL   C787 3673   7.307   2.627   4.484 -0.2823  0.2146 -0.3115
    4MOL   C788 3674   7.287   2.473   4.496  0.3075 -0.0173  0.9428
    4MOL   O789 3675   7.183   2.431   4.451 -0.0153  0.4341 -0.0354
    4MOL   H790 3676   0.580   3.532   3.685  1.5757 -2.2471 -0.8229
    4MOL   H791 3677   0.726   3.494   3.783  0.6569  2.4266 -0.8220
    4MOL   H792 3678   0.608   3.304   3.744 -1.2891  1.0521 -1.2332
    4MOL   H793 3679   0.450   3.358   3.785 -0.5919 -0.9108  0.9618
    4MOL   H794 3680   0.696   3.310   3.967  0.1626  1.3132  0.0941
    4MOL   H795 3681   0.565   3.402   4.017 -1.0560 -0.5232  0.5219
    4MOL   H796 3682   0.564   3.157   4.092  2.1307 -1.1206 -1.8820
    4MOL   H797 3683   0.555   3.108   3.929  0.4556 -1.2463  0.7125
    4MOL   H798 3684   0.328   3.179   3.907 -0.3152  0.2011 -0.4120
    4MOL   H799 3685   0.323   3.269   4.054 -0.7893 -0.6789  0.3293
    4MOL   H800 3686   0.373   3.065   4.181  1.5319 -2.4635 -0.3945
    4MOL   H801 3687   0.352   2.969   4.033 -0.1873 -0.4472  0.8966
    4MOL   H802 3688   0.118   3.082   4.016 -0.7189 -1.6087 -0.4421
    4MOL   H803 3689   0.144   3.163   4.163  1.0533 -0.4306  0.1607
    4MOL   H804 3690   0.135   2.857   4.106  4.0941  0.4166 -0.2534
    4MOL   H805 3691   0.009   2.961   4.164  1.2847  4.4034 -1.2227
    4MOL   H806 3692   0.262   2.902   4.334 -0.1652  0.0387  1.1967
    4MOL   H807 3693   0.134   3.005   4.369 -3.1501  1.1435 -1.7876
    4MOL   H808 3694   0.104   2.756   4.478  1.9373  1.2163 -0.5835
    4MOL   H809 3695   0.090   2.693   4.325 -1.4187 -0.4107 -0.0599
    4MOL   H810 3696   7.435   2.863   4.539 -2.0734 -2.5012 -1.4064
    4MOL   H811 3697   7.477   2.994   4.436 -2.4627  0.0898  3.4482
    4MOL   H812 3698   7.471   2.818   4.238  0.2058  2.8084 -0.0063
    4MOL   H813 3699   7.324   2.854   4.314 -0.4155  0.3320 -0.4690
    4MOL   H814 3700   7.505   2.617   4.367 -0.4184 -0.5267  0.0350
    4MOL   H815 3701   7.369   2.596   4.274  0.6808 -0.6340  0.1417
    4MOL   H816 3702   7.213   2.683   4.477  1.0602  2.5234 -0.4354
    4MOL   H817 3703   7.352   2.659   4.577  1.3685  0.0984 -1.0601
    4MOL   O818 3704   7.381   2.405   4.559  0.6698  0.3195  0.3697
    4MOL   C819 3705   7.381   2.266   4.556  0.1977 -0.6029 -0.3608
    4MOL   C820 3706   7.492   2.207   4.469 -0.5060  0.1070 -0.2462
    4MOL   C821 3707   7.492   2.234   4.316 -0.6605  0.6131  0.0645
    4MOL   C822 3708   7.623   2.209   4.230  0.0958  0.3575  0.2753
    4MOL   C823 3709   7.612   2.209   4.078  0.3925 -0.2463 -0.0668
    4MOL   C824 3710   7.727   2.150   3.999  0.0980  0.7127  0.3743
    4MOL   C825 3711   7.722   2.167   3.844 -0.6044  0.1572 -0.4563
    4MOL   C826 3712   0.075   2.080   3.773  0.1237 -0.3433 -0.4028
    4MOL   C827 3713   0.057   2.068   3.621  0.2403  0.2345 -0.0614
    4MOL   C828 3714   0.146   1.967   3.546  0.6927  0.2000  0.4545
    4MOL   O829 3715   0.115   1.964   3.407  0.2733  0.5174  0.1997
    4MOL   C830 3716   0.057   1.858   3.350 -0.3952 -0.5882 -0.5541
    4MOL   O831 3717   0.041   1.755   3.414  0.6036 -0.3152  0.3153
    4MOL   C832 3718   0.023   1.862   3.200 -0.2893  0.0150  0.1315
    4MOL   C833 3719   0.147   1.840   3.108 -0.4146  0.4846  0.1828
    4MOL   C834 3720   0.185   1.696   3.077 -0.2219  0.3701  0.1447
    4MOL   C835 3721   0.236   1.664   2.939  0.1225 -0.1030 -0.5592
    4MOL   C836 3722   0.137   1.688   2.826  0.4101 -0.1727 -0.2170
    4MOL   O837 3723   0.134   1.791   2.758 -0.7514 -0.2585 -0.6295
    4MOL   H838 3724   7.400   2.238   4.660 -0.0489 -1.2367 -0.4817
    4MOL   H839 3725   7.284   2.225   4.528 -0.4160 -1.0021  2.1987
    4MOL   H840 3726   7.492   2.103   4.501  0.1494  0.2054  0.0916
    4MOL   H841 3727   7.577   2.261   4.512  0.1827  0.9037 -2.5348
    4MOL   H842 3728   7.399   2.190   4.279  0.5545 -1.3165 -0.7728
    4MOL   H843 3729   7.470   2.339   4.298 -2.0986  0.7037  2.1871
    4MOL   H844 3730   7.643   2.106   4.260 -1.5202  0.5737  2.1775
    4MOL   H845 3731   7.707   2.269   4.267  0.2718  0.1019  0.2945
    4MOL   H846 3732   7.622   2.312   4.043  0.0256  0.2607  1.2838
    4MOL   H847 3733   7.513   2.176   4.045 -0.0195  1.7525 -0.9204
    4MOL   H848 3734   7.730   2.043   4.018  2.0199  0.4201 -1.4685
    4MOL   H849 3735   0.058   2.186   4.037  0.3297 -1.9293  2.4551
    4MOL   H850 3736   7.743   2.267   3.806  1.2121  0.3758  1.0634
    4MOL   H851 3737   7.621   2.143   3.809 -0.2486 -1.3107 -0.5171
    4MOL   H852 3738   0.079   1.981   3.820  3.1801 -0.3629 -0.6490
    4MOL   H853 3739   0.170   2.129   3.792 -0.5495  1.4311 -1.5380
    4MOL   H854 3740   7.719   2.041   3.598 -0.0381  0.0429  1.3842
    4MOL   H855 3741   0.071   2.166   3.575 -0.4569 -0.7810 -2.5200
    4MOL   H856 3742   0.132   1.870   3.593  1.4526  0.0364  0.3491
    4MOL   H857 3743   0.247   2.005   3.564  0.8244  0.4325 -0.7027
    4MOL   H858 3744   7.711   1.786   3.183  1.2094 -1.1484 -1.5281
    4MOL   H859 3745   7.757   1.964   3.179  2.5527  0.6745 -1.0594
    4MOL   H860 3746   0.240   1.886   3.141 -0.3205  1.9593 -2.0100
    4MOL   H861 3747   0.123   1.895   3.016 -0.0559 -1.3751 -1.0434
    4MOL   H862 3748   0.100   1.627   3.088  1.3962 -1.3517  2.3571
    4MOL   H863 3749   0.266   1.661   3.141  1.5048  1.0894 -1.6130
    4MOL   H864 3750   0.259   1.557   2.942  0.5091  0.0037  0.4978
    4MOL   H865 3751   0.325   1.724   2.922 -0.0873  0.3326 -0.0986
    4MOL   O866 3752   0.062   1.580   2.815 -0.4787  0.0118  0.7187
    4MOL   C867 3753   7.699   1.595   2.751 -0.0998 -0.0493 -0.4443
    4MOL   C868 3754   7.614   1.476   2.784 -0.0368  0.2423  0.1756
    4MOL   C869 3755   7.473   1.481   2.725  0.5366  0.5597  0.0371
    4MOL   C870 3756   7.385   1.369   2.790 -0.4667 -0.4593  0.8420
    4MOL   C871 3757   7.240   1.367   2.733  0.0539  0.3910 -0.0979
    4MOL   C872 3758   7.155   1.291   2.831  0.5014 -0.1100 -0.1186
    4MOL   C873 3759   7.007   1.322   2.824  0.7676 -0.7472  0.3478
    4MOL   C874 3760   6.949   1.272   2.695 -0.1154  0.2949  0.1794
    4MOL   C875 3761   6.808   1.315   2.658 -0.6170 -0.4995  0.0350
    4MOL   C876 3762   6.770   1.241   2.523 -0.6951  0.4894  0.4401
    4MOL   O877 3763   6.764   1.105   2.536 -0.7836  0.1700  0.4148
    4MOL   C878 3764   6.758   1.018   2.436 -0.8451  0.1930  0.7272
    4MOL   O879 3765   6.728   1.040   2.315 -1.0670  0.4604  0.3772
    4MOL   C880 3766   6.785   0.879   2.489 -0.3452 -0.2032 -0.0675
    4MOL   C881 3767   6.672   0.779   2.447 -0.5245 -0.1376  0.0977
    4MOL   C882 3768   6.554   0.762   2.551  1.0680 -0.8810 -0.8820
    4MOL   C883 3769   6.449   0.669   2.512 -0.3571  0.1175  0.3017
    4MOL   C884 3770   6.353   0.709   2.398 -0.1051  0.0923 -0.0849
    4MOL   O885 3771   6.393   0.734   2.286 -0.0891 -0.6272  0.2818
    4MOL   H886 3772   7.653   1.687   2.787  2.4674  0.6694  1.1297
    4MOL   H887 3773   7.716   1.602   2.644 -1.8735  1.5540 -0.6460
    4MOL   H888 3774   7.610   1.469   2.892 -1.4124  0.4901  0.1393
    4MOL   H889 3775   7.665   1.388   2.745 -0.1391  0.3316 -0.1598
    4MOL   H890 3776   7.421   1.572   2.756  0.0260  0.3418 -0.1766
    4MOL   H891 3777   7.476   1.461   2.618 -2.2496  1.0330 -0.1723
    4MOL   H892 3778   7.379   1.385   2.898  0.8844 -2.0503  1.1653
    4MOL   H893 3779   7.440   1.275   2.796 -0.0752 -0.1787  1.8584
    4MOL   H894 3780   7.238   1.333   2.629 -0.4542 -2.2146  0.7426
    4MOL   H895 3781   7.198   1.468   2.734 -0.9610  0.0387 -2.7318
    4MOL   H896 3782   7.182   1.322   2.932 -1.0505 -0.0021  0.2745
    4MOL   H897 3783   7.169   1.184   2.819  0.3154  0.0088 -1.4751
    4MOL   H898 3784   6.987   1.426   2.850  0.4539 -0.9217  0.8320
    4MOL   H899 3785   6.954   1.267   2.902 -0.5494  0.3542  0.2505
    4MOL   H900 3786   6.947   1.163   2.700  1.1704  0.2711  0.2497
    4MOL   H901 3787   7.010   1.290   2.606  0.5486  0.4280  0.6653
    4MOL   H902 3788   6.753   1.278   2.745  1.4360 -1.2512  1.0479
    4MOL   H903 3789   6.798   1.422   2.641 -2.2198 -0.4227  1.3614
    4MOL   H904 3790   6.832   1.272   2.440 -0.3841  1.2016  0.9335
    4MOL   H905 3791   6.670   1.271   2.490  0.7072 -0.0489 -4.7322
    4MOL   H906 3792   6.881   0.852   2.445 -1.6697  0.1524 -3.2840
    4MOL   H907 3793   6.791   0.887   2.597  1.8203  1.9619 -0.3091
    4MOL   H908 3794   6.729   0.686   2.441  0.9798  0.7909 -0.1020
    4MOL   H909 3795   6.630   0.793   2.347 -1.8666 -2.8125  0.2368
    4MOL   H910 3796   6.510   0.858   2.580  1.1269 -1.3393  0.7738
    4MOL   H911 3797   6.590   0.705   2.636 -0.8814 -1.6004 -0.5040
    4MOL   H912 3798   6.391   0.634   2.597 -0.1510  0.8117  0.7217
    4MOL   H913 3799   6.490   0.570   2.490 -1.2111 -0.9120  3.1003
    4MOL   O914 3800   6.223   0.693   2.428  0.3562  0.3374 -0.0892
    4MOL   C915 3801   6.128   0.716   2.319  0.2221 -0.2223 -0.1134
    4MOL   C916 3802   6.015   0.608   2.319  0.3946 -0.4962  0.1776
    4MOL   C917 3803   6.075   0.464   2.307  0.0611  0.1511 -0.2891
    4MOL   C918 3804   5.981   0.359   2.239  0.3396 -1.1756 -0.1757
    4MOL   C919 3805   6.060   0.241   2.179 -0.0233  0.0118 -0.0135
    4MOL   C920 3806   6.124   0.141   2.272 -0.0564  0.3111  0.5668
    4MOL   C921 3807   6.189   0.016   2.200 -0.1755 -0.8146 -0.5818
    4MOL   C922 3808   6.246   7.693   2.307 -0.0284  0.3597 -0.0448
    4MOL   C923 3809   6.129   7.615   2.376  0.1717  0.3385  0.8927
    4MOL   C924 3810   6.183   7.534   2.497  0.2099  0.2138 -0.1229
    4MOL   O925 3811   6.240   7.616   2.603 -0.6759 -0.0074  0.1160
    4MOL   C926 3812   6.324   7.563   2.691 -0.0434 -0.3570 -0.0247
    4MOL   O927 3813   6.362   7.445   2.697 -0.5503  0.4017  0.2354
    4MOL   C928 3814   6.373   7.665   2.797  0.9211 -0.0767  0.6105
    4MOL   C929 3815   6.417   7.610   2.932  0.9820 -0.0822  0.3142
    4MOL   C930 3816   6.450   7.729   3.023 -0.3155 -0.4353  0.6705
    4MOL   C931 3817   6.570   0.057   2.991 -0.6667  0.3257  0.1411
    4MOL   C932 3818   6.587   0.158   3.104 -0.3856 -0.5917  0.0045
    4MOL   O933 3819   6.500   0.188   3.186  0.0433 -0.2771 -0.2345
    4MOL   H934 3820   6.084   0.816   2.329 -4.7496 -1.9054 -3.2914
    4MOL   H935 3821   6.180   0.709   2.223  1.9807 -1.6151  0.9079
    4MOL   H936 3822   5.938   0.628   2.244 -1.2138 -1.7410  1.4534
    4MOL   H937 3823   5.953   0.618   2.409 -1.0745 -2.7738 -0.5222
    4MOL   H938 3824   6.161   0.474   2.241  0.8462  2.2196  1.0107
    4MOL   H939 3825   6.110   0.439   2.407 -0.7160  1.7843  0.4126
    4MOL   H940 3826   5.927   0.408   2.157  0.0235 -0.0940  0.6659
    4MOL   H941 3827   5.900   0.329   2.305  0.7151  1.5344  1.5830
    4MOL   H942 3828   6.140   0.286   2.119 -0.9676 -2.6549 -3.4321
    4MOL   H943 3829   6.002   0.196   2.099  0.9588 -0.4038 -0.5039
    4MOL   H944 3830   6.035   0.111   2.327 -0.5554  0.5035 -0.1376
    4MOL   H945 3831   6.193   0.191   2.341  0.5319  1.5910 -0.9108
    4MOL   H946 3832   6.274   0.046   2.139  1.1925 -1.2562  1.0487
    4MOL   H947 3833   6.112   7.734   2.139 -0.2591  0.0820 -1.1709
    4MOL   H948 3834   6.298   7.755   2.380  1.8318 -1.2233  0.0348
    4MOL   H949 3835   6.322   7.621   2.273  0.5532  0.9632 -0.0345
    4MOL   H950 3836   6.052   7.681   2.419 -0.6473  1.1549 -1.7498
    4MOL   H951 3837   6.079   7.544   2.310  1.3134 -0.3149  0.7278
    4MOL   H952 3838   6.251   7.454   2.467  0.1450 -0.2520  0.9233
    4MOL   H953 3839   6.100   7.482   2.545 -0.8270  1.6519 -0.3263
    4MOL   H954 3840   6.444   7.722   2.737  0.5034 -1.2446 -1.0552
    4MOL   H955 3841   6.284   7.728   2.806  1.8025  1.5886 -1.8057
    4MOL   H956 3842   6.495   7.535   2.921  0.1229 -1.0402  0.7642
    4MOL   H957 3843   6.332   7.565   2.982  2.3249 -1.4589  1.3998
    4MOL   H958 3844   6.474   7.677   3.116  2.6265 -0.5754 -0.1339
    4MOL   H959 3845   6.366   0.032   3.041 -0.7069 -0.8220  0.3417
    4MOL   H960 3846   6.560   0.106   2.894  2.4405 -1.3736 -1.1051
    4MOL   H961 3847   6.661   7.762   2.996  0.4583  2.0694  0.7858
    4MOL   H962 3848   6.670   0.229   3.094  0.1642 -1.0552  1.2731
    5MOL     O1 3849   6.524   7.269   5.983 -0.6683 -0.1500 -0.5294
    5MOL     C2 3850   6.651   7.202   5.989 -0.2871  0.3019  0.1447
    5MOL     C3 3851   6.623   7.063   6.025 -0.1271  0.9940 -0.6998
    5MOL     C4 3852   6.736   6.964   5.999  0.4218 -0.1209  0.0265
    5MOL     C5 3853   6.710   6.816   5.990  0.4120 -0.3192 -0.6437
    5MOL     C6 3854   6.712   6.746   6.124  0.1377 -0.5685  0.3930
    5MOL     C7 3855   6.705   6.592   6.114  0.3963  0.5979 -0.6739
    5MOL     C8 3856   6.573   6.529   6.051 -0.6599 -0.8992  0.4573
    5MOL     C9 3857   6.457   6.555   6.151  0.1140  0.2067  0.1217
    5MOL    C10 3858   6.333   6.464   6.144  0.0971 -0.4382  0.2419
    5MOL    C11 3859   6.366   6.318   6.177  0.6597  0.0743  0.5008
    5MOL    O12 3860   6.254   6.236   6.183  0.3205  0.2656 -0.2242
    5MOL    C13 3861   6.269   6.103   6.208  0.4907  0.6579 -0.1326
    5MOL    O14 3862   6.375   6.048   6.219  0.3811 -0.3535 -0.7033
    5MOL    C15 3863   6.139   6.025   6.210 -0.5126 -0.6550  0.4313
    5MOL    C16 3864   6.122   5.904   6.300 -0.1833  0.3509  0.6647
    5MOL    C17 3865   6.161   5.937   6.447 -0.1558 -0.1387 -0.3173
    5MOL    C18 3866   6.132   5.829   6.557 -0.4474  0.2612  0.0092
    5MOL    C19 3867   5.981   5.790   6.586 -0.4718  0.4317  0.2377
    5MOL    O20 3868   5.923   5.714   6.509 -0.1937  0.3242 -0.3513
    5MOL    H21 3869   6.702   7.215   5.893 -1.0013 -1.1487 -0.4418
    5MOL    H22 3870   6.727   7.252   6.049 -1.8847  1.3362  1.3780
    5MOL    H23 3871   6.534   7.028   5.974 -0.4799 -0.4170  0.8444
    5MOL    H24 3872   6.594   7.056   6.130 -1.6556  1.6660 -1.0654
    5MOL    H25 3873   6.772   6.985   5.898  0.7799 -0.5092  0.0734
    5MOL    H26 3874   6.811   7.000   6.070 -1.8953 -2.4535  3.8235
    5MOL    H27 3875   6.787   6.784   5.920  1.5614  0.6417  0.1784
    5MOL    H28 3876   6.608   6.798   5.954  0.7168 -2.3792 -0.5173
    5MOL    H29 3877   6.619   6.768   6.176  1.0788  1.2339  1.3618
    5MOL    H30 3878   6.788   6.778   6.196 -1.4019  0.1740  1.7094
    5MOL    H31 3879   6.713   6.559   6.218  0.3280 -1.2753 -1.2322
    5MOL    H32 3880   6.786   6.554   6.053  0.3318 -0.9210  0.1595
    5MOL    H33 3881   6.592   6.422   6.055 -0.2034 -0.8385 -0.0721
    5MOL    H34 3882   6.554   6.566   5.950  0.9082 -0.0937  0.4500
    5MOL    H35 3883   6.419   6.653   6.122 -1.8303 -0.4042  0.5834
    5MOL    H36 3884   6.490   6.554   6.254  1.5057 -0.8563 -0.3214
    5MOL    H37 3885   6.262   6.508   6.214  0.4491 -1.1865  1.0750
    5MOL    H38 3886   6.305   6.484   6.040 -0.4316  1.5263  0.7423
    5MOL    H39 3887   6.422   6.325   6.270  1.1390  0.0751  0.2143
    5MOL    H40 3888   6.434   6.278   6.102  1.6874  1.2733  0.7837
    5MOL    H41 3889   6.068   6.105   6.230 -0.1901 -0.2224 -0.1314
    5MOL    H42 3890   6.122   5.986   6.109  2.6451  1.0164 -0.8204
    5MOL    H43 3891   6.181   5.825   6.252 -1.3657 -0.3300  0.3025
    5MOL    H44 3892   6.018   5.873   6.294 -0.3460  0.6176  2.0716
    5MOL    H45 3893   6.116   6.031   6.480  2.4255  0.2612  2.2828
    5MOL    H46 3894   6.270   5.946   6.445 -0.2171  0.5054 -0.8463
    5MOL    H47 3895   6.175   5.867   6.650  0.8866 -1.7905  0.2717
    5MOL    H48 3896   6.189   5.738   6.539  3.1958  2.0178  2.0565
    5MOL    H49 3897   6.534   7.352   5.939 -0.0218 -0.8919 -1.8080
    5MOL    O50 3898   5.940   5.832   6.701 -0.0039  0.1012 -0.3727
    5MOL    C51 3899   5.807   5.818   6.746 -0.5672  0.3390 -0.0487
    5MOL    C52 3900   5.803   5.836   6.899 -0.6460  0.2673 -0.2898
    5MOL    C53 3901   5.850   5.974   6.934  0.1078 -0.4220 -0.3787
    5MOL    C54 3902   5.848   5.999   7.089  0.0247 -0.5439 -0.4170
    5MOL    C55 3903   5.864   6.148   7.120 -0.2837  0.2513  0.1170
    5MOL    C56 3904   5.876   6.191   7.276 -0.9137 -0.5742  1.3411
    5MOL    C57 3905   6.012   6.161   7.350 -1.2460  0.0344  0.2413
    5MOL    C58 3906   5.993   6.167   7.501 -0.6045 -0.0363 -0.0244
    5MOL    C59 3907   6.120   6.128   7.585  0.7943 -0.4245  0.1892
    5MOL    C60 3908   6.232   6.236   7.572  0.4587  0.3159  0.0292
    5MOL    O61 3909   6.205   6.366   7.637 -0.2344  0.9091 -0.0713
    5MOL    C62 3910   6.301   6.454   7.662 -0.3689  0.5000  0.6707
    5MOL    O63 3911   6.420   6.446   7.631  0.0145  0.4196  0.5341
    5MOL    C64 3912   6.247   6.579   7.732 -0.1056 -0.8118  0.5356
    5MOL    C65 3913   6.256   6.558   0.122  0.8343  0.7500  0.2976
    5MOL    C66 3914   6.172   6.649   0.209 -0.1548 -0.0136  0.2116
    5MOL    C67 3915   6.191   6.621   0.361 -0.0921  0.1426  0.6737
    5MOL    C68 3916   6.327   6.663   0.413  0.2001 -0.1615  0.4688
    5MOL    O69 3917   6.422   6.587   0.407 -0.3738 -0.3000  0.0432
    5MOL    H70 3918   5.750   5.888   6.685 -2.2576 -1.3599 -0.4618
    5MOL    H71 3919   5.771   5.717   6.724 -1.6073  0.7733 -0.3565
    5MOL    H72 3920   5.871   5.762   6.941  1.6833  1.3296 -2.1263
    5MOL    H73 3921   5.702   5.809   6.931  0.5034 -2.3557  1.2865
    5MOL    H74 3922   5.944   5.996   6.884 -0.1678  1.1099 -0.2492
    5MOL    H75 3923   5.770   6.041   6.903 -0.6489  0.1446  2.6531
    5MOL    H76 3924   5.934   5.949   7.132  0.5691  0.8694  0.1634
    5MOL    H77 3925   5.766   5.952   7.144 -0.3869 -0.6444 -1.1014
    5MOL    H78 3926   5.774   6.198   7.085  0.1333  0.9083 -0.0370
    5MOL    H79 3927   5.949   6.183   7.061 -0.4459 -1.6554 -1.2755
    5MOL    H80 3928   5.789   6.158   7.333 -1.9922 -0.5807 -0.2800
    5MOL    H81 3929   5.861   6.299   7.271 -2.4151 -0.8553 -0.9692
    5MOL    H82 3930   6.090   6.222   7.304 -1.2687  0.4020  0.6876
    5MOL    H83 3931   6.048   6.059   7.336 -0.5020  0.2651  0.4425
    5MOL    H84 3932   5.917   6.094   7.531 -1.3384  1.2330  1.2578
    5MOL    H85 3933   5.941   6.262   7.515 -0.2598  0.4498 -1.9420
    5MOL    H86 3934   6.089   6.112   7.688 -2.0743 -0.4998 -0.6536
    5MOL    H87 3935   6.174   6.040   7.550  0.2944 -1.1515  1.2386
    5MOL    H88 3936   6.250   6.243   7.465 -3.9368 -2.6835 -1.0578
    5MOL    H89 3937   6.315   6.185   7.621 -0.1288 -1.2482 -0.5663
    5MOL    H90 3938   6.287   6.672   7.692  0.5651 -0.9555  0.8804
    5MOL    H91 3939   6.146   6.588   7.692  0.0564  2.7361  0.8017
    5MOL    H92 3940   6.363   6.563   0.145  1.2077  0.2211 -1.2453
    5MOL    H93 3941   6.226   6.454   0.129 -1.3710  0.9992 -3.7275
    5MOL    H94 3942   6.064   6.649   0.197 -0.3151 -0.0103  1.6138
    5MOL    H95 3943   6.190   6.755   0.187 -0.5939  0.3955  1.7599
    5MOL    H96 3944   6.180   6.514   0.380  0.0118  0.0610  0.2743
    5MOL    H97 3945   6.112   6.683   0.403 -1.2263 -0.2126 -0.8757
    5MOL    O98 3946   6.329   6.797   0.449 -0.0562  0.4626 -0.9310
    5MOL    C99 3947   6.459   6.849   0.472  0.1658 -0.5066 -0.5403
    5MOL   C100 3948   6.450   7.008   0.486 -0.2732 -0.0495 -0.2580
    5MOL   C101 3949   6.393   7.058   0.620 -0.6858  0.5396  0.1069
    5MOL   C102 3950   6.495   7.042   0.732  0.8694 -0.1644 -0.0184
    5MOL   C103 3951   6.466   7.126   0.861 -0.0439 -0.1569 -0.6087
    5MOL   C104 3952   6.472   7.277   0.841  0.3002 -0.1428 -0.3500
    5MOL   C105 3953   6.460   7.350   0.975  0.4793  0.1397 -1.0066
    5MOL   C106 3954   6.382   7.481   0.970  0.3060 -1.0121 -0.0411
    5MOL   C107 3955   6.370   7.547   1.112  0.0217  0.2459 -0.7008
    5MOL   C108 3956   6.251   7.646   1.122 -0.2142  0.3099  0.0762
    5MOL   O109 3957   6.220   7.680   1.260  0.6898  0.4405  0.1976
    5MOL   C110 3958   6.294   0.014   1.325 -0.4431 -0.2364  0.0694
    5MOL   O111 3959   6.383   0.082   1.280  0.8766 -0.0505  0.5856
    5MOL   C112 3960   6.229   0.053   1.464  0.1746  0.4446  0.8321
    5MOL   C113 3961   6.277   0.184   1.534 -0.3819 -0.4067  0.0216
    5MOL   C114 3962   6.429   0.177   1.577 -0.1734 -0.3476 -0.0024
    5MOL   C115 3963   6.480   0.039   1.630 -0.1202  0.2072 -0.4313
    5MOL   C116 3964   6.429   0.007   1.774  1.0232  0.2567 -0.0968
    5MOL   O117 3965   6.484   0.044   1.879  0.2298 -0.6444 -0.6962
    5MOL   H118 3966   6.505   6.810   0.563 -0.2008 -1.9294 -0.9533
    5MOL   H119 3967   6.525   6.828   0.387  0.5949 -0.6039 -0.1868
    5MOL   H120 3968   6.382   7.041   0.408 -0.9828 -0.2261  0.2855
    5MOL   H121 3969   6.544   7.061   0.471  2.1799 -3.8445  0.8287
    5MOL   H122 3970   6.342   7.155   0.615  0.6746  1.2958  0.6875
    5MOL   H123 3971   6.321   6.982   0.649  0.6777 -0.5130  0.7710
    5MOL   H124 3972   6.594   7.073   0.699  1.2866  0.3931  1.7360
    5MOL   H125 3973   6.510   6.938   0.760 -0.6145  0.0013  1.5006
    5MOL   H126 3974   6.533   7.100   0.943  0.9616  0.9760 -1.0633
    5MOL   H127 3975   6.369   7.085   0.891 -0.2695  0.0571 -1.0375
    5MOL   H128 3976   6.402   7.308   0.764 -0.2388 -0.4813 -0.0001
    5MOL   H129 3977   6.573   7.306   0.811  1.0982  0.4227  2.7551
    5MOL   H130 3978   6.558   7.371   1.017 -0.5082 -0.8940  2.0152
    5MOL   H131 3979   6.423   7.270   1.040  0.6051  0.4371 -0.5664
    5MOL   H132 3980   6.284   7.455   0.930 -0.3330 -0.3206  1.0384
    5MOL   H133 3981   6.433   7.545   0.898 -2.2639  0.9782 -0.1584
    5MOL   H134 3982   6.364   7.469   1.188 -0.6206  0.3310 -0.6601
    5MOL   H135 3983   6.469   7.590   1.124  1.0099 -2.4270  1.0888
    5MOL   H136 3984   6.165   7.595   1.077 -0.1502 -0.3209  0.6664
    5MOL   H137 3985   6.279   7.733   1.063 -2.1522  0.8083 -0.1566
    5MOL   H138 3986   6.124   0.051   1.435  0.5117 -0.4312 -0.4044
    5MOL   H139 3987   6.242   7.733   1.531  3.2103  0.6690  0.6322
    5MOL   H140 3988   6.221   0.200   1.626  1.2227 -0.8703  1.1187
    5MOL   H141 3989   6.272   0.269   1.466  0.3042  0.1810  0.6951
    5MOL   H142 3990   6.440   0.250   1.657 -0.0442  0.7462 -1.0116
    5MOL   H143 3991   6.492   0.203   1.492 -0.9321  0.4848 -0.3183
    5MOL   H144 3992   6.589   0.043   1.638 -0.0591 -1.3944 -0.2818
    5MOL   H145 3993   6.457   7.720   1.564  0.7320  0.2070 -0.7393
    5MOL   O146 3994   6.312   7.710   1.771  0.0904  0.2083 -0.0234
    5MOL   C147 3995   6.231   7.709   1.880  0.1126  0.2134  0.3687
    5MOL   C148 3996   6.102   7.622   1.875 -0.3107 -0.2859  0.0469
    5MOL   C149 3997   6.019   7.643   1.750  0.3557 -0.0795  0.8644
    5MOL   C150 3998   6.053   7.539   1.645  0.6553 -0.5830 -0.6815
    5MOL   C151 3999   5.986   7.566   1.512 -0.1505  0.7262  0.4960
    5MOL   C152 4000   5.996   7.448   1.423  0.3818  0.8679 -0.8399
    5MOL   C153 4001   5.917   7.470   1.295 -0.3151 -0.4397  0.1712
    5MOL   C154 4002   5.902   7.353   1.196  0.3644  0.5300  0.3983
    5MOL   C155 4003   6.031   7.283   1.139 -0.0780  0.7235 -0.1856
    5MOL   C156 4004   5.998   7.156   1.066  1.1253 -0.4723  0.6243
    5MOL   O157 4005   5.934   7.191   0.946 -0.3398  0.3171 -0.4828
    5MOL   C158 4006   5.999   7.178   0.831 -0.3559 -0.4387  0.5318
    5MOL   O159 4007   6.101   7.112   0.814 -0.4372  0.1261  0.2478
    5MOL   C160 4008   5.919   7.246   0.713 -0.1284  0.3234 -0.2780
    5MOL   C161 4009   5.951   7.393   0.702  0.8863  0.0481 -0.8438
    5MOL   C162 4010   6.092   7.428   0.650 -0.5157  0.2617 -0.9913
    5MOL   C163 4011   6.118   7.571   0.613  0.1079  0.0958  0.1406
    5MOL   C164 4012   6.076   7.671   0.717 -0.0459  0.2221 -0.1906
    5MOL   O165 4013   6.150   7.698   0.816 -0.4519 -0.0574  0.3678
    5MOL   H166 4014   6.285   7.672   1.967 -0.7553 -1.2186  0.3204
    5MOL   H167 4015   6.194   0.045   1.899 -2.9686 -0.9808  1.0216
    5MOL   H168 4016   6.048   7.652   1.965  1.2474  1.6883  0.3546
    5MOL   H169 4017   6.118   7.517   1.898  0.0534 -0.7526 -2.2130
    5MOL   H170 4018   5.916   7.633   1.786 -0.4625  1.1975 -1.0408
    5MOL   H171 4019   6.019   7.748   1.720 -2.4321 -0.4367 -0.5844
    5MOL   H172 4020   6.043   7.438   1.684 -0.0040 -1.7655 -3.7207
    5MOL   H173 4021   6.160   7.549   1.625  0.9584 -0.4370  0.9697
    5MOL   H174 4022   6.031   7.647   1.455  2.0460  0.3415  1.6343
    5MOL   H175 4023   5.880   7.588   1.527 -0.8239 -0.0127 -2.7242
    5MOL   H176 4024   5.968   7.358   1.477  1.1928 -0.1486 -2.0822
    5MOL   H177 4025   6.099   7.431   1.392  0.8388 -1.6786  1.9302
    5MOL   H178 4026   5.966   7.552   1.242 -0.8396  0.3967  0.9692
    5MOL   H179 4027   5.815   7.499   1.321 -0.2878 -0.6346  0.4963
    5MOL   H180 4028   5.854   7.393   1.107 -0.7906  0.8220  1.1410
    5MOL   H181 4029   5.850   7.269   1.242 -1.4627 -0.0312 -2.5477
    5MOL   H182 4030   6.095   7.351   1.083  0.6543  0.0714 -0.1385
    5MOL   H183 4031   6.089   7.260   1.228 -1.6001  1.0015  0.8926
    5MOL   H184 4032   5.928   7.087   1.114 -0.1133  0.4515  0.1854
    5MOL   H185 4033   6.086   7.093   1.055  0.4916 -1.2631 -0.0281
    5MOL   H186 4034   5.925   7.193   0.618  0.2587  0.4158 -0.3070
    5MOL   H187 4035   5.813   7.247   0.740  0.5593 -2.5712  2.8891
    5MOL   H188 4036   5.941   7.432   0.803 -0.9563 -1.9307 -0.2288
    5MOL   H189 4037   5.877   7.440   0.637 -0.0728 -1.9105 -1.2065
    5MOL   H190 4038   6.135   7.369   0.569 -2.0273 -1.4281 -0.6104
    5MOL   H191 4039   6.161   7.391   0.726  0.0572  0.4186 -1.4308
    5MOL   H192 4040   6.066   7.603   0.522  2.2083  1.1936 -0.7247
    5MOL   H193 4041   6.225   7.576   0.595  0.0491 -2.7804 -1.2210
    5MOL   O194 4042   5.956   7.725   0.682  0.1995 -0.3036  0.2219
    5MOL   C195 4043   5.889   0.046   0.775 -0.2017  0.4885 -0.8807
    5MOL   C196 4044   5.735   0.035   0.751 -0.4052  0.2326  0.6095
    5MOL   C197 4045   5.673   7.670   0.798 -0.0378  0.4195  0.2635
    5MOL   C198 4046   5.698   7.643   0.946 -0.2467  0.1022  0.1711
    5MOL   C199 4047   5.606   7.525   0.991 -0.2321 -0.0320 -0.0776
    5MOL   C200 4048   5.536   7.532   1.127  0.3976  0.0469 -0.3727
    5MOL   C201 4049   5.432   7.418   1.148 -0.5551  0.0419  0.0821
    5MOL   C202 4050   5.309   7.473   1.223  0.8313  0.7585 -0.3810
    5MOL   C203 4051   5.196   7.376   1.239  0.3768 -0.2305 -0.0660
    5MOL   C204 4052   5.065   7.435   1.309  0.0265 -0.5160  0.1306
    5MOL   O205 4053   5.084   7.463   1.460  0.5074 -0.1671  0.9294
    5MOL   C206 4054   5.041   7.364   1.538 -0.2312  0.0036  0.0027
    5MOL   O207 4055   4.987   7.258   1.500  0.4638  0.2337 -0.0848
    5MOL   C208 4056   5.054   7.402   1.687 -0.8081 -0.2894 -0.3678
    5MOL   C209 4057   4.923   7.440   1.748  0.3460  0.2739  0.2695
    5MOL   C210 4058   4.857   7.575   1.720  0.0447 -0.3222 -0.1777
    5MOL   C211 4059   4.752   7.616   1.821 -0.0238 -0.0461 -0.3208
    5MOL   C212 4060   4.633   7.513   1.834  0.4157 -0.1854  0.6181
    5MOL   O213 4061   4.530   7.522   1.764  0.2324  0.0252  0.1144
    5MOL   H214 4062   5.907   0.005   0.875  0.2372  0.9329 -0.7772
    5MOL   H215 4063   5.927   0.147   0.790 -0.0659  0.3436 -0.2234
    5MOL   H216 4064   5.720   0.055   0.645  0.1863 -1.7635  0.1289
    5MOL   H217 4065   5.692   0.116   0.810  0.6934  0.4694  1.0922
    5MOL   H218 4066   5.565   7.670   0.785  0.1144  2.0502 -1.2837
    5MOL   H219 4067   5.712   7.592   0.732  1.8130  0.5366  1.1863
    5MOL   H220 4068   5.670   7.728   1.008 -1.3925  0.5681 -0.9595
    5MOL   H221 4069   5.805   7.629   0.958  0.0088  0.3396 -1.6273
    5MOL   H222 4070   5.658   7.430   0.976  2.2393  1.0628  1.3687
    5MOL   H223 4071   5.524   7.511   0.921  0.1326  1.4181 -0.8074
    5MOL   H224 4072   5.478   7.625   1.122 -0.2727 -0.3602 -0.2155
    5MOL   H225 4073   5.608   7.544   1.208  0.0949  2.8532 -0.4573
    5MOL   H226 4074   5.482   7.336   1.201  0.1446 -1.2318 -2.4433
    5MOL   H227 4075   5.408   7.372   1.052  0.5396 -0.3458 -0.0199
    5MOL   H228 4076   5.267   7.553   1.163 -0.7075 -0.2181 -0.6422
    5MOL   H229 4077   5.351   7.509   1.317 -0.2058  1.1578 -0.0621
    5MOL   H230 4078   5.174   7.336   1.140 -0.2486 -0.9618  0.3645
    5MOL   H231 4079   5.233   7.294   1.300 -0.8251  0.4954  1.6938
    5MOL   H232 4080   4.973   7.377   1.302  0.1341 -0.8504  1.3148
    5MOL   H233 4081   5.049   7.536   1.271  0.9792 -0.6848 -0.7213
    5MOL   H234 4082   5.090   7.314   1.741 -1.2617 -0.8141 -0.9182
    5MOL   H235 4083   5.127   7.482   1.699 -2.6167  1.4187 -0.6834
    5MOL   H236 4084   4.953   7.457   1.852  0.5782 -1.2833  0.4641
    5MOL   H237 4085   4.857   7.353   1.746  2.5324 -1.3970 -1.0350
    5MOL   H238 4086   4.813   7.568   1.621  0.2249  1.6223 -0.4163
    5MOL   H239 4087   4.930   7.657   1.721 -0.3171  0.0121 -0.9918
    5MOL   H240 4088   4.707   7.711   1.791  0.5025  0.6247  0.9772
    5MOL   H241 4089   4.802   7.619   1.917 -2.0831  1.5836  0.7401
    5MOL   O242 4090   4.657   7.415   1.929 -0.7398 -0.0554 -0.0921
    5MOL   C243 4091   4.555   7.328   1.963  0.1873  0.9511 -0.5786
    5MOL   C244 4092   4.537   7.317   2.112 -0.3241 -0.4730 -0.9093
    5MOL   C245 4093   4.440   7.207   2.149  1.0896  0.2331 -0.2346
    5MOL   C246 4094   4.434   7.183   2.296 -0.0808 -0.2705  0.7105
    5MOL   C247 4095   4.377   7.291   2.388 -0.3636  0.0269 -0.7568
    5MOL   C248 4096   4.376   7.244   2.535  0.4240  0.3608 -0.0910
    5MOL   C249 4097   4.308   7.338   2.629 -0.0245 -0.3715  0.4596
    5MOL   C250 4098   4.288   7.286   2.768 -0.7132  0.8220  0.1467
    5MOL   C251 4099   4.212   7.389   2.849 -0.8754  0.1470  0.2450
    5MOL   C252 4100   4.311   7.503   2.901  0.2884  0.6877  0.2151
    5MOL   O253 4101   4.258   7.542   3.023  0.4768  1.0884 -0.2878
    5MOL   C254 4102   4.155   7.618   3.037  0.5198  0.8598 -0.2955
    5MOL   O255 4103   4.077   7.650   2.954 -0.0370 -0.3624  0.6341
    5MOL   C256 4104   4.173   7.696   3.168 -0.5560  0.3299  0.4391
    5MOL   C257 4105   4.056   0.030   3.206  0.0146  0.4297  0.0630
    5MOL   C258 4106   3.916   7.728   3.230  0.1495  0.0608 -0.1596
    5MOL   C259 4107   3.910   7.633   3.347 -0.7562 -0.5055 -0.5954
    5MOL   C260 4108   3.930   7.704   3.487  0.1488 -0.3376 -0.8687
    5MOL   O261 4109   3.833   7.720   3.562  0.0015 -0.0831 -0.2489
    5MOL   H262 4110   4.454   7.356   1.932 -1.0462 -1.7974  0.8094
    5MOL   H263 4111   4.582   7.230   1.924  0.0213  0.5045  0.4218
    5MOL   H264 4112   4.516   7.419   2.144  1.1626 -0.3353 -0.3126
    5MOL   H265 4113   4.634   7.295   2.158 -1.3870 -1.0057  1.1716
    5MOL   H266 4114   4.342   7.242   2.119  0.4979  0.0660  1.4287
    5MOL   H267 4115   4.456   7.111   2.100 -0.3983 -1.0123  1.6401
    5MOL   H268 4116   4.536   7.169   2.330  0.4612  0.0803 -0.7582
    5MOL   H269 4117   4.379   7.089   2.309 -0.1538 -0.3595 -0.2294
    5MOL   H270 4118   4.274   7.317   2.363 -0.0761  0.4657 -1.4978
    5MOL   H271 4119   4.432   7.384   2.374  1.9230 -1.4062 -1.3740
    5MOL   H272 4120   4.478   7.218   2.564 -0.0176 -0.1826  1.0402
    5MOL   H273 4121   4.327   7.147   2.545  1.3878  0.2187  3.9814
    5MOL   H274 4122   4.210   7.354   2.584  1.1010 -0.3708 -2.1098
    5MOL   H275 4123   4.358   7.434   2.617 -2.0390  0.8488  1.5245
    5MOL   H276 4124   4.382   7.254   2.813 -1.6406  0.0151  1.5624
    5MOL   H277 4125   4.227   7.196   2.758  1.5384 -0.5744 -1.5250
    5MOL   H278 4126   4.131   7.434   2.792 -1.3891 -1.0937 -0.0176
    5MOL   H279 4127   4.159   7.333   2.926  0.7063 -0.9700  0.5353
    5MOL   H280 4128   4.317   7.579   2.823 -0.9026  0.6790  0.0955
    5MOL   H281 4129   4.409   7.460   2.922  1.1043  2.5314  0.2513
    5MOL   H282 4130   4.177   7.625   3.251 -1.8009 -0.5470 -0.2227
    5MOL   H283 4131   4.266   7.751   3.164 -0.2725 -0.1802  0.0275
    5MOL   H284 4132   4.041   0.097   3.122  0.0669 -1.8707 -1.8279
    5MOL   H285 4133   4.095   0.094   3.285  1.2374 -0.2523  0.0170
    5MOL   H286 4134   3.892   7.673   3.138  0.5710  0.6430 -0.6234
    5MOL   H287 4135   3.838   0.038   3.243  0.0705 -0.0899  0.2246
    5MOL   H288 4136   3.990   7.559   3.343 -0.6888 -0.4032 -1.1928
    5MOL   H289 4137   3.818   7.574   3.344 -1.0495  0.0095 -3.5278
    5MOL   O290 4138   4.059   7.730   3.523  0.2362  0.6020 -0.0722
    5MOL   C291 4139   4.089   0.015   3.653  0.8710 -0.0319 -0.0995
    5MOL   C292 4140   4.238   0.047   3.658  0.4921 -0.1735 -0.0597
    5MOL   C293 4141   4.288   0.124   3.534  0.1424 -0.0804  0.1386
    5MOL   C294 4142   4.233   0.270   3.525  0.1533 -1.0029  0.3608
    5MOL   C295 4143   4.277   0.323   3.391 -0.6259 -0.3691 -0.2434
    5MOL   C296 4144   4.213   0.460   3.360 -0.2085  0.1913  0.1533
    5MOL   C297 4145   4.252   0.498   3.213  0.4763 -0.6201 -0.2541
    5MOL   C298 4146   4.155   0.454   3.108 -0.3119  0.2592  0.3975
    5MOL   C299 4147   4.209   0.480   2.962  0.1982  0.5668 -0.5063
    5MOL   C300 4148   4.116   0.435   2.854  0.5405  1.2768 -0.4731
    5MOL   O301 4149   4.160   0.313   2.805 -0.0275 -0.1601 -0.3082
    5MOL   C302 4150   4.097   0.256   2.708 -0.1948 -0.7423  0.0414
    5MOL   O303 4151   3.991   0.293   2.654 -0.6243  0.2173  0.1556
    5MOL   C304 4152   4.180   0.139   2.661 -0.2122 -0.6602 -0.4873
    5MOL   C305 4153   4.116   0.067   2.546  0.3689  0.2368 -0.3453
    5MOL   C306 4154   4.172   7.692   2.504  0.3347  0.2955 -0.3550
    5MOL   C307 4155   4.098   7.612   2.401  0.3993 -0.1363 -0.1750
    5MOL   C308 4156   3.972   7.551   2.459 -0.1307 -0.6316  0.4633
    5MOL   O309 4157   3.919   7.591   2.563  0.6199 -0.3568 -0.0358
    5MOL   H310 4158   4.030   0.107   3.659  1.1514  0.0963  0.7566
    5MOL   H311 4159   4.059   7.709   3.730 -1.8153 -0.3392 -1.3524
    5MOL   H312 4160   4.294   7.718   3.647 -0.0894 -0.6108  0.6394
    5MOL   H313 4161   4.269   0.091   3.752  0.1295 -0.0738  0.0133
    5MOL   H314 4162   4.395   0.112   3.520  0.2789  1.5698 -0.3450
    5MOL   H315 4163   4.253   0.071   3.445  0.4039 -0.1161  0.0576
    5MOL   H316 4164   4.269   0.338   3.603  1.2704  0.9297 -1.7869
    5MOL   H317 4165   4.124   0.279   3.528  0.0416 -2.3406  0.5524
    5MOL   H318 4166   4.230   0.263   3.313 -0.4075  1.0655 -1.4989
    5MOL   H319 4167   4.385   0.324   3.378 -0.1070  0.6463  3.6853
    5MOL   H320 4168   4.267   0.534   3.420  2.4819 -0.3716 -1.4641
    5MOL   H321 4169   4.108   0.479   3.379 -0.3601  0.3666 -0.8027
    5MOL   H322 4170   4.358   0.490   3.190  0.1903  0.1608 -1.9021
    5MOL   H323 4171   4.234   0.605   3.220 -1.8118 -1.0226  0.5534
    5MOL   H324 4172   4.055   0.494   3.122 -0.6867 -0.2608 -0.7806
    5MOL   H325 4173   4.148   0.345   3.117 -0.4428  0.1310 -1.2247
    5MOL   H326 4174   4.226   0.587   2.952 -0.1806  0.4881 -2.2068
    5MOL   H327 4175   4.305   0.431   2.948  0.7641  1.4088  0.3454
    5MOL   H328 4176   4.122   0.506   2.772  0.8728 -0.5267 -2.0640
    5MOL   H329 4177   4.014   0.438   2.892  0.4395 -0.4144 -0.5380
    5MOL   H330 4178   4.278   0.179   2.634  1.1810 -2.0115  2.3484
    5MOL   H331 4179   4.199   0.065   2.739 -0.5966  0.5867  0.8136
    5MOL   H332 4180   4.103   0.129   2.457  1.4158 -1.2521 -1.5537
    5MOL   H333 4181   4.014   0.048   2.582  0.7801 -1.7602 -0.2089
    5MOL   H334 4182   4.185   7.629   2.593 -0.7744 -1.9285 -1.7249
    5MOL   H335 4183   4.269   7.722   2.464  1.6288 -1.9852  0.9486
    5MOL   H336 4184   4.168   7.532   2.378 -0.1784 -1.1084  1.3862
    5MOL   H337 4185   4.067   7.677   2.318 -1.8535  0.9576  1.4466
    5MOL   O338 4186   3.931   7.447   2.383 -0.0447  0.2779 -0.1266
    5MOL   C339 4187   3.818   7.368   2.420  0.1751  0.4663 -0.5013
    5MOL   C340 4188   3.879   7.257   2.493  0.2569 -0.2380 -0.4755
    5MOL   C341 4189   3.973   7.164   2.408 -0.3363  0.3352  0.2737
    5MOL   C342 4190   4.040   7.042   2.464  0.3846 -0.5105  0.3544
    5MOL   C343 4191   3.952   6.928   2.501  0.0565  0.0603 -0.6381
    5MOL   C344 4192   4.040   6.812   2.540 -0.8494 -0.1213 -0.6081
    5MOL   C345 4193   3.974   6.720   2.641  0.6536  0.5371  0.0581
    5MOL   C346 4194   4.071   6.614   2.692  0.8268  0.1371  0.4000
    5MOL   C347 4195   3.999   6.500   2.765 -0.2478 -0.0796  0.0471
    5MOL   C348 4196   4.087   6.383   2.800  0.5426 -0.6452  0.1740
    5MOL   O349 4197   4.213   6.414   2.845  0.3767  0.0729 -0.1252
    5MOL   C350 4198   4.237   6.482   2.956 -0.5595 -0.0865  0.1307
    5MOL   O351 4199   4.151   6.519   3.037 -0.1178 -0.3176  0.1291
    5MOL   C352 4200   4.386   6.535   2.958 -0.4931  0.1971  0.9456
    5MOL   C353 4201   4.495   6.428   2.976  0.2684  0.4629  0.2153
    5MOL   C354 4202   4.518   6.342   2.850  0.2925  0.2425  0.2390
    5MOL   C355 4203   4.654   6.261   2.851  0.3536 -0.8856 -0.3392
    5MOL   C356 4204   4.776   6.344   2.793  0.2938  0.5459  0.3179
    5MOL   O357 4205   4.761   6.457   2.746  0.1473 -0.1335 -0.6847
    5MOL   H358 4206   3.743   7.426   2.474  0.2733  0.5326 -0.4364
    5MOL   H359 4207   3.780   7.336   2.323 -0.7505  0.9562 -0.2987
    5MOL   H360 4208   3.815   7.178   2.533  0.0178 -0.2637 -0.8918
    5MOL   H361 4209   3.935   7.302   2.574  0.8879  3.8334 -3.0019
    5MOL   H362 4210   3.916   7.123   2.325  1.6161 -0.9214 -0.4952
    5MOL   H363 4211   4.055   7.215   2.357  0.0374  1.0220  1.5395
    5MOL   H364 4212   4.094   7.067   2.555  0.6349  0.2372  0.0048
    5MOL   H365 4213   4.107   7.015   2.383 -1.8553 -2.0314 -1.0377
    5MOL   H366 4214   3.872   6.895   2.435  1.0306 -0.1694 -1.7099
    5MOL   H367 4215   3.891   6.951   2.589 -0.2281 -0.9195 -0.5693
    5MOL   H368 4216   4.128   6.852   2.590 -1.0891 -2.2231  1.6107
    5MOL   H369 4217   4.065   6.763   2.446 -0.5768 -0.6075 -0.2838
    5MOL   H370 4218   3.899   6.669   2.581  0.0252  1.8430 -0.2903
    5MOL   H371 4219   3.927   6.780   2.719 -1.5364  0.7751 -1.4106
    5MOL   H372 4220   4.145   6.663   2.755  1.4831  0.8705 -0.9093
    5MOL   H373 4221   4.126   6.558   2.617 -2.0249  1.3553 -2.7163
    5MOL   H374 4222   3.958   6.537   2.859  0.7025  1.8921 -0.2873
    5MOL   H375 4223   3.911   6.465   2.711 -1.6370  0.0827  2.1342
    5MOL   H376 4224   4.093   6.328   2.706  1.1686 -0.8400  0.3235
    5MOL   H377 4225   4.037   6.314   2.868 -1.7018  0.2813 -0.4880
    5MOL   H378 4226   4.407   6.597   2.871  1.5730 -1.8755 -0.0678
    5MOL   H379 4227   4.395   6.596   3.048  1.1972 -1.7364  2.1499
    5MOL   H380 4228   4.476   6.372   3.067  1.2530 -2.0142 -1.0620
    5MOL   H381 4229   4.584   6.485   3.004  3.2951 -2.1045 -3.5311
    5MOL   H382 4230   4.513   6.406   2.761 -1.1799  0.0434  0.1729
    5MOL   H383 4231   4.443   6.263   2.847  0.0417  0.4734  0.3825
    5MOL   H384 4232   4.642   6.171   2.790 -1.4631 -0.8690 -0.0360
    5MOL   H385 4233   4.678   6.228   2.952  2.5122  1.3272 -0.0698
    5MOL   O386 4234   4.902   6.284   2.797  0.2444  0.6557  0.5096
    5MOL   C387 4235   5.017   6.358   2.759  0.5369  0.3481  0.2171
    5MOL   C388 4236   5.033   6.356   2.614 -0.2383  0.5546 -0.0808
    5MOL   C389 4237   5.164   6.399   2.556 -0.4527  0.3770  0.5211
    5MOL   C390 4238   5.196   6.371   2.412  0.4859  0.2569 -0.0623
    5MOL   C391 4239   5.343   6.405   2.367  0.2583  0.2803 -0.3709
    5MOL   C392 4240   5.386   6.339   2.238  0.1003 -1.1719 -0.5748
    5MOL   C393 4241   5.544   6.334   2.229 -0.4068  0.1869 -0.1983
    5MOL   C394 4242   5.604   6.476   2.235  0.3269 -0.3614 -0.1543
    5MOL   C395 4243   5.755   6.509   2.210 -0.0009  0.4870  0.0312
    5MOL   C396 4244   5.808   6.640   2.270  0.1514 -0.6517 -0.1827
    5MOL   O397 4245   5.946   6.643   2.250  0.0179  0.0692 -0.3916
    5MOL   C398 4246   6.003   6.742   2.183  0.0857  0.0318  0.0020
    5MOL   O399 4247   5.943   6.837   2.125  0.2691  0.2901  0.2132
    5MOL   C400 4248   6.158   6.739   2.186  0.5459  0.2910 -0.1354
    5MOL   C401 4249   6.227   6.803   2.310  0.1000  0.2900 -1.0341
    5MOL   C402 4250   6.255   6.717   2.436  0.0313 -0.1477 -0.3192
    5MOL   C403 4251   6.362   6.780   2.533 -0.1756  0.4602  0.0505
    5MOL   C404 4252   6.318   6.908   2.599 -0.3395 -0.6298 -0.0921
    5MOL   O405 4253   6.264   6.894   2.710 -0.0248  0.0037 -0.1151
    5MOL   H406 4254   5.018   6.457   2.804  0.3740  1.1813 -1.5775
    5MOL   H407 4255   5.103   6.315   2.811 -0.5548 -1.9058  0.2398
    5MOL   H408 4256   4.950   6.422   2.587 -0.3299 -0.2085 -1.7355
    5MOL   H409 4257   5.011   6.256   2.577 -0.6313  1.0549 -1.2300
    5MOL   H410 4258   5.190   6.503   2.577 -3.6756  1.5224 -0.9187
    5MOL   H411 4259   5.241   6.347   2.613 -0.8817  1.2343  1.8932
    5MOL   H412 4260   5.122   6.426   2.353 -0.1072 -2.2034 -1.6735
    5MOL   H413 4261   5.169   6.267   2.398  0.4425  0.3278 -0.5113
    5MOL   H414 4262   5.404   6.381   2.454 -0.3689  2.1874  0.6285
    5MOL   H415 4263   5.346   6.514   2.360 -3.9713  0.3982 -2.3476
    5MOL   H416 4264   5.338   6.393   2.156 -1.9376 -2.0391  0.0058
    5MOL   H417 4265   5.347   6.238   2.230 -0.9306 -1.1001  2.8441
    5MOL   H418 4266   5.569   6.283   2.136  1.4016  0.3574  0.1713
    5MOL   H419 4267   5.578   6.266   2.308 -0.7284  1.7702  1.3482
    5MOL   H420 4268   5.574   6.519   2.331 -1.5765  0.0213 -0.8930
    5MOL   H421 4269   5.548   6.539   2.166  1.1101 -0.5344 -0.9401
    5MOL   H422 4270   5.810   6.432   2.263 -2.2905 -1.4975 -0.3937
    5MOL   H423 4271   5.775   6.497   2.104 -0.5901  0.3063 -0.0662
    5MOL   H424 4272   5.783   6.627   2.375  0.4413 -3.1236 -0.3849
    5MOL   H425 4273   5.762   6.736   2.249 -0.3116 -1.5706 -3.7306
    5MOL   H426 4274   6.209   6.644   2.171  1.0123  0.9134 -2.5859
    5MOL   H427 4275   6.188   6.792   2.096  1.3065  2.3162  1.2585
    5MOL   H428 4276   6.171   6.891   2.340 -3.1702 -0.8985 -3.3864
    5MOL   H429 4277   6.320   6.851   2.281 -0.6298  2.1840 -0.3283
    5MOL   H430 4278   6.299   6.622   2.406 -0.2531 -0.2470 -0.4306
    5MOL   H431 4279   6.163   6.700   2.493  0.8855  1.9993  1.7813
    5MOL   H432 4280   6.459   6.785   2.483 -0.3641  1.6251 -0.2122
    5MOL   H433 4281   6.387   6.708   2.611 -1.4708 -1.7949 -1.5247
    5MOL   O434 4282   6.348   7.012   2.521 -0.2271  0.1983  0.6606
    5MOL   C435 4283   6.289   7.134   2.551  0.2100  0.0397 -0.1354
    5MOL   C436 4284   6.211   7.187   2.434  0.0829 -0.2181  0.0446
    5MOL   C437 4285   6.303   7.239   2.326  0.4134  0.8034 -0.0664
    5MOL   C438 4286   6.231   7.283   2.202 -0.1533 -0.3910 -0.6891
    5MOL   C439 4287   6.202   7.163   2.112 -0.4947 -0.7391 -0.2738
    5MOL   C440 4288   6.148   7.205   1.979 -0.2183  0.0794  0.8289
    5MOL   C441 4289   6.178   7.099   1.876 -0.2453 -0.0352  0.2279
    5MOL   C442 4290   6.116   7.123   1.733  0.2023 -0.3925  0.8315
    5MOL   C443 4291   6.138   7.000   1.635  0.4091  0.1819  0.0617
    5MOL   C444 4292   6.091   7.032   1.492  0.1109  0.0225  0.2620
    5MOL   O445 4293   6.122   6.918   1.410  0.6523 -0.9565  0.5072
    5MOL   C446 4294   6.036   6.870   1.322  0.2111 -0.0555  1.2233
    5MOL   O447 4295   5.928   6.921   1.284  0.3316  0.0486 -0.1971
    5MOL   C448 4296   6.075   6.736   1.263  0.7811  0.4832  0.5239
    5MOL   C449 4297   6.092   6.632   1.375 -0.1095 -0.1036 -0.5744
    5MOL   C450 4298   5.956   6.585   1.433 -0.0716 -0.4082 -0.2179
    5MOL   C451 4299   5.862   6.536   1.332 -0.0399  0.1687 -0.3241
    5MOL   C452 4300   5.744   6.463   1.386  0.0250 -0.2946 -0.0976
    5MOL   O453 4301   5.692   6.507   1.487  0.4938 -0.2156 -0.0277
    5MOL   H454 4302   6.234   7.144   2.644 -0.1818 -0.7347 -0.2786
    5MOL   H455 4303   6.380   7.192   2.560 -0.2506  0.6876  0.4117
    5MOL   H456 4304   6.146   7.269   2.463 -3.0143 -2.3303 -0.6117
    5MOL   H457 4305   6.136   7.111   2.408  1.4970 -2.0773  1.2326
    5MOL   H458 4306   6.359   7.323   2.366  1.5184 -0.3708  0.9082
    5MOL   H459 4307   6.388   7.172   2.310 -1.2883 -1.5394  0.5131
    5MOL   H460 4308   6.288   7.356   2.144  1.5695 -0.0591  1.3717
    5MOL   H461 4309   6.139   7.338   2.220 -0.2598 -1.0926  0.9702
    5MOL   H462 4310   6.149   7.078   2.155 -0.3597 -1.4138 -1.4167
    5MOL   H463 4311   6.297   7.114   2.090  0.9018  1.2137  1.2328
    5MOL   H464 4312   6.189   7.300   1.945 -1.3475 -0.3808 -1.9335
    5MOL   H465 4313   6.042   7.217   2.002 -0.7300  0.4316 -1.5926
    5MOL   H466 4314   6.131   7.005   1.904  1.6133 -1.0622 -0.0318
    5MOL   H467 4315   6.285   7.081   1.867 -0.2428  0.2905 -0.4821
    5MOL   H468 4316   6.168   7.210   1.693 -0.4546 -1.1291 -1.7317
    5MOL   H469 4317   6.015   7.163   1.735  0.7797  1.0928  0.6681
    5MOL   H470 4318   6.245   6.981   1.635  0.3866 -0.0332 -2.4026
    5MOL   H471 4319   6.084   6.912   1.671 -0.7180  1.9399  2.8652
    5MOL   H472 4320   6.155   7.116   1.464 -0.1215 -0.1964 -0.9340
    5MOL   H473 4321   5.988   7.065   1.484 -0.6888 -2.5737 -0.8662
    5MOL   H474 4322   6.003   6.704   1.189  1.0268 -0.8368  0.8320
    5MOL   H475 4323   6.167   6.747   1.205  1.3349 -1.2810  1.0264
    5MOL   H476 4324   6.167   6.659   1.450 -0.0372  0.6486 -0.9216
    5MOL   H477 4325   6.132   6.547   1.318  0.0764  0.4998 -1.3425
    5MOL   H478 4326   5.911   6.669   1.486  0.7399 -0.3744  0.4280
    5MOL   H479 4327   5.969   6.494   1.491  0.1001 -1.3564 -1.7064
    5MOL   H480 4328   5.910   6.469   1.260  1.5860  0.6824  0.2674
    5MOL   H481 4329   5.812   6.619   1.283  0.3379  1.4306  1.4111
    5MOL   O482 4330   5.709   6.345   1.330 -0.1237 -0.0959  0.3799
    5MOL   C483 4331   5.604   6.264   1.380 -0.2280 -0.5071 -0.6543
    5MOL   C484 4332   5.659   6.132   1.433  0.2541  0.3946  0.1756
    5MOL   C485 4333   5.787   6.145   1.523 -0.0514  0.6799 -0.5022
    5MOL   C486 4334   5.840   6.013   1.569  0.2393 -0.1208  0.7579
    5MOL   C487 4335   5.749   5.927   1.658  0.9110 -0.7875  0.3337
    5MOL   C488 4336   5.785   5.783   1.667 -0.0230 -0.1326 -0.2787
    5MOL   C489 4337   5.679   5.694   1.740  0.9281  0.1829  0.4987
    5MOL   C490 4338   5.728   5.543   1.752 -0.6797  0.4484  0.1695
    5MOL   C491 4339   5.719   5.477   1.612  0.0048  0.3078 -0.0367
    5MOL   C492 4340   5.749   5.323   1.622  0.2038 -0.0873  0.5893
    5MOL   O493 4341   5.716   5.260   1.495  0.3698  0.1656 -0.1801
    5MOL   C494 4342   5.782   5.147   1.443 -0.4868  0.1900 -0.4473
    5MOL   O495 4343   5.878   5.088   1.489  0.4071 -0.7052  0.5179
    5MOL   C496 4344   5.728   5.099   1.310 -0.0867 -0.4308  0.1825
    5MOL   C497 4345   5.675   5.212   1.209  0.5070 -0.1108  0.3788
    5MOL   C498 4346   5.765   5.226   1.086  0.1739  0.2626  0.4711
    5MOL   C499 4347   5.708   5.312   0.977  0.3962  0.1631 -0.3671
    5MOL   C500 4348   5.776   5.303   0.839  1.0072  0.6291  0.9455
    5MOL   O501 4349   5.848   5.207   0.803  0.1604 -0.1042  0.3747
    5MOL   H502 4350   5.549   6.317   1.457 -0.2944  1.3297 -1.9266
    5MOL   H503 4351   5.531   6.238   1.303 -0.2836 -0.3307 -0.6621
    5MOL   H504 4352   5.689   6.079   1.343 -5.0132  1.9099 -2.6545
    5MOL   H505 4353   5.581   6.072   1.479 -0.4686 -0.5748 -2.2300
    5MOL   H506 4354   5.865   6.195   1.466  0.2831 -2.1347 -2.6380
    5MOL   H507 4355   5.771   6.211   1.608  1.6597 -1.5715  1.6192
    5MOL   H508 4356   5.932   6.030   1.625 -0.2114  0.2940  1.3845
    5MOL   H509 4357   5.865   5.956   1.480  0.5573  1.7980 -0.4178
    5MOL   H510 4358   5.646   5.926   1.623  0.6807 -3.7880  0.9640
    5MOL   H511 4359   5.729   5.977   1.753 -1.8552  1.7177 -1.4717
    5MOL   H512 4360   5.885   5.769   1.707  0.1454  2.2179  0.2040
    5MOL   H513 4361   5.784   5.737   1.568 -0.4008 -2.6198  0.8584
    5MOL   H514 4362   5.587   5.713   1.685  0.7473 -0.1980  0.6709
    5MOL   H515 4363   5.661   5.743   1.835 -0.2793 -0.8316  0.8114
    5MOL   H516 4364   5.663   5.497   1.826 -1.3426  0.5346 -0.3487
    5MOL   H517 4365   5.830   5.536   1.790  0.2152  3.5223 -1.4207
    5MOL   H518 4366   5.620   5.478   1.567  0.4149  3.1614 -0.9659
    5MOL   H519 4367   5.780   5.529   1.538  0.0353  1.5926  0.8859
    5MOL   H520 4368   5.689   5.293   1.708 -0.9419  1.4253  0.3395
    5MOL   H521 4369   5.855   5.303   1.637  0.6729  1.9811  0.1881
    5MOL   H522 4370   5.802   5.035   1.263  0.4094 -0.1976  0.6271
    5MOL   H523 4371   5.646   5.032   1.336 -0.4238 -1.0929 -2.4539
    5MOL   H524 4372   5.627   5.294   1.262  0.5310 -0.6353  1.2252
    5MOL   H525 4373   5.585   5.166   1.171  0.4932  0.3186 -0.1113
    5MOL   H526 4374   5.789   5.123   1.058  2.1738  0.8594 -0.1264
    5MOL   H527 4375   5.857   5.280   1.109  0.0862  1.3272 -1.5903
    5MOL   H528 4376   5.726   5.415   1.010 -0.1768 -0.2141  1.1470
    5MOL   H529 4377   5.605   5.281   0.967 -0.2966  2.4956 -0.8849
    5MOL   O530 4378   5.744   5.412   0.772 -0.3589  0.0065 -0.4733
    5MOL   C531 4379   5.813   5.437   0.653  0.3054 -0.2297 -0.2962
    5MOL   C532 4380   5.777   5.575   0.608 -0.3728 -0.6796  0.8128
    5MOL   C533 4381   5.858   5.612   0.482 -0.3021 -0.0983 -0.3277
    5MOL   C534 4382   5.850   5.758   0.439  0.3378 -0.2442 -0.2687
    5MOL   C535 4383   5.926   5.804   0.310  0.0239 -0.3551 -0.8324
    5MOL   C536 4384   6.072   5.775   0.309  0.4654  0.2300  0.3274
    5MOL   C537 4385   6.135   5.783   0.163  0.5315  0.7644  0.2895
    5MOL   C538 4386   6.081   5.685   0.059  0.6103 -0.5932  0.5259
    5MOL   C539 4387   6.169   5.666   7.690  0.1087  0.1603  0.1794
    5MOL   C540 4388   6.115   5.555   7.598  0.2576  0.5242  0.3168
    5MOL   O541 4389   6.137   5.436   7.674 -0.3333  0.5448  0.5919
    5MOL   C542 4390   6.090   5.323   7.623  0.6053  0.7399  0.4139
    5MOL   O543 4391   6.032   5.303   7.518 -0.2931 -0.0311  0.1220
    5MOL   C544 4392   6.102   5.205   7.721  0.2828 -0.0701  0.2594
    5MOL   C545 4393   6.150   5.071   7.649 -0.8272 -0.4169 -0.1576
    5MOL   C546 4394   6.298   5.085   7.598  0.7033  0.3634 -0.1631
    5MOL   C547 4395   6.359   4.951   7.561 -0.8103 -0.0740 -0.2006
    5MOL   C548 4396   6.488   4.987   7.480 -0.3994  1.3191 -0.8036
    5MOL   O549 4397   6.593   4.996   7.539 -0.1586  0.0005  0.2022
    5MOL   H550 4398   5.919   5.424   0.674 -0.5161 -2.7086  2.6506
    5MOL   H551 4399   5.774   5.366   0.580 -2.7589 -0.8695  1.8711
    5MOL   H552 4400   5.791   5.652   0.684  1.1598  0.4832 -0.6205
    5MOL   H553 4401   5.670   5.577   0.588  0.0112  0.2091 -1.2201
    5MOL   H554 4402   5.958   5.586   0.518 -0.3513  0.2441  0.0571
    5MOL   H555 4403   5.846   5.545   0.397  0.5172 -1.2128  0.4275
    5MOL   H556 4404   5.883   5.823   0.520 -0.5780 -0.7601  0.5397
    5MOL   H557 4405   5.746   5.791   0.433  1.7612  5.3758  2.7122
    5MOL   H558 4406   5.913   5.912   0.300 -0.5741 -0.2951  0.5327
    5MOL   H559 4407   5.877   5.754   0.226  1.2783 -1.9347 -0.6579
    5MOL   H560 4408   6.106   5.677   0.344  0.2626 -1.2019 -3.3442
    5MOL   H561 4409   6.131   5.835   0.378  0.7777  1.2068 -0.7854
    5MOL   H562 4410   6.241   5.761   0.159  0.4195  0.3444 -0.5808
    5MOL   H563 4411   6.124   5.880   0.115  1.4755  0.3234 -0.8422
    5MOL   H564 4412   5.975   5.702   0.041  0.5496 -0.3627  1.0930
    5MOL   H565 4413   6.085   5.589   0.111 -2.6463 -0.9049  0.2571
    5MOL   H566 4414   6.173   5.757   7.630 -0.2427  0.0897  0.0535
    5MOL   H567 4415   6.268   5.632   7.721  0.0259  0.7863  1.1636
    5MOL   H568 4416   6.183   5.548   7.513  0.6825  0.1006  0.6876
    5MOL   H569 4417   6.011   5.567   7.569  1.0362  4.3211 -1.2800
    5MOL   H570 4418   6.169   5.236   0.036 -0.0482 -2.2203  1.4029
    5MOL   H571 4419   6.006   5.186   0.004 -0.8139  2.5681 -0.7942
    5MOL   H572 4420   6.085   5.037   7.568 -1.2553  1.0328 -0.4396
    5MOL   H573 4421   6.138   5.000   7.730  0.5137  0.2712  0.6499
    5MOL   H574 4422   6.356   5.135   7.676  1.8710 -1.5908  0.2813
    5MOL   H575 4423   6.303   5.149   7.511  1.3166 -0.4107 -0.7121
    5MOL   H576 4424   6.283   4.909   7.495 -1.1686 -2.0124  1.3966
    5MOL   H577 4425   6.386   4.903   7.655  1.2202  3.2189  1.0073
    5MOL   O578 4426   6.465   5.013   7.351 -0.1018  0.0982  0.4777
    5MOL   C579 4427   6.572   5.050   7.266 -0.1626 -0.0573  0.0775
    5MOL   C580 4428   6.563   5.207   7.237  0.5482 -0.4736 -0.2120
    5MOL   C581 4429   6.543   5.295   7.363  0.6151 -0.4349 -0.5459
    5MOL   C582 4430   6.586   5.445   7.369  0.0588  0.1088 -0.3202
    5MOL   C583 4431   6.555   5.528   7.488  0.0517 -0.4097 -0.5693
    5MOL   C584 4432   6.581   5.676   7.455  0.1521 -0.1775 -0.4636
    5MOL   C585 4433   6.522   5.775   7.554 -0.3808 -0.3776 -0.1122
    5MOL   C586 4434   6.587   5.919   7.553  0.1732  0.2050  0.4114
    5MOL   C587 4435   6.554   5.986   7.689 -0.4084  0.8665  0.1842
    5MOL   C588 4436   6.619   6.131   7.706 -0.7773 -0.6327  0.0643
    5MOL   O589 4437   6.619   6.162   0.081  0.2473 -0.6328 -0.3125
    5MOL   C590 4438   6.508   6.196   0.153 -0.3504 -0.7497 -0.3528
    5MOL   O591 4439   6.391   6.199   0.110  0.0304 -0.3557 -0.0216
    5MOL   C592 4440   6.548   6.228   0.296 -0.9573  0.6572  0.2983
    5MOL   C593 4441   6.425   6.244   0.388  0.1276 -0.1376 -0.1604
    5MOL   C594 4442   6.370   6.117   0.442  0.4981 -0.0710 -0.0280
    5MOL   C595 4443   6.453   6.074   0.565 -0.2819  0.9636  0.4531
    5MOL   C596 4444   6.376   5.985   0.668 -0.0557 -0.6542  0.2893
    5MOL   O597 4445   6.411   5.991   0.782  0.2640  0.0168  0.7747
    5MOL   H598 4446   6.669   5.015   7.299  0.6891 -0.1166 -2.3951
    5MOL   H599 4447   6.554   5.008   7.167 -1.3932 -0.3050  0.4046
    5MOL   H600 4448   6.478   5.221   7.170  1.0732 -0.0695 -0.8057
    5MOL   H601 4449   6.654   5.225   7.179  0.5048  0.1404 -0.0934
    5MOL   H602 4450   6.439   5.304   7.394  1.1645  0.9649  1.0373
    5MOL   H603 4451   6.594   5.263   7.454  1.0722  2.8070  0.4108
    5MOL   H604 4452   6.538   5.484   7.279 -1.0107 -0.6441 -0.0845
    5MOL   H605 4453   6.691   5.464   7.346 -0.4240  2.9937 -0.2974
    5MOL   H606 4454   6.609   5.500   7.578 -3.0997  2.4149  2.3642
    5MOL   H607 4455   6.449   5.513   7.511 -0.2527  1.8494 -0.3804
    5MOL   H608 4456   6.541   5.708   7.359 -2.1475  0.4963  0.6948
    5MOL   H609 4457   6.687   5.698   7.466 -0.2692  2.0927 -0.8020
    5MOL   H610 4458   6.542   5.741   7.656 -1.7337  1.3357  0.7632
    5MOL   H611 4459   6.415   5.787   7.537 -0.2564  2.1658  0.6563
    5MOL   H612 4460   6.569   5.975   7.461  0.4449  0.0051  0.2351
    5MOL   H613 4461   6.695   5.903   7.557  0.0037 -0.4211  3.2563
    5MOL   H614 4462   6.448   5.978   7.712 -0.7109  0.0520 -1.4021
    5MOL   H615 4463   6.610   5.927   7.761 -1.1363  1.4613  1.2460
    5MOL   H616 4464   6.561   6.207   7.652  1.1038 -0.0445 -1.1905
    5MOL   H617 4465   6.721   6.127   7.668 -0.3653 -0.3338  1.1250
    5MOL   H618 4466   6.621   6.161   0.340 -0.7778  0.3331 -0.4873
    5MOL   H619 4467   6.613   6.315   0.295  0.8385 -0.6009  2.7945
    5MOL   H620 4468   6.353   6.304   0.332 -3.4441 -3.3869  0.6782
    5MOL   H621 4469   6.445   6.312   0.471 -0.2405 -1.6787  1.2230
    5MOL   H622 4470   6.366   6.044   0.362  1.3173 -0.6354  0.4479
    5MOL   H623 4471   6.264   6.127   0.465  0.7892  0.3658  1.1684
    5MOL   H624 4472   6.487   6.166   0.613  1.3322 -0.0141  1.2060
    5MOL   H625 4473   6.543   6.021   0.535 -1.6439  0.2702 -2.6509
    5MOL   O626 4474   6.287   5.901   0.612 -0.2229  0.3798  0.3456
    5MOL   C627 4475   6.215   5.810   0.696  0.1928 -0.4522  0.4326
    5MOL   C628 4476   6.100   5.873   0.774 -0.6488 -0.3985 -0.2748
    5MOL   C629 4477   6.041   5.781   0.890 -0.6047 -0.4218 -0.7668
    5MOL   C630 4478   5.893   5.832   0.919 -0.1630  0.2700  0.2428
    5MOL   C631 4479   5.846   5.765   1.048  0.4039 -0.2973  0.6498
    5MOL   C632 4480   5.714   5.826   1.107 -0.9031  0.2914 -0.1102
    5MOL   C633 4481   5.638   5.735   1.203  0.9741  0.7398 -0.3119
    5MOL   C634 4482   5.513   5.799   1.265 -0.5439  0.3030 -0.0497
    5MOL   C635 4483   5.466   5.724   1.394 -0.8504 -0.0985  0.4968
    5MOL   C636 4484   5.341   5.790   1.460  0.0658 -0.4269 -0.0272
    5MOL   O637 4485   5.311   5.720   1.580  0.5231 -0.4567 -0.2127
    5MOL   C638 4486   5.189   5.730   1.640 -0.0354  0.6535 -0.5604
    5MOL   O639 4487   5.099   5.807   1.605  0.0133 -0.4112 -0.0257
    5MOL   C640 4488   5.174   5.627   1.757  0.8172  0.3518 -0.2937
    5MOL   C641 4489   5.301   5.591   1.847 -0.3550  0.0225  0.1212
    5MOL   C642 4490   5.348   5.702   1.940 -0.2278  0.1594 -0.6195
    5MOL   C643 4491   5.446   5.652   2.051 -0.1270 -0.0681 -0.0208
    5MOL   C644 4492   5.508   5.767   2.127  0.4716  0.0306 -0.7101
    5MOL   O645 4493   5.495   5.887   2.095  0.5215 -0.2822  0.0682
    5MOL   H646 4494   6.190   5.719   0.641 -0.8924  0.3522 -0.4267
    5MOL   H647 4495   6.289   5.777   0.769  1.8244 -0.8367 -1.3403
    5MOL   H648 4496   6.021   5.891   0.702  0.7145  2.4021 -1.1052
    5MOL   H649 4497   6.138   5.966   0.815 -0.3434 -0.8257  0.4318
    5MOL   H650 4498   6.024   5.679   0.857  0.2149 -0.9403  0.3580
    5MOL   H651 4499   6.109   5.776   0.975  0.3089 -1.1505 -1.5410
    5MOL   H652 4500   5.826   5.802   0.839  0.4764  1.9048 -0.9454
    5MOL   H653 4501   5.886   5.940   0.934  0.6275  0.1837  1.3714
    5MOL   H654 4502   5.921   5.782   1.125  1.9258 -1.4004 -0.5695
    5MOL   H655 4503   5.836   5.658   1.034  1.5808 -0.2527 -0.5898
    5MOL   H656 4504   5.643   5.846   1.026  1.4641  1.3430 -1.9901
    5MOL   H657 4505   5.732   5.915   1.167  0.1691 -0.9848  1.4936
    5MOL   H658 4506   5.709   5.705   1.280  2.5795 -1.5542 -2.6082
    5MOL   H659 4507   5.614   5.635   1.166 -2.0502  0.5023  2.0902
    5MOL   H660 4508   5.433   5.784   1.193 -1.4196 -1.9256  1.3501
    5MOL   H661 4509   5.520   5.907   1.278  1.3213  0.1700  0.1698
    5MOL   H662 4510   5.443   5.619   1.382  0.6486 -0.4771  0.7725
    5MOL   H663 4511   5.551   5.729   1.463  1.0097 -0.8886 -1.6648
    5MOL   H664 4512   5.252   5.781   1.397  0.9123  0.8617 -1.4487
    5MOL   H665 4513   5.343   5.897   1.481  2.3428 -0.7107  1.4542
    5MOL   H666 4514   5.093   5.649   1.826  0.2345 -2.3066 -0.1092
    5MOL   H667 4515   5.145   5.530   1.717  0.9818 -0.0111  0.4638
    5MOL   H668 4516   5.381   5.566   1.777 -0.9334 -1.3499 -0.0785
    5MOL   H669 4517   5.286   5.491   1.890 -2.6662 -0.6993 -2.2487
    5MOL   H670 4518   5.261   5.758   1.977  0.6931  0.1651  1.6456
    5MOL   H671 4519   5.419   5.771   1.895  1.4096 -0.9840  0.1801
    5MOL   H672 4520   5.529   5.597   2.007  0.6782  1.2625 -0.1724
    5MOL   H673 4521   5.400   5.576   2.115  1.1269 -1.9666 -1.3181
    5MOL   O674 4522   5.571   5.724   2.236  0.1050 -1.2095  0.3788
    5MOL   C675 4523   5.650   5.809   2.321 -0.6235  0.5580  0.5037
    5MOL   C676 4524   5.755   5.730   2.400  0.3826  0.7576 -0.0812
    5MOL   C677 4525   5.704   5.628   2.515  0.5196 -0.4221 -0.3505
    5MOL   C678 4526   5.830   5.584   2.597  0.0500 -0.7874 -0.4510
    5MOL   C679 4527   5.804   5.517   2.736  0.9136  0.0860  0.8178
    5MOL   C680 4528   5.737   5.378   2.732 -0.3579 -0.3616  0.2928
    5MOL   C681 4529   5.774   5.297   2.851  0.1001  0.4887 -0.0371
    5MOL   C682 4530   5.713   5.153   2.856 -0.1093 -0.4918  0.1994
    5MOL   C683 4531   5.747   5.059   2.972 -0.2478  0.8047 -0.2047
    5MOL   C684 4532   5.685   4.915   2.960 -0.0012  0.1876  0.0596
    5MOL   O685 4533   5.765   4.825   3.038 -0.3574 -0.3150 -0.8027
    5MOL   C686 4534   5.724   4.805   3.164 -0.1293  0.0410 -0.4263
    5MOL   O687 4535   5.635   4.864   3.226 -0.1914  0.2051 -0.4318
    5MOL   C688 4536   5.809   4.696   3.231  0.5402  0.5957 -0.8065
    5MOL   C689 4537   5.873   4.735   3.365 -0.0412 -0.4197  0.4867
    5MOL   C690 4538   5.914   4.610   3.442 -0.0803  0.2012  0.0194
    5MOL   C691 4539   6.018   4.525   3.367  0.0800 -0.2631 -0.0735
    5MOL   C692 4540   6.059   4.412   3.455 -0.2109 -0.2986  0.4252
    5MOL   O693 4541   6.068   4.300   3.415  0.6839  0.4451 -0.4123
    5MOL   H694 4542   5.702   5.883   2.260  1.4013 -2.0668 -1.0273
    5MOL   H695 4543   5.586   5.875   2.381  0.8528  0.6434  2.0067
    5MOL   H696 4544   5.815   5.803   2.455  1.8422  0.0372 -0.7113
    5MOL   H697 4545   5.809   5.678   2.321  0.4777 -1.4148  1.3828
    5MOL   H698 4546   5.631   5.688   2.569  0.6299 -0.1395 -0.5141
    5MOL   H699 4547   5.660   5.537   2.473 -0.3506 -0.5965  0.9174
    5MOL   H700 4548   5.880   5.675   2.630 -0.8684 -0.2451 -0.5250
    5MOL   H701 4549   5.900   5.528   2.536  1.6613 -0.4795  1.0797
    5MOL   H702 4550   5.748   5.589   2.797 -0.0868  0.0219 -0.0027
    5MOL   H703 4551   5.902   5.517   2.782  1.1015 -1.7822  0.4355
    5MOL   H704 4552   5.757   5.324   2.638  0.0450 -1.9163  1.2504
    5MOL   H705 4553   5.628   5.381   2.728 -0.4303 -3.0050 -1.6140
    5MOL   H706 4554   5.744   5.345   2.944 -1.2562 -1.0022  0.3247
    5MOL   H707 4555   5.882   5.284   2.853 -0.0557 -0.7953  1.2729
    5MOL   H708 4556   5.739   5.107   2.760 -0.6674  0.4703 -0.4272
    5MOL   H709 4557   5.605   5.144   2.846 -0.2470 -2.0825  2.6677
    5MOL   H710 4558   5.855   5.052   2.962 -0.2637  0.5533 -0.1926
    5MOL   H711 4559   5.742   5.119   3.062  2.7432  2.7669 -1.2511
    5MOL   H712 4560   5.699   4.883   2.857 -1.1757  0.1788 -0.1011
    5MOL   H713 4561   5.579   4.910   2.983  0.1315  0.3981  0.7233
    5MOL   H714 4562   5.738   4.617   3.257  0.8190  0.9672  1.1644
    5MOL   H715 4563   5.878   4.659   3.155  1.8270 -1.7169  1.3634
    5MOL   H716 4564   5.805   4.798   3.422  0.2674 -0.0666  0.4640
    5MOL   H717 4565   5.965   4.792   3.353 -1.0162  1.3076  1.1876
    5MOL   H718 4566   5.827   4.545   3.457 -0.1582  0.4289  0.5839
    5MOL   H719 4567   5.953   4.649   3.537  0.8887 -1.9597  0.5381
    5MOL   H720 4568   6.114   4.573   3.348  0.0444  0.0990  0.6588
    5MOL   H721 4569   5.983   4.496   3.268  0.6992  3.6408 -1.5239
    5MOL   O722 4570   6.095   4.443   3.575  0.4541 -0.0021  0.0524
    5MOL   C723 4571   6.144   4.345   3.665 -0.2217 -0.4524 -0.0933
    5MOL   C724 4572   6.011   4.282   3.732  0.4146 -0.8115  0.0266
    5MOL   C725 4573   5.944   4.389   3.818  0.4074 -1.2934 -0.0114
    5MOL   C726 4574   5.838   4.331   3.912  0.2120 -0.5779 -0.2804
    5MOL   C727 4575   5.723   4.262   3.832  0.4213 -0.2799  0.4249
    5MOL   C728 4576   5.602   4.217   3.910  0.2248  0.0216 -0.0066
    5MOL   C729 4577   5.617   4.080   3.977 -0.7579 -0.2780 -0.6521
    5MOL   C730 4578   5.593   3.964   3.874  0.8436  0.8264  1.1974
    5MOL   C731 4579   5.582   3.830   3.945  0.4151  0.4594 -0.0987
    5MOL   C732 4580   5.540   3.717   3.857 -0.1160 -0.9720 -0.0345
    5MOL   O733 4581   5.528   3.609   3.940  0.4524 -0.0776 -0.4578
    5MOL   C734 4582   5.626   3.516   3.945 -0.2874 -0.2238  0.6202
    5MOL   O735 4583   5.732   3.516   3.882  0.1006  0.0625  0.3233
    5MOL   C736 4584   5.595   3.393   4.023  0.1488 -0.5616 -0.0129
    5MOL   C737 4585   5.463   3.398   4.107 -1.0773 -0.2966 -0.2289
    5MOL   C738 4586   5.400   3.259   4.131  0.2268  0.1606 -0.5030
    5MOL   C739 4587   5.488   3.192   4.236 -0.6270  0.6456  0.2969
    5MOL   C740 4588   5.420   3.063   4.293  0.2350 -0.0896  0.2161
    5MOL   O741 4589   5.382   3.057   4.411  0.4813  0.4153  0.0007
    5MOL   H742 4590   6.201   4.274   3.605  0.6038  1.1895 -1.2768
    5MOL   H743 4591   6.216   4.390   3.734  0.9849 -1.0950 -0.9140
    5MOL   H744 4592   6.042   4.199   3.796  1.3260 -2.0232 -1.9404
    5MOL   H745 4593   5.946   4.241   3.654  0.1856  0.0607 -0.2447
    5MOL   H746 4594   6.022   4.434   3.880 -1.4756  3.0162 -0.5795
    5MOL   H747 4595   5.899   4.473   3.766  0.1063 -1.9113 -0.7480
    5MOL   H748 4596   5.796   4.420   3.959  0.5171 -0.0928 -0.9295
    5MOL   H749 4597   5.879   4.277   3.998 -2.4984  1.2783  2.2480
    5MOL   H750 4598   5.759   4.181   3.768  3.0948  2.0366 -1.1216
    5MOL   H751 4599   5.689   4.343   3.767 -0.5940 -0.7658  0.3369
    5MOL   H752 4600   5.516   4.212   3.843  1.2122 -2.1905 -1.1513
    5MOL   H753 4601   5.595   4.294   3.987 -0.7573  2.6258 -2.6262
    5MOL   H754 4602   5.548   4.085   4.061  0.0055  1.6201 -0.1205
    5MOL   H755 4603   5.717   4.071   4.019 -0.6238  1.3045 -0.6311
    5MOL   H756 4604   5.672   3.957   3.800 -1.6132 -0.1656 -1.4437
    5MOL   H757 4605   5.497   3.975   3.823  0.8811 -2.8473  0.2133
    5MOL   H758 4606   5.683   3.805   3.978 -0.2773  0.2820  1.9211
    5MOL   H759 4607   5.511   3.846   4.025 -1.4842  0.6817 -1.7885
    5MOL   H760 4608   5.601   3.711   3.767  0.1913 -1.6565  0.2101
    5MOL   H761 4609   5.437   3.733   3.826 -0.0226 -3.1389 -1.6194
    5MOL   H762 4610   5.587   3.305   3.960 -1.4067 -0.2886 -0.2227
    5MOL   H763 4611   5.679   3.375   4.090 -0.3265 -3.1719 -0.0479
    5MOL   H764 4612   5.385   3.459   4.061  2.3493  1.4868 -3.9361
    5MOL   H765 4613   5.487   3.462   4.192 -1.3745  1.4975 -1.4685
    5MOL   H766 4614   5.382   3.203   4.039 -0.0942  1.0464 -0.9901
    5MOL   H767 4615   5.305   3.273   4.183  0.1860 -0.7326 -0.3382
    5MOL   H768 4616   5.508   3.249   4.327 -2.1883 -0.6224  1.4603
    5MOL   H769 4617   5.589   3.175   4.200 -1.3665 -1.0514 -1.1027
    5MOL   O770 4618   5.402   2.970   4.194  0.0733 -0.1321 -0.5724
    5MOL   C771 4619   5.326   2.853   4.214 -0.1493  0.6617  0.0262
    5MOL   C772 4620   5.176   2.881   4.172 -0.3566 -0.4731  0.0733
    5MOL   C773 4621   5.163   2.880   4.020 -0.3363 -0.6088  0.0849
    5MOL   C774 4622   5.026   2.917   3.970 -0.6391  0.6701  0.0691
    5MOL   C775 4623   5.013   2.936   3.816 -0.1275 -0.0197 -1.3066
    5MOL   C776 4624   5.047   2.815   3.731 -0.0141 -0.0509 -0.3197
    5MOL   C777 4625   4.953   2.697   3.753 -0.3714  0.4518  0.2910
    5MOL   C778 4626   5.000   2.570   3.671  0.6826  0.2238  0.1485
    5MOL   C779 4627   4.980   2.591   3.521 -0.1623 -0.1592 -0.1071
    5MOL   C780 4628   5.047   2.484   3.437 -0.0296  0.4408  0.3394
    5MOL   O781 4629   5.012   2.476   3.302 -0.2261 -0.0833  0.2088
    5MOL   C782 4630   4.945   2.368   3.253  0.8201  0.0269 -0.5896
    5MOL   O783 4631   4.935   2.261   3.311  0.1905  0.3723 -0.0966
    5MOL   C784 4632   4.899   2.382   3.107  0.5433  0.3715 -0.3751
    5MOL   C785 4633   4.772   2.465   3.088  0.2163  0.0155  0.4039
    5MOL   C786 4634   4.793   2.620   3.094 -0.6590 -0.4251 -0.5187
    5MOL   C787 4635   4.677   2.692   3.038  0.7243  0.5254  0.5550
    5MOL   C788 4636   4.547   2.660   3.105 -0.7568 -0.1750 -0.6604
    5MOL   O789 4637   4.457   2.588   3.056 -0.6955 -0.0640  0.4865
    5MOL   H790 4638   5.359   2.775   4.146  0.6689  0.5558  0.5414
    5MOL   H791 4639   5.348   2.825   4.317  2.4205  1.6822 -0.1897
    5MOL   H792 4640   5.141   2.976   4.212  2.8789  0.0240  1.9450
    5MOL   H793 4641   5.108   2.805   4.209 -1.6913 -0.1365 -1.6140
    5MOL   H794 4642   5.235   2.956   3.991 -1.9385  2.0702  2.8280
    5MOL   H795 4643   5.204   2.789   3.977  0.2409  1.4290 -3.8770
    5MOL   H796 4644   4.967   2.996   4.017 -1.2345  0.4525 -0.3038
    5MOL   H797 4645   4.962   2.833   3.997  2.0359 -0.8184  2.0298
    5MOL   H798 4646   5.075   3.023   3.789 -0.0503  1.0728  2.1693
    5MOL   H799 4647   4.907   2.954   3.803 -0.5916 -2.1607 -0.5722
    5MOL   H800 4648   5.151   2.785   3.745 -0.2169 -0.9626 -0.7269
    5MOL   H801 4649   5.052   2.845   3.627  2.0423 -0.9416 -0.5075
    5MOL   H802 4650   4.847   2.712   3.729  0.1681  0.8850 -1.9870
    5MOL   H803 4651   4.962   2.684   3.860  0.9085 -0.0813  0.1223
    5MOL   H804 4652   4.970   2.477   3.718  1.2666  0.1340  0.3507
    5MOL   H805 4653   5.109   2.570   3.676  0.6633  1.4085  0.8327
    5MOL   H806 4654   4.879   2.600   3.484 -0.3313  2.6452  0.9247
    5MOL   H807 4655   5.020   2.681   3.474 -0.2481  0.3904  0.8584
    5MOL   H808 4656   5.033   2.386   3.482 -0.5652  0.0691 -0.6326
    5MOL   H809 4657   5.155   2.496   3.444  0.5129 -3.6952  0.0025
    5MOL   H810 4658   4.975   2.415   3.036 -0.2150  3.3082  0.1145
    5MOL   H811 4659   4.862   2.281   3.086  0.6122 -0.2426  2.2510
    5MOL   H812 4660   4.690   2.437   3.155  0.1463  1.3437  0.8921
    5MOL   H813 4661   4.735   2.442   2.988  2.3100  0.4677 -0.4953
    5MOL   H814 4662   4.883   2.650   3.040 -0.3177 -1.6148 -0.6084
    5MOL   H815 4663   4.817   2.652   3.195  1.9550 -2.4069 -0.4869
    5MOL   H816 4664   4.651   2.681   2.932 -0.9901  1.9845  0.7876
    5MOL   H817 4665   4.693   2.800   3.034 -0.5637  0.7838  1.9172
    5MOL   O818 4666   4.532   2.712   3.230  0.6921  0.3732  0.0783
    5MOL   C819 4667   4.421   2.685   3.311  0.1806 -0.7828 -0.0678
    5MOL   C820 4668   4.417   2.533   3.344  0.3608 -0.3934 -0.0832
    5MOL   C821 4669   4.528   2.475   3.434 -0.1525 -0.3213  0.4917
    5MOL   C822 4670   4.489   2.336   3.484  0.2011  0.8084  0.6400
    5MOL   C823 4671   4.586   2.295   3.597  0.5447 -0.6190 -0.5946
    5MOL   C824 4672   4.558   2.154   3.641  0.2466 -1.0699  0.4502
    5MOL   C825 4673   4.640   2.110   3.757  0.2287 -0.1255 -1.0898
    5MOL   C826 4674   4.781   2.068   3.712 -0.2924  0.4125 -0.0609
    5MOL   C827 4675   4.859   1.997   3.816 -0.1707  0.5771  0.6095
    5MOL   C828 4676   4.992   1.948   3.757  0.2394  0.0882  0.3316
    5MOL   O829 4677   5.073   2.064   3.740 -0.2406 -0.2999  0.5934
    5MOL   C830 4678   5.180   2.061   3.648 -0.2821  1.2941  0.3886
    5MOL   O831 4679   5.216   1.971   3.567  0.0829  0.1571 -0.1513
    5MOL   C832 4680   5.252   2.192   3.644 -0.8200  0.2026  0.7062
    5MOL   C833 4681   5.308   2.244   3.509  0.6918 -0.3258  1.0095
    5MOL   C834 4682   5.408   2.372   3.529 -0.0526 -0.1198  0.4474
    5MOL   C835 4683   5.485   2.398   3.392  0.2333 -0.1973  0.5606
    5MOL   C836 4684   5.612   2.488   3.414  0.1692 -0.4012  0.5100
    5MOL   O837 4685   5.663   2.511   3.525  0.3092  0.1301 -0.2289
    5MOL   H838 4686   4.432   2.727   3.411  3.3712 -0.1081 -0.6342
    5MOL   H839 4687   4.331   2.724   3.263 -0.0028 -0.8117  0.2519
    5MOL   H840 4688   4.391   2.474   3.257 -3.3781 -1.0691  1.3850
    5MOL   H841 4689   4.322   2.523   3.396  0.1412 -1.0779 -0.6133
    5MOL   H842 4690   4.621   2.461   3.377 -0.3180 -3.3381  0.8544
    5MOL   H843 4691   4.552   2.539   3.519 -0.3767  0.2519  0.1256
    5MOL   H844 4692   4.497   2.265   3.402  2.6470  0.3686  1.2103
    5MOL   H845 4693   4.390   2.348   3.528  0.8024  0.4504  2.1141
    5MOL   H846 4694   4.572   2.369   3.675 -0.4392 -1.9190  0.4689
    5MOL   H847 4695   4.693   2.307   3.578  0.9722 -0.4533  1.8047
    5MOL   H848 4696   4.562   2.079   3.563  0.7811  1.2193 -1.7874
    5MOL   H849 4697   4.451   2.164   3.661 -0.2293  0.8149 -2.6959
    5MOL   H850 4698   4.591   2.024   3.802 -0.2215  1.6509  1.9608
    5MOL   H851 4699   4.634   2.192   3.828 -0.9181 -0.4107 -0.8483
    5MOL   H852 4700   4.831   2.161   3.685  0.2250  0.0548 -0.3575
    5MOL   H853 4701   4.775   2.007   3.622 -1.2744  1.0620 -0.4458
    5MOL   H854 4702   4.882   2.061   3.901  1.8804  1.7538 -0.7943
    5MOL   H855 4703   4.797   1.909   3.833  1.6862 -0.7179  0.8164
    5MOL   H856 4704   4.971   1.897   3.663  0.2275  0.1225  0.3158
    5MOL   H857 4705   5.043   1.883   3.828  0.4742 -1.6222 -1.3519
    5MOL   H858 4706   5.192   2.270   3.692 -1.6202  0.1465 -0.1832
    5MOL   H859 4707   5.339   2.188   3.709  0.9717 -1.6378 -1.7241
    5MOL   H860 4708   5.228   2.259   3.437  1.7716 -0.1883 -0.1906
    5MOL   H861 4709   5.354   2.155   3.465  3.3854  1.1103  0.7735
    5MOL   H862 4710   5.465   2.358   3.620 -1.9218 -0.0212  1.6646
    5MOL   H863 4711   5.348   2.461   3.549  0.3414  0.1770  0.3195
    5MOL   H864 4712   5.421   2.440   3.315  0.2078 -0.8210  0.2409
    5MOL   H865 4713   5.519   2.307   3.343 -2.4095 -1.5015  1.1032
    5MOL   O866 4714   5.666   2.518   3.299  0.2855  0.0075  0.1635
    5MOL   C867 4715   5.783   2.588   3.296 -0.4103 -0.4631  0.2773
    5MOL   C868 4716   5.847   2.592   3.157  0.3405 -0.5387  0.9418
    5MOL   C869 4717   5.756   2.656   3.048 -0.1166 -0.5330 -0.0234
    5MOL   C870 4718   5.813   2.658   2.909  0.3443  0.4486  0.1625
    5MOL   C871 4719   5.743   2.763   2.820 -0.0384  0.2035 -0.1914
    5MOL   C872 4720   5.807   2.776   2.684 -0.3969  0.0903 -0.7795
    5MOL   C873 4721   5.729   2.839   2.571 -0.1290  0.1963  0.5260
    5MOL   C874 4722   5.792   2.806   2.437 -0.3597  0.3242 -1.3595
    5MOL   C875 4723   5.746   2.888   2.314 -0.4093  0.1928 -0.2403
    5MOL   C876 4724   5.807   2.835   2.186 -0.7460  0.5479  0.3835
    5MOL   O877 4725   5.731   2.901   2.084 -0.0913  0.1898  0.0328
    5MOL   C878 4726   5.777   2.917   1.963  0.1184  0.1398 -0.0740
    5MOL   O879 4727   5.888   2.881   1.933  0.0551 -0.1755 -0.1961
    5MOL   C880 4728   5.692   3.001   1.869 -0.1769  0.1290 -0.1668
    5MOL   C881 4729   5.671   3.147   1.910  0.2372 -0.0040 -0.0133
    5MOL   C882 4730   5.606   3.172   2.050 -0.6765 -0.5070  0.4355
    5MOL   C883 4731   5.580   3.326   2.082 -0.0349 -0.2791 -0.3431
    5MOL   C884 4732   5.591   3.367   2.231  0.0631 -0.2928  0.2091
    5MOL   O885 4733   5.647   3.300   2.318 -0.0568 -0.1542  0.2832
    5MOL   H886 4734   5.758   2.692   3.315 -1.0222 -0.3423 -1.1515
    5MOL   H887 4735   5.843   2.558   3.382 -2.1604 -0.6896  1.4483
    5MOL   H888 4736   5.879   2.491   3.132  1.4882  0.3192 -1.1831
    5MOL   H889 4737   5.946   2.635   3.170  0.7533 -1.2190  0.1346
    5MOL   H890 4738   5.657   2.611   3.041 -0.7016  0.0901  3.1692
    5MOL   H891 4739   5.744   2.756   3.091 -0.1212 -0.5844  0.0984
    5MOL   H892 4740   5.799   2.558   2.867 -0.9322  0.7240 -0.0645
    5MOL   H893 4741   5.921   2.673   2.903  0.4975 -0.9411 -0.9017
    5MOL   H894 4742   5.742   2.862   2.865  0.5565  0.8165 -1.4893
    5MOL   H895 4743   5.639   2.734   2.805 -0.6046  0.6744  2.6042
    5MOL   H896 4744   5.825   2.675   2.646  2.0168 -0.1848  0.9342
    5MOL   H897 4745   5.904   2.824   2.696 -0.2911 -0.3658  0.3064
    5MOL   H898 4746   5.709   2.944   2.588 -1.9864 -0.0497 -0.0620
    5MOL   H899 4747   5.626   2.802   2.570 -0.8796  2.2574 -0.3571
    5MOL   H900 4748   5.752   2.705   2.428 -1.1950  0.6677 -1.5990
    5MOL   H901 4749   5.900   2.803   2.447 -0.4724 -1.0807 -0.3543
    5MOL   H902 4750   5.637   2.896   2.311 -0.5962 -1.6655  0.8531
    5MOL   H903 4751   5.776   2.993   2.324 -0.6011  0.0854  1.8225
    5MOL   H904 4752   5.792   2.728   2.175 -0.6693  0.6151 -0.3486
    5MOL   H905 4753   5.910   2.863   2.164 -0.3484 -1.3814 -0.3114
    5MOL   H906 4754   5.746   2.989   1.775 -1.0424  0.1687 -0.6742
    5MOL   H907 4755   5.600   2.942   1.865  0.3584 -0.8248  1.1683
    5MOL   H908 4756   5.598   3.190   1.841  0.2535 -1.3371 -0.9008
    5MOL   H909 4757   5.761   3.207   1.900 -0.6512  1.3449  0.0456
    5MOL   H910 4758   5.670   3.137   2.131  0.1608 -1.0573 -0.4618
    5MOL   H911 4759   5.511   3.122   2.066  0.3720 -1.6288  3.5900
    5MOL   H912 4760   5.478   3.349   2.050  0.1886  2.4599  0.7261
    5MOL   H913 4761   5.639   3.394   2.020  0.2966  0.5283  0.8336
    5MOL   O914 4762   5.530   3.484   2.254  0.2857  0.1117  0.3093
    5MOL   C915 4763   5.509   3.535   2.381  0.0704  0.0466 -0.0228
    5MOL   C916 4764   5.392   3.465   2.445  0.1029  0.0649 -0.6593
    5MOL   C917 4765   5.310   3.552   2.543  0.8783  0.1078 -0.3860
    5MOL   C918 4766   5.193   3.479   2.613 -0.5848 -0.1258  0.2934
    5MOL   C919 4767   5.120   3.547   2.727  0.0098 -0.3153 -0.0507
    5MOL   C920 4768   5.035   3.450   2.822  0.3019 -0.0736  0.2591
    5MOL   C921 4769   4.930   3.521   2.911 -0.1366 -0.0550  0.1879
    5MOL   C922 4770   4.873   3.435   3.023  0.4740  0.2712 -0.8241
    5MOL   C923 4771   4.775   3.519   3.103  0.4465 -0.3398  0.1581
    5MOL   C924 4772   4.726   3.433   3.220  0.0800 -0.1711  0.4398
    5MOL   O925 4773   4.662   3.314   3.168 -0.0692 -0.5228  0.5920
    5MOL   C926 4774   4.526   3.300   3.156  0.4826  0.5943 -0.2675
    5MOL   O927 4775   4.447   3.389   3.180  0.0062 -0.4104 -0.1609
    5MOL   C928 4776   4.468   3.165   3.115 -1.0646  0.0068  0.5624
    5MOL   C929 4777   4.347   3.115   3.194 -0.2081 -0.0017 -0.3394
    5MOL   C930 4778   4.378   3.080   3.338  0.2740 -0.0698 -0.2377
    5MOL   C931 4779   4.254   3.029   3.414 -0.4602 -0.0547  0.3310
    5MOL   C932 4780   4.120   3.109   3.396 -0.5665  0.7165 -0.4673
    5MOL   O933 4781   4.020   3.049   3.364  0.0891  0.3805 -0.4386
    5MOL   H934 4782   5.602   3.538   2.438  1.7075  0.9141 -2.6389
    5MOL   H935 4783   5.487   3.641   2.368  1.1699  0.1286 -1.2545
    5MOL   H936 4784   5.437   3.379   2.495 -0.7970  0.0396  0.1301
    5MOL   H937 4785   5.319   3.430   2.372  1.0742  2.9762 -3.1025
    5MOL   H938 4786   5.377   3.589   2.621  0.4683  1.8925 -0.8527
    5MOL   H939 4787   5.261   3.633   2.490 -0.5579 -1.3592 -1.3677
    5MOL   H940 4788   5.239   3.384   2.641 -1.7797 -0.6328  0.5559
    5MOL   H941 4789   5.112   3.440   2.551 -3.4545  1.1388  3.0841
    5MOL   H942 4790   5.060   3.629   2.687 -0.3668 -0.1435  0.8542
    5MOL   H943 4791   5.188   3.597   2.796 -1.0168  1.7328 -0.4901
    5MOL   H944 4792   5.109   3.400   2.885  0.0133  1.3226  1.7355
    5MOL   H945 4793   4.976   3.373   2.772 -0.2533  0.6400 -0.1855
    5MOL   H946 4794   4.852   3.582   2.867  0.5339 -0.1336 -1.1428
    5MOL   H947 4795   4.987   3.599   2.962  0.7626  0.9119 -2.2069
    5MOL   H948 4796   4.943   3.390   3.093 -1.2583  0.4049  1.0773
    5MOL   H949 4797   4.823   3.347   2.982 -1.2699  0.7043  0.3216
    5MOL   H950 4798   4.832   3.608   3.131  1.9014 -1.6172  1.3784
    5MOL   H951 4799   4.702   3.546   3.027  2.4270 -0.0385 -1.6873
    5MOL   H952 4800   4.663   3.493   3.285  2.8709  2.3567  0.9261
    5MOL   H953 4801   4.812   3.402   3.279 -1.1049  0.1501  2.3751
    5MOL   H954 4802   4.446   3.167   3.008  2.8820  1.1468 -0.3424
    5MOL   H955 4803   4.554   3.099   3.126 -1.4632 -0.5664  0.2422
    5MOL   H956 4804   4.323   3.021   3.145 -0.7522 -0.2227  0.3463
    5MOL   H957 4805   4.266   3.187   3.178  0.7235  0.8707 -1.2499
    5MOL   H958 4806   4.420   3.162   3.396  0.6458 -0.1028 -0.4569
    5MOL   H959 4807   4.462   3.011   3.338  1.1879  1.0097  1.7960
    5MOL   H960 4808   4.269   3.015   3.521 -2.3507  0.3160  0.6577
    5MOL   H961 4809   4.236   2.927   3.381  0.6553 -0.4918  1.0322
    5MOL   H962 4810   4.132   3.212   3.427  1.9926 -0.0278  1.1992
    6MOL     O1 4811   7.387   0.377   6.326  0.2181  0.3415  0.2746
    6MOL     C2 4812   7.297   0.335   6.228 -0.4831 -0.3550  0.0855
    6MOL     C3 4813   7.262   0.185   6.248 -0.1373  0.6034 -0.6053
    6MOL     C4 4814   7.127   0.151   6.180 -0.0883 -0.3580  0.1579
    6MOL     C5 4815   7.096   0.007   6.220  0.4962  0.3414 -0.7901
    6MOL     C6 4816   7.172   7.675   6.131 -1.0718 -0.2888 -0.2351
    6MOL     C7 4817   7.109   7.535   6.131 -0.2651  0.1031  0.1682
    6MOL     C8 4818   7.104   7.474   6.264  0.7114  0.3167  0.5419
    6MOL     C9 4819   7.057   7.330   6.261 -0.5891 -0.4548 -0.2360
    6MOL    C10 4820   7.054   7.257   6.403 -0.1569  0.3299  0.1169
    6MOL    C11 4821   7.043   7.102   6.382  0.1393  0.0977 -0.0452
    6MOL    O12 4822   7.157   7.048   6.325  0.2507  0.4214  0.2191
    6MOL    C13 4823   7.143   6.943   6.244 -0.3425 -0.3987 -0.5721
    6MOL    O14 4824   7.039   6.878   6.222  0.0703  0.1486 -0.7720
    6MOL    C15 4825   7.267   6.919   6.157 -0.1155 -0.2423  0.6905
    6MOL    C16 4826   7.237   6.874   6.009 -0.0805 -0.5939 -0.3117
    6MOL    C17 4827   7.176   6.978   5.924  0.0566  0.0362 -0.1818
    6MOL    C18 4828   7.156   6.926   5.781 -0.0029  0.2490  0.4330
    6MOL    C19 4829   7.075   7.020   5.700  0.3785 -0.2462 -0.6332
    6MOL    O20 4830   6.954   7.006   5.683 -0.0328 -0.1297 -0.0621
    6MOL    H21 4831   7.217   0.409   6.222 -0.1559  0.0487  0.6238
    6MOL    H22 4832   7.337   0.358   6.130 -0.9512  0.5687  0.1089
    6MOL    H23 4833   7.267   0.161   6.354  2.4531 -1.0168 -1.0431
    6MOL    H24 4834   7.338   0.117   6.210  0.2522 -0.1051  1.3940
    6MOL    H25 4835   7.046   0.214   6.214 -0.0576 -0.9844  1.4079
    6MOL    H26 4836   7.139   0.165   6.072  0.1049  2.5238  0.5153
    6MOL    H27 4837   6.990   7.750   6.207  0.6566 -2.5519  2.0045
    6MOL    H28 4838   7.105   7.760   6.328 -0.9169  1.2249 -0.5566
    6MOL    H29 4839   7.279   7.668   6.152 -1.3884 -1.0008  1.2187
    6MOL    H30 4840   7.158   7.708   6.029 -2.3438 -0.8090 -0.2402
    6MOL    H31 4841   7.157   7.464   6.062 -0.0287  1.0404 -0.6410
    6MOL    H32 4842   7.004   7.545   6.103  0.4599  0.8728 -2.4736
    6MOL    H33 4843   7.030   7.533   6.317  1.0028  2.1702 -1.0751
    6MOL    H34 4844   7.195   7.459   6.322  1.6595  0.5856 -0.8650
    6MOL    H35 4845   7.128   7.292   6.188 -0.6576  1.3214 -1.2422
    6MOL    H36 4846   6.959   7.314   6.216 -1.1597 -0.8937  1.1346
    6MOL    H37 4847   7.145   7.271   6.462  1.3823 -0.8061 -1.9191
    6MOL    H38 4848   6.972   7.299   6.461 -0.8823 -0.5536 -0.2653
    6MOL    H39 4849   6.954   7.081   6.322  0.1595 -2.4464  0.7493
    6MOL    H40 4850   7.017   7.052   6.475 -0.8452  0.1910 -0.2652
    6MOL    H41 4851   7.330   7.009   6.158 -1.6825  0.8718  1.6393
    6MOL    H42 4852   7.330   6.839   6.195  2.4161  0.9001 -0.9890
    6MOL    H43 4853   7.164   6.794   6.022 -0.2366 -0.1140  1.9624
    6MOL    H44 4854   7.333   6.837   5.973 -0.2749 -0.4150 -1.0304
    6MOL    H45 4855   7.239   7.066   5.919 -1.0604  0.8040 -0.7826
    6MOL    H46 4856   7.088   7.022   5.970 -1.3390 -2.0649 -0.7712
    6MOL    H47 4857   7.113   6.826   5.775 -2.4030  1.1976  1.3075
    6MOL    H48 4858   7.252   6.927   5.728  0.1111  0.4624  0.6456
    6MOL    H49 4859   7.385   0.471   6.333 -0.5460  0.2618  1.2024
    6MOL    O50 4860   7.141   7.130   5.666  0.4490  0.5222  0.0524
    6MOL    C51 4861   7.082   7.247   5.610 -0.2437 -0.4273  0.4611
    6MOL    C52 4862   7.024   7.333   5.719 -0.2166  0.6001  0.4473
    6MOL    C53 4863   6.965   7.460   5.675  0.4840 -0.3313  0.2145
    6MOL    C54 4864   6.933   7.545   5.801  0.4838  0.5981  0.0895
    6MOL    C55 4865   6.865   7.675   5.756  0.2506  0.6576  0.2644
    6MOL    C56 4866   6.869   0.011   5.878  0.2436 -0.0062  0.4935
    6MOL    C57 4867   6.838   0.156   5.829 -0.1772 -0.0137 -0.3966
    6MOL    C58 4868   6.884   0.260   5.940 -0.4342  0.0467 -0.1620
    6MOL    C59 4869   6.866   0.407   5.914  0.0576 -0.1594  0.5186
    6MOL    C60 4870   6.915   0.505   6.012  0.1874  0.1086 -0.0802
    6MOL    O61 4871   6.848   0.489   6.132  0.6381 -0.0330  0.2316
    6MOL    C62 4872   6.906   0.537   6.244 -0.0824 -0.0465 -0.2531
    6MOL    O63 4873   7.015   0.585   6.254  0.0390  0.0827 -0.1684
    6MOL    C64 4874   6.817   0.522   6.369 -0.4861 -0.2440  0.6165
    6MOL    C65 4875   6.895   0.488   6.502  0.1712  0.2149 -0.0701
    6MOL    C66 4876   6.975   0.355   6.496  0.2146  0.4205  0.6704
    6MOL    C67 4877   7.034   0.294   6.621 -0.3784  0.0933 -0.1811
    6MOL    C68 4878   6.927   0.247   6.717 -0.2033 -0.2331 -0.3629
    6MOL    O69 4879   6.810   0.280   6.699 -0.6212 -0.3535 -0.7594
    6MOL    H70 4880   7.146   7.317   5.556  0.7416 -1.9420 -0.3940
    6MOL    H71 4881   7.007   7.211   5.541 -0.2740 -0.3126  0.4340
    6MOL    H72 4882   7.111   7.352   5.781 -0.2575  4.1883 -0.5009
    6MOL    H73 4883   6.954   7.273   5.777 -0.3233  2.8355  2.6739
    6MOL    H74 4884   7.033   7.520   5.615 -1.6223  0.2352 -1.6694
    6MOL    H75 4885   6.879   7.435   5.613 -0.3305 -0.8021  1.4947
    6MOL    H76 4886   7.021   7.567   5.860 -0.2117 -1.5024  1.9855
    6MOL    H77 4887   6.865   7.498   5.872  0.2904  3.0540  1.5676
    6MOL    H78 4888   6.763   7.653   5.725 -0.2870  0.2133  2.3328
    6MOL    H79 4889   6.899   7.721   5.663 -0.6969  1.4574  0.2959
    6MOL    H80 4890   6.969   0.009   5.922  0.2436  0.0832  0.4970
    6MOL    H81 4891   6.817   7.748   5.970  1.0285 -1.2735  0.5571
    6MOL    H82 4892   6.743   0.179   5.781 -1.3345  1.1702  2.3359
    6MOL    H83 4893   6.910   0.168   5.748  0.5520  0.7917  0.3569
    6MOL    H84 4894   6.992   0.245   5.947 -0.4523 -0.3911 -0.7840
    6MOL    H85 4895   6.839   0.240   6.037 -3.6022 -1.7774 -1.9205
    6MOL    H86 4896   6.907   0.432   5.817  1.3719  0.4398  1.2204
    6MOL    H87 4897   6.758   0.419   5.905 -0.0831 -0.3689  1.8450
    6MOL    H88 4898   6.888   0.605   5.978  0.3389  0.3070  0.3867
    6MOL    H89 4899   7.023   0.500   6.015  0.2568  2.1998  3.2241
    6MOL    H90 4900   6.781   0.624   6.382 -1.5387 -0.7138  1.4487
    6MOL    H91 4901   6.733   0.454   6.352 -0.0432 -0.1389 -2.1430
    6MOL    H92 4902   6.829   0.502   6.588  0.3629  0.6640  0.0033
    6MOL    H93 4903   6.975   0.558   6.525 -0.0821 -0.1721  2.1939
    6MOL    H94 4904   7.046   0.359   6.413  1.5208 -1.2356  1.6598
    6MOL    H95 4905   6.907   0.286   6.446  0.2563 -0.2909  1.5906
    6MOL    H96 4906   7.092   0.370   6.674  0.5034 -0.5231 -0.2447
    6MOL    H97 4907   7.099   0.209   6.600 -0.0013 -0.4040  2.7408
    6MOL    O98 4908   6.978   0.186   6.823 -0.1296  0.6268 -0.0574
    6MOL    C99 4909   6.894   0.119   6.914 -0.1479 -0.5336  0.2067
    6MOL   C100 4910   6.895   0.197   7.047 -0.1152  0.0800  0.3883
    6MOL   C101 4911   6.815   0.122   7.150  0.3977  0.0990  0.1855
    6MOL   C102 4912   6.816   0.200   7.278 -0.4630  0.6700 -0.1704
    6MOL   C103 4913   6.716   0.161   7.394  0.1071  0.0895 -0.0972
    6MOL   C104 4914   6.745   0.013   7.443 -0.0096 -0.6507 -0.2998
    6MOL   C105 4915   6.875   7.755   7.528 -0.0533 -0.2708 -0.0318
    6MOL   C106 4916   6.891   7.612   7.563  1.4316 -0.2377 -0.6457
    6MOL   C107 4917   7.027   7.568   7.605  0.0038  0.2954  0.3216
    6MOL   C108 4918   7.020   7.431   7.671 -0.4785  0.9313  0.2629
    6MOL   O109 4919   7.142   7.409   7.738  0.4816 -0.1578 -0.3652
    6MOL   C110 4920   7.186   7.280   7.757 -0.2325 -0.3189 -0.2941
    6MOL   O111 4921   7.131   7.180   7.716  0.1354  0.7127 -0.0048
    6MOL   C112 4922   7.323   7.286   0.065  0.7742  0.5105  0.6524
    6MOL   C113 4923   7.331   7.366   0.193  0.0608  0.0498  0.0125
    6MOL   C114 4924   7.350   7.519   0.155  0.2207 -0.2079  0.2260
    6MOL   C115 4925   7.398   7.607   0.272  0.2908  0.1501  0.1404
    6MOL   C116 4926   7.539   7.576   0.306  0.1050  0.2492  0.2034
    6MOL   O117 4927   7.569   7.544   0.425  0.5722  0.3055  0.4322
    6MOL   H118 4928   6.795   0.106   6.869 -0.2431 -0.9239  0.5162
    6MOL   H119 4929   6.939   0.022   6.937 -0.1901  0.1166  3.3009
    6MOL   H120 4930   6.848   0.290   7.015 -0.2597 -0.1585 -0.0993
    6MOL   H121 4931   6.999   0.221   7.070  0.1201 -0.0376 -0.5159
    6MOL   H122 4932   6.712   0.102   7.121  0.0914 -0.1382  1.4240
    6MOL   H123 4933   6.866   0.028   7.171 -0.4393 -0.3085  0.4034
    6MOL   H124 4934   6.799   0.306   7.260 -0.2838  0.5366 -1.1026
    6MOL   H125 4935   6.915   0.193   7.322 -0.6851  0.4684  0.3029
    6MOL   H126 4936   6.616   0.172   7.353 -1.2207  0.1676  3.0695
    6MOL   H127 4937   6.741   0.226   7.477  0.7157  0.0083 -0.2162
    6MOL   H128 4938   6.746   7.704   7.362 -3.7192  1.1582 -2.1141
    6MOL   H129 4939   6.663   7.742   7.505 -0.0307  1.5942  0.9813
    6MOL   H130 4940   6.875   0.054   7.617 -2.7076  2.6768 -2.0029
    6MOL   H131 4941   6.963   0.018   7.470 -1.1347 -0.3822 -1.7768
    6MOL   H132 4942   6.865   7.554   7.474  1.9354 -0.7397 -0.4684
    6MOL   H133 4943   6.821   7.585   7.642  0.1651  0.8524 -1.3691
    6MOL   H134 4944   7.094   7.559   7.519 -1.1142  2.4813 -0.8117
    6MOL   H135 4945   7.066   7.646   7.671  0.2262  0.9950 -0.6401
    6MOL   H136 4946   6.999   7.358   7.593 -4.0140  2.7570 -0.5950
    6MOL   H137 4947   6.932   7.423   7.735 -2.2891  0.1714 -2.1984
    6MOL   H138 4948   7.355   7.185   0.087  2.7165  0.9723  0.0820
    6MOL   H139 4949   7.387   7.323   7.749 -0.4454 -0.4866 -0.8201
    6MOL   H140 4950   7.425   7.327   0.231  1.3150  0.1601 -2.8052
    6MOL   H141 4951   7.251   7.345   0.265  1.1813 -1.6729  0.7826
    6MOL   H142 4952   7.259   7.563   0.114  0.6181 -0.3039 -0.7613
    6MOL   H143 4953   7.415   7.537   0.069 -1.6346  3.3050 -0.5495
    6MOL   H144 4954   7.338   7.593   0.362  1.3622 -3.0327  0.4399
    6MOL   H145 4955   7.396   7.710   0.237  0.1160 -0.3828 -1.4200
    6MOL   O146 4956   7.622   7.578   0.204 -0.4857  0.0465  0.3567
    6MOL   C147 4957   7.762   7.571   0.226 -0.3270 -0.0825 -0.1151
    6MOL   C148 4958   0.069   7.438   0.183  0.4998  0.7143  0.8080
    6MOL   C149 4959   0.046   7.388   0.038  0.5560 -0.5731 -0.4218
    6MOL   C150 4960   0.079   7.250   0.003  0.6281  0.6180  0.2464
    6MOL   C151 4961   0.022   7.193   7.634 -0.5373  0.3870 -0.0884
    6MOL   C152 4962   7.641   7.200   7.640 -0.9069  0.2381  0.0282
    6MOL   C153 4963   7.573   7.127   7.532 -0.1393  0.0162 -0.2569
    6MOL   C154 4964   7.418   7.134   7.536 -0.0305  0.6064 -0.1832
    6MOL   C155 4965   7.358   7.015   7.450  0.4732 -0.6827  0.5255
    6MOL   C156 4966   7.208   7.036   7.426 -0.3475 -0.0971  0.3403
    6MOL   O157 4967   7.127   6.955   7.496  0.4401  0.6375 -0.3173
    6MOL   C158 4968   7.093   6.830   7.457 -0.2877  0.3657 -0.7498
    6MOL   O159 4969   7.105   6.787   7.341 -0.1620  0.3879  0.7014
    6MOL   C160 4970   7.029   6.744   7.572 -0.1080  0.1224  0.4098
    6MOL   C161 4971   7.045   6.592   7.541 -0.1594 -0.5979 -0.5517
    6MOL   C162 4972   7.194   6.546   7.564 -0.5081 -0.7150 -0.5319
    6MOL   C163 4973   7.203   6.405   7.511 -0.8793 -0.0889  0.1716
    6MOL   C164 4974   7.342   6.350   7.521  0.7612  0.4986 -0.6389
    6MOL   O165 4975   7.412   6.346   7.423 -0.4509 -0.6470  0.0406
    6MOL   H166 4976   0.046   7.646   0.164 -2.5354  0.8400 -0.8116
    6MOL   H167 4977   0.027   7.599   0.328 -0.7158 -0.4383  0.0963
    6MOL   H168 4978   0.029   7.365   0.254 -1.3189  1.7074  0.8503
    6MOL   H169 4979   0.175   7.456   0.199  0.7975 -0.4966  0.2318
    6MOL   H170 4980   7.706   7.407   0.018 -0.1018 -1.6053  1.8732
    6MOL   H171 4981   0.087   7.457   7.729  0.7054 -0.3379 -0.1223
    6MOL   H172 4982   0.050   7.178   0.079 -1.8605  0.0867 -1.1405
    6MOL   H173 4983   0.186   7.235   0.007  0.5968 -0.4640 -2.3061
    6MOL   H174 4984   0.062   7.093   7.614 -0.5031  0.5275 -0.7176
    6MOL   H175 4985   0.053   7.263   7.557  1.6457  1.2569  1.5431
    6MOL   H176 4986   7.608   7.303   7.630 -1.5600  0.0407  0.0745
    6MOL   H177 4987   7.605   7.172   7.739  0.0796 -3.5482 -0.5915
    6MOL   H178 4988   7.603   7.023   7.547 -1.2202 -0.2494  0.1629
    6MOL   H179 4989   7.606   7.168   7.436 -0.7957 -0.8070 -0.8451
    6MOL   H180 4990   7.378   7.229   7.499  0.1406  2.0968  3.2391
    6MOL   H181 4991   7.384   7.126   7.640 -0.1621  1.8799 -0.1115
    6MOL   H182 4992   7.410   7.018   7.354 -0.5157 -0.1854  0.0031
    6MOL   H183 4993   7.382   6.916   7.488  0.4275 -0.8672  0.0778
    6MOL   H184 4994   7.178   7.029   7.321 -4.3182  0.6435  1.3799
    6MOL   H185 4995   7.187   7.138   7.459  0.5844 -0.4651  2.1520
    6MOL   H186 4996   7.069   6.772   7.669 -2.0498 -0.9784  1.5353
    6MOL   H187 4997   6.923   6.766   7.571 -0.4475 -1.4665  0.2721
    6MOL   H188 4998   6.995   6.574   7.446 -1.8889  1.7761 -0.1445
    6MOL   H189 4999   6.992   6.534   7.617  0.1526 -1.8967 -1.3220
    6MOL   H190 5000   7.209   6.560   7.671 -0.9484  3.9616 -0.9740
    6MOL   H191 5001   7.268   6.603   7.508  0.1630 -3.0288 -2.0446
    6MOL   H192 5002   7.168   6.398   7.408 -0.1346  1.4880 -0.2095
    6MOL   H193 5003   7.137   6.342   7.570  0.2687 -0.7644  0.7461
    6MOL   O194 5004   7.379   6.315   7.644  0.2698  0.4049  0.1427
    6MOL   C195 5005   7.517   6.276   7.664  0.0928  0.0898  0.2175
    6MOL   C196 5006   7.553   6.320   0.040 -0.2705 -0.9631  0.5935
    6MOL   C197 5007   7.705   6.289   0.061 -0.8879 -0.0985  0.6805
    6MOL   C198 5008   7.761   6.367   0.182 -0.2344  0.1421 -0.4219
    6MOL   C199 5009   0.145   6.394   0.183 -0.2359  0.7155  0.0723
    6MOL   C200 5010   0.198   6.438   0.316 -0.1578  0.2225 -0.0542
    6MOL   C201 5011   0.320   6.522   0.308  0.1231  0.1843 -0.8466
    6MOL   C202 5012   0.426   6.460   0.215 -0.0975 -0.3940 -0.0590
    6MOL   C203 5013   0.477   6.321   0.256 -0.3937  0.0328 -0.2448
    6MOL   C204 5014   0.576   6.258   0.155  0.6357 -0.6009  0.2720
    6MOL   O205 5015   0.495   6.220   0.035  0.1417 -0.2958  0.6166
    6MOL   C206 5016   0.543   6.137   7.706 -0.2131  0.5161  0.1304
    6MOL   O207 5017   0.650   6.080   7.708 -0.4148 -0.4729  0.4768
    6MOL   C208 5018   0.430   6.110   7.608  0.3565  0.1927  0.5523
    6MOL   C209 5019   0.321   6.010   7.676  0.1664 -0.1781 -0.3637
    6MOL   C210 5020   0.181   6.012   7.605  0.2614 -0.4257 -0.8514
    6MOL   C211 5021   0.066   5.932   7.665  0.0943  0.5568 -0.3957
    6MOL   C212 5022   0.096   5.780   7.663  0.0570 -0.1849 -0.9852
    6MOL   O213 5023   0.197   5.722   7.622 -0.0601  1.0191 -0.1831
    6MOL   H214 5024   7.526   6.170   7.639  0.3032  0.3310 -0.7704
    6MOL   H215 5025   7.576   6.343   7.601  1.3037 -1.3862 -0.2340
    6MOL   H216 5026   7.503   6.256   0.113 -0.9784 -1.4371 -0.2823
    6MOL   H217 5027   7.528   6.425   0.057 -1.7850 -1.0035 -1.1697
    6MOL   H218 5028   7.715   6.182   0.077 -1.1464  0.0308  1.7083
    6MOL   H219 5029   7.764   6.310   7.736 -2.1298  0.1011 -0.1131
    6MOL   H220 5030   7.736   6.294   0.258 -2.4129  1.2254 -0.0477
    6MOL   H221 5031   7.703   6.457   0.201 -0.9442 -0.5020  0.5089
    6MOL   H222 5032   0.171   6.470   0.110 -0.9108  0.6708 -0.2129
    6MOL   H223 5033   0.200   6.304   0.157 -2.2885 -0.6000  0.1874
    6MOL   H224 5034   0.203   6.356   0.388  0.8612 -0.5137 -0.9356
    6MOL   H225 5035   0.124   6.506   0.357 -0.1191  1.0509 -1.3404
    6MOL   H226 5036   0.368   6.532   0.405  0.4770 -3.4696 -0.5654
    6MOL   H227 5037   0.300   6.624   0.275 -0.2318  0.6242  0.6793
    6MOL   H228 5038   0.503   6.537   0.218  0.7456 -1.2864  3.7056
    6MOL   H229 5039   0.396   6.469   0.110  3.1215 -0.6517 -1.0587
    6MOL   H230 5040   0.530   6.339   0.350 -1.0627  0.0954  0.1287
    6MOL   H231 5041   0.401   6.244   0.272  0.5351 -0.6569  0.9683
    6MOL   H232 5042   0.624   6.167   0.189  1.1116 -0.5312 -0.2081
    6MOL   H233 5043   0.648   6.334   0.125  0.3079 -0.7708 -0.9607
    6MOL   H234 5044   0.394   6.208   7.576  0.2910  0.7986  2.3967
    6MOL   H235 5045   0.478   6.072   7.518  1.1289  2.2686  0.0617
    6MOL   H236 5046   0.307   6.046   0.013  0.6873  1.7236 -0.9311
    6MOL   H237 5047   0.349   5.905   7.685 -1.1874 -0.7485 -2.3678
    6MOL   H238 5048   0.189   5.969   7.506  1.2584  0.0490 -0.9842
    6MOL   H239 5049   0.142   6.112   7.587 -0.2470 -0.6891 -1.2288
    6MOL   H240 5050   7.750   5.968   7.601 -0.4214  1.5567  0.7944
    6MOL   H241 5051   0.044   5.965   0.002 -0.4772  1.0276 -0.6723
    6MOL   O242 5052   7.756   5.712   7.709 -0.1452  0.2519 -0.5875
    6MOL   C243 5053   7.756   5.573   7.731 -0.1327  0.0630 -0.0151
    6MOL   C244 5054   7.734   5.480   7.604 -0.0637  0.0718  0.5820
    6MOL   C245 5055   7.590   5.469   7.556  0.1687  0.3212  0.4573
    6MOL   C246 5056   7.568   5.567   7.438 -0.0073 -0.6991  0.9725
    6MOL   C247 5057   7.415   5.585   7.408 -0.0794  0.1071 -0.4992
    6MOL   C248 5058   7.341   5.658   7.521 -0.5665 -0.1436 -0.0171
    6MOL   C249 5059   7.189   5.630   7.497  0.5404 -0.3899 -0.3761
    6MOL   C250 5060   7.098   5.687   7.605  0.0532  0.8202  0.2430
    6MOL   C251 5061   6.952   5.672   7.580 -0.0338 -0.4160  0.3382
    6MOL   C252 5062   6.875   5.692   7.711  0.6610 -0.2478  0.7152
    6MOL   O253 5063   6.888   5.818   0.017 -0.3426  0.0763 -0.2283
    6MOL   C254 5064   6.874   5.813   0.153  0.0984 -0.3950  0.4368
    6MOL   O255 5065   6.845   5.710   0.217 -0.1106  0.0435  0.7037
    6MOL   C256 5066   6.898   5.945   0.227 -0.1746 -0.2128 -0.2803
    6MOL   C257 5067   6.887   5.954   0.376  0.7029 -0.1143  0.4610
    6MOL   C258 5068   6.960   6.079   0.433  0.6843  0.3164  0.6897
    6MOL   C259 5069   6.963   6.095   0.584 -0.4794  0.3506  0.0889
    6MOL   C260 5070   7.038   5.980   0.645  0.5897 -0.5910  0.2472
    6MOL   O261 5071   6.974   5.879   0.679  0.2690  0.3955  0.2201
    6MOL   H262 5072   0.089   5.549   0.010 -0.5249 -3.5812 -1.0468
    6MOL   H263 5073   7.682   5.549   0.042 -1.4810 -2.6857 -2.1439
    6MOL   H264 5074   7.756   5.377   7.635 -2.6342 -0.2761  1.3759
    6MOL   H265 5075   0.034   5.498   7.518 -1.9529 -1.1156 -1.1189
    6MOL   H266 5076   7.571   5.368   7.521 -0.4027  0.3765  0.5965
    6MOL   H267 5077   7.525   5.482   7.643  2.7442 -0.8359  2.5893
    6MOL   H268 5078   7.611   5.528   7.346 -1.0142  1.3627 -0.4104
    6MOL   H269 5079   7.612   5.666   7.450 -0.9785  0.1829 -2.2178
    6MOL   H270 5080   7.371   5.486   7.402 -1.0047  0.3223  2.1009
    6MOL   H271 5081   7.408   5.644   7.317 -0.2449 -0.6851 -0.9986
    6MOL   H272 5082   7.346   5.767   7.528 -1.8159 -0.1366  0.9893
    6MOL   H273 5083   7.362   5.624   7.622  0.6497 -1.3759 -0.6705
    6MOL   H274 5084   7.173   5.522   7.499 -0.8873 -0.1875  0.7958
    6MOL   H275 5085   7.148   5.668   7.404 -0.5336  1.1824  0.7137
    6MOL   H276 5086   7.123   5.791   7.622  1.2294  0.9021 -1.7811
    6MOL   H277 5087   7.126   5.646   7.702  1.0890 -1.2064 -0.8746
    6MOL   H278 5088   6.914   5.740   7.504 -0.2938 -1.6652 -0.6653
    6MOL   H279 5089   6.923   5.571   7.551 -1.2679  0.4231 -1.4600
    6MOL   H280 5090   6.882   5.596   7.763 -0.8890 -1.6397 -1.5508
    6MOL   H281 5091   6.774   5.695   7.672  0.5195  3.1499  1.2572
    6MOL   H282 5092   7.004   5.963   0.209  0.2163  0.2104  2.2565
    6MOL   H283 5093   6.849   6.023   0.169 -1.5826  0.0750  1.2497
    6MOL   H284 5094   6.936   5.865   0.417 -0.5565 -1.3371 -0.6242
    6MOL   H285 5095   6.784   5.942   0.409  1.0358 -0.2888  1.4613
    6MOL   H286 5096   6.911   6.169   0.394 -0.6100 -0.0292  1.4761
    6MOL   H287 5097   7.064   6.075   0.402  0.0131 -5.0030 -1.4914
    6MOL   H288 5098   6.860   6.104   0.619 -1.1829  0.4360 -1.9195
    6MOL   H289 5099   7.018   6.184   0.617  1.1124 -0.1499 -1.1494
    6MOL   O290 5100   7.164   5.991   0.649 -0.2742 -0.0420  0.2622
    6MOL   C291 5101   7.245   5.889   0.711  0.0876  0.5635  0.4071
    6MOL   C292 5102   7.299   5.781   0.614 -0.0362 -0.2372 -0.0885
    6MOL   C293 5103   7.192   5.710   0.523  0.4436 -0.6553  0.2427
    6MOL   C294 5104   7.245   5.602   0.429 -0.0654 -0.0551  0.0465
    6MOL   C295 5105   7.167   5.593   0.297 -0.0206  0.1777 -0.1439
    6MOL   C296 5106   7.187   5.473   0.207 -0.1566 -0.0724  0.2748
    6MOL   C297 5107   7.332   5.440   0.153  0.0129  0.2861  0.2978
    6MOL   C298 5108   7.335   5.307   0.080 -0.2800  0.0294 -0.1841
    6MOL   C299 5109   7.251   5.293   7.719  0.5324 -0.9367 -0.1474
    6MOL   C300 5110   7.260   5.155   7.662  0.3187 -0.0095  1.4673
    6MOL   O301 5111   7.390   5.117   7.619  0.1924  0.6712 -0.1011
    6MOL   C302 5112   7.396   5.020   7.528 -0.3591  0.1511  0.0540
    6MOL   O303 5113   7.309   4.939   7.501 -0.1402  0.5909 -0.2622
    6MOL   C304 5114   7.537   5.013   7.470 -0.2686 -0.7489  0.4411
    6MOL   C305 5115   7.651   5.052   7.557  0.2043  0.3975  0.1100
    6MOL   C306 5116   0.021   5.012   7.498 -0.8459  0.0879 -0.0718
    6MOL   C307 5117   0.141   5.055   7.585 -0.2908  0.3967 -0.7691
    6MOL   C308 5118   0.196   5.184   7.534  0.3689  0.2656 -0.0200
    6MOL   O309 5119   0.157   5.242   7.430 -0.2100  0.0927 -0.3894
    6MOL   H310 5120   7.329   5.947   0.750 -0.1480  1.3600 -0.2607
    6MOL   H311 5121   7.182   5.845   0.788 -0.3952 -0.2576 -0.4480
    6MOL   H312 5122   7.367   5.710   0.661  0.2030  0.0533  0.0088
    6MOL   H313 5123   7.363   5.833   0.542  0.1978  0.3821  0.5573
    6MOL   H314 5124   7.116   5.658   0.581  0.9185 -0.7652  0.7751
    6MOL   H315 5125   7.161   5.791   0.457 -1.0005 -2.6122 -1.5587
    6MOL   H316 5126   7.248   5.501   0.471  3.6804  0.4762  1.2755
    6MOL   H317 5127   7.347   5.627   0.401  0.2003 -1.3324 -0.1859
    6MOL   H318 5128   7.195   5.672   0.227 -0.2498  0.2053 -0.2038
    6MOL   H319 5129   7.061   5.607   0.317  0.3520  1.7211  0.8237
    6MOL   H320 5130   7.125   5.481   0.118  0.9721  2.9839 -0.3024
    6MOL   H321 5131   7.148   5.389   0.265 -1.3949 -0.2322 -0.7821
    6MOL   H322 5132   7.398   5.428   0.239  0.0141 -3.6696 -0.1841
    6MOL   H323 5133   7.373   5.511   0.081  1.3061 -1.3137 -0.5897
    6MOL   H324 5134   7.310   5.232   0.155 -0.9272  0.6072  0.1890
    6MOL   H325 5135   7.440   5.289   0.058  0.1009  0.9650  0.7871
    6MOL   H326 5136   7.146   5.317   7.730  0.2712 -2.4648  0.9015
    6MOL   H327 5137   7.289   5.348   7.633  1.9679  0.7403  1.5119
    6MOL   H328 5138   7.193   5.140   7.578  1.8566 -1.0019  0.3964
    6MOL   H329 5139   7.226   5.085   7.739 -2.8939 -0.5171 -0.3429
    6MOL   H330 5140   7.562   4.913   7.435  0.2241 -0.4643 -0.0326
    6MOL   H331 5141   7.551   5.066   7.375  0.3393 -0.6700  0.5726
    6MOL   H332 5142   7.638   4.994   7.649  1.2848 -2.7145 -1.6213
    6MOL   H333 5143   7.653   5.158   7.581  0.2969  0.6993 -1.1984
    6MOL   H334 5144   0.035   5.045   7.396  0.0951  3.0563  0.9687
    6MOL   H335 5145   0.029   4.903   7.497  1.5649  0.2212  1.6366
    6MOL   H336 5146   0.215   4.976   7.570 -0.8652 -0.6451  1.6226
    6MOL   H337 5147   0.112   5.072   7.689  1.7017  1.0251 -0.2856
    6MOL   O338 5148   0.294   5.227   7.610 -0.5465  0.5573  0.9863
    6MOL   C339 5149   0.339   5.362   7.589 -0.5034 -0.2991  0.2622
    6MOL   C340 5150   0.483   5.375   7.644 -0.0030 -0.0342  0.1084
    6MOL   C341 5151   0.527   5.517   7.676 -0.2790 -0.2390 -0.3880
    6MOL   C342 5152   0.660   5.539   7.753  0.0560  0.2662  0.3310
    6MOL   C343 5153   0.706   5.690   0.001  0.3052 -0.1238  0.0449
    6MOL   C344 5154   0.805   5.719   0.115 -0.3979 -0.3714 -0.2647
    6MOL   C345 5155   0.850   5.866   0.124 -0.6789  0.3892 -0.3428
    6MOL   C346 5156   0.895   5.903   0.269 -0.4725 -0.0581 -0.2921
    6MOL   C347 5157   1.022   5.821   0.306 -0.7326  0.2335 -0.1195
    6MOL   C348 5158   1.061   5.839   0.454 -0.1426 -0.1145 -0.0253
    6MOL   O349 5159   1.183   5.776   0.480 -0.2452  0.1098 -0.0801
    6MOL   C350 5160   1.217   5.765   0.610 -0.1351 -0.3719  0.7738
    6MOL   O351 5161   1.158   5.817   0.701 -0.1712 -0.2620 -1.2037
    6MOL   C352 5162   1.339   5.677   0.631 -0.2444 -0.1480 -0.3596
    6MOL   C353 5163   1.433   5.704   0.757 -0.1398  0.1705 -0.1380
    6MOL   C354 5164   1.538   5.590   0.773  0.6534 -0.1758 -0.7902
    6MOL   C355 5165   1.639   5.626   0.880 -0.0747  0.2581  0.0149
    6MOL   C356 5166   1.716   5.761   0.866  0.4073  0.0052  0.2946
    6MOL   O357 5167   1.712   5.842   0.961 -0.2622 -0.4235 -0.0772
    6MOL   H358 5168   0.340   5.383   7.482 -0.9186  1.2787  0.5670
    6MOL   H359 5169   0.272   5.426   7.647 -1.3481 -2.4321  1.7106
    6MOL   H360 5170   0.555   5.325   7.580  1.0013 -1.1337  2.0626
    6MOL   H361 5171   0.477   5.321   7.739 -1.5084  2.0773  1.2657
    6MOL   H362 5172   0.531   5.585   7.591 -1.8347  1.2259  0.6682
    6MOL   H363 5173   0.449   5.575   7.726  0.3718  1.6061 -1.4620
    6MOL   H364 5174   0.739   5.470   7.725  2.2759  1.7030  2.8476
    6MOL   H365 5175   0.627   5.515   0.090  0.2828  2.0473  0.8487
    6MOL   H366 5176   0.614   5.748   0.013  0.4443  0.2867 -0.7756
    6MOL   H367 5177   0.743   5.717   7.666 -2.4744 -0.8694 -1.2465
    6MOL   H368 5178   0.901   5.666   0.113 -0.2782 -0.2269  0.9864
    6MOL   H369 5179   0.759   5.690   0.209  1.8337  2.1463  1.6867
    6MOL   H370 5180   0.762   5.926   0.099 -1.3472 -0.1899  0.5779
    6MOL   H371 5181   0.925   5.873   0.046 -0.1739  2.8421  0.3106
    6MOL   H372 5182   0.809   5.891   0.335 -1.9229  1.6641 -1.8191
    6MOL   H373 5183   0.927   6.008   0.268 -0.1831 -0.1481 -0.6143
    6MOL   H374 5184   1.017   5.713   0.289  1.2940  0.2556 -1.0609
    6MOL   H375 5185   1.101   5.865   0.245  0.3335  0.5047  1.4292
    6MOL   H376 5186   0.977   5.793   0.506 -0.7625  1.3046  0.2602
    6MOL   H377 5187   1.051   5.941   0.490  2.0192  0.6640 -1.4933
    6MOL   H378 5188   1.292   5.579   0.647 -2.1570  0.5935 -1.3541
    6MOL   H379 5189   1.402   5.673   0.543  0.1331  2.4354 -0.2384
    6MOL   H380 5190   1.387   5.730   0.852  0.2595 -0.2030  0.1562
    6MOL   H381 5191   1.491   5.790   0.721 -1.1960  0.6422 -0.7666
    6MOL   H382 5192   1.595   5.572   0.682  1.6963  0.6105 -0.3095
    6MOL   H383 5193   1.486   5.496   0.793  0.0001  0.5910  1.1918
    6MOL   H384 5194   1.714   5.546   0.877 -1.7349 -1.3182 -0.6769
    6MOL   H385 5195   1.580   5.622   0.972 -0.7413 -0.4535 -0.4450
    6MOL   O386 5196   1.777   5.774   0.748 -0.2364 -0.1009 -0.0800
    6MOL   C387 5197   1.841   5.896   0.711 -0.3989 -0.0746 -0.3695
    6MOL   C388 5198   1.844   5.892   0.552 -0.4858  0.0788  0.0034
    6MOL   C389 5199   1.703   5.910   0.486 -0.6837  0.0076 -0.8881
    6MOL   C390 5200   1.695   5.914   0.336  0.4977  1.4436 -0.2450
    6MOL   C391 5201   1.549   5.934   0.294  0.1427 -0.3123  0.4188
    6MOL   C392 5202   1.519   5.922   0.144  0.5508  0.4354  0.5984
    6MOL   C393 5203   1.366   5.962   0.128  0.5292  0.9226 -0.4127
    6MOL   C394 5204   1.315   5.949   7.740  0.3829  0.0426 -0.8570
    6MOL   C395 5205   1.306   5.810   7.688 -0.1294  0.7527 -0.0071
    6MOL   C396 5206   1.242   5.783   7.544 -0.4100 -0.3245  0.4707
    6MOL   O397 5207   1.128   5.869   7.532 -0.0157 -0.4670  0.1787
    6MOL   C398 5208   1.012   5.831   7.490  0.6769  0.4494 -0.8775
    6MOL   O399 5209   0.980   5.728   7.446  0.2130 -0.5199 -0.1727
    6MOL   C400 5210   0.908   5.941   7.509  0.5680  0.0095 -0.7084
    6MOL   C401 5211   0.913   6.027   7.382  0.1385  0.2197 -0.1867
    6MOL   C402 5212   0.808   6.138   7.395 -0.2368 -0.1854  0.6669
    6MOL   C403 5213   0.861   6.265   7.458  0.6380  0.3187 -0.2357
    6MOL   C404 5214   0.947   6.351   7.366  0.6289  0.1300  0.3656
    6MOL   O405 5215   0.939   6.340   7.244 -0.0858 -0.1107  0.2973
    6MOL   H406 5216   1.793   5.989   0.740  1.4559  0.5455  0.8134
    6MOL   H407 5217   1.942   5.892   0.751  0.3916  1.2941 -2.1513
    6MOL   H408 5218   1.889   5.795   0.529 -0.0052  0.2027  0.3973
    6MOL   H409 5219   1.907   5.977   0.526  0.3036  0.2676  2.4251
    6MOL   H410 5220   1.638   5.835   0.530  1.5467 -1.1354  0.5849
    6MOL   H411 5221   1.664   6.003   0.526  1.5993  0.9177 -0.6662
    6MOL   H412 5222   1.732   5.817   0.305 -0.8364  0.6962  0.4536
    6MOL   H413 5223   1.753   5.999   0.299  0.4007  2.1491  1.1770
    6MOL   H414 5224   1.495   6.020   0.332  0.2659 -0.2396  0.4313
    6MOL   H415 5225   1.488   5.855   0.339  0.6003 -0.8453  0.1134
    6MOL   H416 5226   1.551   5.826   0.106  1.3854  0.4273  1.2902
    6MOL   H417 5227   1.577   5.992   0.084  0.2111  0.5082  0.3584
    6MOL   H418 5228   1.358   6.069   0.143 -1.8284  0.5236  1.5685
    6MOL   H419 5229   1.306   5.907   0.202  1.0444  2.0334  0.8456
    6MOL   H420 5230   1.385   6.001   7.674 -0.7788  1.0285 -1.3270
    6MOL   H421 5231   1.220   6.000   7.749  0.7215  0.6447 -0.6336
    6MOL   H422 5232   1.406   5.768   7.683 -0.4803 -0.3570  1.7173
    6MOL   H423 5233   1.250   5.758   0.002 -0.6995  0.7729 -0.3951
    6MOL   H424 5234   1.213   5.679   7.528 -1.2180 -0.1010  0.4654
    6MOL   H425 5235   1.302   5.805   7.455 -0.3134 -0.7710  0.4269
    6MOL   H426 5236   0.812   5.890   7.518  1.2105 -0.9307  1.1419
    6MOL   H427 5237   0.920   5.992   7.604  1.2719  1.9320 -1.8102
    6MOL   H428 5238   0.891   5.959   7.299 -1.9703 -0.7356  1.1093
    6MOL   H429 5239   1.005   6.077   7.354 -0.4261  0.2884 -1.9832
    6MOL   H430 5240   0.719   6.116   7.453 -2.0825  3.2940 -0.6516
    6MOL   H431 5241   0.757   6.165   7.302 -2.0507  0.8026  1.9215
    6MOL   H432 5242   0.919   6.243   7.548  1.1180  2.2320 -0.0533
    6MOL   H433 5243   0.777   6.328   7.488 -0.3110 -1.2066  0.3059
    6MOL   O434 5244   1.018   6.442   7.430  0.3425  0.4046  0.0618
    6MOL   C435 5245   1.121   6.511   7.367 -0.2508  0.2051  0.0458
    6MOL   C436 5246   1.240   6.420   7.359  0.2328  0.2622  0.1966
    6MOL   C437 5247   1.293   6.385   7.493  0.0313  0.3597  0.1041
    6MOL   C438 5248   1.414   6.292   7.489 -0.1678  0.0351  0.0780
    6MOL   C439 5249   1.468   6.265   7.626  1.3183 -0.3974 -0.2326
    6MOL   C440 5250   1.612   6.199   7.626  0.1681  0.1489 -0.2582
    6MOL   C441 5251   1.632   6.090   7.534  0.7991 -0.2515 -0.9303
    6MOL   C442 5252   1.770   6.023   7.547 -1.0742  0.0769  0.6728
    6MOL   C443 5253   1.779   5.889   7.472  0.2101  0.5010  0.4895
    6MOL   C444 5254   1.686   5.775   7.513  0.6241  0.0497  0.4422
    6MOL   O445 5255   1.704   5.667   7.428 -0.3667  0.0462  0.3430
    6MOL   C446 5256   1.591   5.592   7.399  0.3047  0.2617  0.4466
    6MOL   O447 5257   1.479   5.623   7.436 -0.7722 -0.7398 -0.1742
    6MOL   C448 5258   1.624   5.466   7.324 -0.5850  0.0212 -0.8346
    6MOL   C449 5259   1.677   5.505   7.185  0.1832  0.5488  0.2579
    6MOL   C450 5260   1.801   5.412   7.139 -0.5006  0.1180 -0.8054
    6MOL   C451 5261   1.760   5.269   7.124 -0.6236 -0.2940  0.0565
    6MOL   C452 5262   1.874   5.181   7.065  0.1666 -0.4493  0.2692
    6MOL   O453 5263   1.937   5.096   7.127 -0.1715 -0.0168 -0.7046
    6MOL   H454 5264   1.083   6.545   7.270 -1.3431 -2.0149 -0.3305
    6MOL   H455 5265   1.148   6.597   7.428 -0.8134 -0.5051  1.3105
    6MOL   H456 5266   1.321   6.472   7.308  0.4252  1.0524  1.2809
    6MOL   H457 5267   1.212   6.327   7.310  2.5332  0.1829 -1.0578
    6MOL   H458 5268   1.317   6.473   7.553 -1.8237 -0.5873  2.3101
    6MOL   H459 5269   1.215   6.326   7.541  1.4478 -0.4462  1.5030
    6MOL   H460 5270   1.475   6.349   7.420  0.5691 -0.1423  0.5803
    6MOL   H461 5271   1.394   6.200   7.433 -0.2569  0.3784 -0.4520
    6MOL   H462 5272   1.406   6.210   7.697  0.8260 -0.3881 -0.6583
    6MOL   H463 5273   1.486   6.358   7.680  0.3562 -0.9076  0.9803
    6MOL   H464 5274   1.647   6.175   7.727  0.4023  0.3340 -0.2950
    6MOL   H465 5275   1.682   6.273   7.589  2.5188 -1.6873  0.4068
    6MOL   H466 5276   1.615   6.121   7.431 -1.9914  0.4321 -0.2990
    6MOL   H467 5277   1.557   6.013   7.553 -0.0183  0.1903 -2.3245
    6MOL   H468 5278   1.808   6.007   7.648 -2.7626  1.4131  1.5681
    6MOL   H469 5279   1.844   6.092   7.506 -0.3198 -1.3503 -0.3873
    6MOL   H470 5280   1.769   5.909   7.366 -1.5890  0.8777  0.7161
    6MOL   H471 5281   1.885   5.867   7.485  0.3210  1.9463  2.2900
    6MOL   H472 5282   1.583   5.810   7.509  0.6753  0.3041  1.1068
    6MOL   H473 5283   1.703   5.744   7.616  0.1556 -2.7112 -0.2781
    6MOL   H474 5284   1.711   5.419   7.371  0.1926 -0.5578 -2.7957
    6MOL   H475 5285   1.537   5.404   7.307 -0.9045 -0.1568  1.3010
    6MOL   H476 5286   1.712   5.605   7.161 -0.3605  0.7872  0.4457
    6MOL   H477 5287   1.601   5.497   7.108 -1.6204  0.3012  2.0000
    6MOL   H478 5288   1.883   5.413   7.212  0.9557  0.4839 -2.4052
    6MOL   H479 5289   1.845   5.454   7.048  1.2755  0.7799  0.3264
    6MOL   H480 5290   1.674   5.264   7.058  0.8247 -0.7583 -1.8542
    6MOL   H481 5291   1.730   5.218   7.216 -1.0691  0.3219  0.2514
    6MOL   O482 5292   1.907   5.214   6.939 -0.6989  0.0950 -0.2141
    6MOL   C483 5293   2.033   5.165   6.893  0.7209  0.4039  0.5785
    6MOL   C484 5294   2.037   5.206   6.743 -0.0689 -0.2437  0.7356
    6MOL   C485 5295   2.086   5.346   6.727 -1.1768  0.4867 -0.6890
    6MOL   C486 5296   2.115   5.385   6.580  0.1941 -0.3433  0.2810
    6MOL   C487 5297   2.157   5.533   6.569 -0.1243 -0.0327  0.1349
    6MOL   C488 5298   2.181   5.591   6.427 -0.0297  0.0096 -0.2321
    6MOL   C489 5299   2.202   5.742   6.408 -0.1620  0.1469  0.4269
    6MOL   C490 5300   2.074   5.829   6.415  0.6160  0.3073 -0.9721
    6MOL   C491 5301   2.103   5.977   6.424  0.3134 -0.3827 -0.3988
    6MOL   C492 5302   1.971   6.044   6.463 -0.8250  0.2007  0.7123
    6MOL   O493 5303   2.000   6.180   6.493 -0.1740  0.1429 -0.0828
    6MOL   C494 5304   1.902   6.269   6.515 -0.5663  0.7134 -0.5071
    6MOL   O495 5305   1.785   6.241   6.519  0.3176 -0.4927 -0.1088
    6MOL   C496 5306   1.945   6.419   6.542 -0.2130  0.4871 -0.2386
    6MOL   C497 5307   2.066   6.440   6.640 -0.5531  0.6873  0.2001
    6MOL   C498 5308   2.056   6.380   6.778  0.2931  0.5460 -0.6044
    6MOL   C499 5309   2.142   6.435   6.889 -0.4628 -0.4405  0.3875
    6MOL   C500 5310   2.291   6.458   6.849 -0.0855 -0.5803  0.5909
    6MOL   O501 5311   2.337   6.576   6.866  0.3891 -0.5104 -0.0542
    6MOL   H502 5312   2.113   5.205   6.955  1.8132 -1.9472  0.7496
    6MOL   H503 5313   2.034   5.057   6.911 -3.2485  0.3363  0.7710
    6MOL   H504 5314   1.943   5.190   6.690  0.1698  0.1189  0.2106
    6MOL   H505 5315   2.105   5.139   6.690  1.0474  2.4631 -1.3511
    6MOL   H506 5316   2.014   5.418   6.766  1.6122  2.1885  1.5066
    6MOL   H507 5317   2.179   5.354   6.782 -2.4130  1.4305  1.3098
    6MOL   H508 5318   2.026   5.353   6.525 -0.0098 -1.2644  1.1409
    6MOL   H509 5319   2.193   5.326   6.533  1.9931  1.9930  0.2209
    6MOL   H510 5320   2.248   5.542   6.629  0.2946 -0.7746 -0.3864
    6MOL   H511 5321   2.073   5.586   6.613 -1.3245  0.1527 -2.2891
    6MOL   H512 5322   2.095   5.574   6.362  0.1528  0.0658 -0.4852
    6MOL   H513 5323   2.273   5.550   6.387  0.9561  3.4569 -1.5877
    6MOL   H514 5324   2.242   5.762   6.309  0.1621 -3.8676 -0.3531
    6MOL   H515 5325   2.253   5.796   6.488 -0.1993  2.2237 -0.8977
    6MOL   H516 5326   2.021   5.791   6.502  1.3237 -1.1655 -1.1681
    6MOL   H517 5327   2.001   5.816   6.335 -1.3484 -2.4251  1.1632
    6MOL   H518 5328   2.176   5.990   6.503  0.8103 -0.2733 -0.8690
    6MOL   H519 5329   2.146   6.013   6.330  0.8467  0.3325  0.1184
    6MOL   H520 5330   1.936   5.999   6.556 -1.5117 -1.5430 -0.3747
    6MOL   H521 5331   1.893   6.058   6.389 -1.4487 -0.6904  1.1876
    6MOL   H522 5332   1.969   6.458   6.443 -2.1098 -2.0908 -1.7963
    6MOL   H523 5333   1.855   6.474   6.565 -0.6987  0.1390 -1.2396
    6MOL   H524 5334   2.076   6.549   6.642  1.7183  0.5426 -1.8304
    6MOL   H525 5335   2.148   6.401   6.580 -0.6994 -0.7150  0.8975
    6MOL   H526 5336   2.080   6.274   6.768 -1.3974  0.1677 -0.7933
    6MOL   H527 5337   1.956   6.371   6.820  1.4960 -1.3417  2.0036
    6MOL   H528 5338   2.120   6.387   6.985 -1.3679 -2.8360 -0.9601
    6MOL   H529 5339   2.107   6.536   6.911  0.1458 -0.2702  0.5754
    6MOL   O530 5340   2.359   6.345   6.800 -0.4778  0.5617 -0.6307
    6MOL   C531 5341   2.485   6.364   6.734 -0.1631  0.2926  0.6343
    6MOL   C532 5342   2.530   6.232   6.677 -0.3181 -0.2303  0.1663
    6MOL   C533 5343   2.449   6.182   6.562  0.9012 -0.8368  0.3105
    6MOL   C534 5344   2.531   6.081   6.464 -0.3507  0.1532 -0.5755
    6MOL   C535 5345   2.475   6.060   6.330  0.6309  0.0717  0.7998
    6MOL   C536 5346   2.582   5.999   6.231 -0.0567  0.1061  0.6087
    6MOL   C537 5347   2.536   5.985   6.082 -0.1266 -0.3299 -0.2766
    6MOL   C538 5348   2.545   6.109   6.002 -0.2800 -0.5362  0.0090
    6MOL   C539 5349   2.529   6.101   5.850  0.1205 -0.1570  0.0040
    6MOL   C540 5350   2.491   6.230   5.781 -0.2651  0.6894  0.8631
    6MOL   O541 5351   2.501   6.216   5.643 -0.0177 -0.3737  0.7280
    6MOL   C542 5352   2.518   6.327   5.568 -0.3688  0.1166 -0.2227
    6MOL   O543 5353   2.511   6.440   5.619  0.3047  0.3409  0.7893
    6MOL   C544 5354   2.523   6.312   5.412  0.0810 -0.1811 -0.0902
    6MOL   C545 5355   2.666   6.321   5.357  0.2428 -0.1341  0.2296
    6MOL   C546 5356   2.692   6.477   5.339 -0.5728 -0.0661 -0.0836
    6MOL   C547 5357   2.836   6.503   5.299 -0.3348 -0.2699  0.6227
    6MOL   C548 5358   2.876   6.652   5.319 -0.6064 -0.0782  0.1618
    6MOL   O549 5359   2.860   6.736   5.229  0.3342  0.3035 -0.0583
    6MOL   H550 5360   2.487   6.442   6.657 -0.2786 -0.6050 -0.2961
    6MOL   H551 5361   2.562   6.397   6.803  1.3596  0.4349 -1.0809
    6MOL   H552 5362   2.549   6.160   6.757  0.3877 -1.0389 -0.7217
    6MOL   H553 5363   2.632   6.256   6.646 -0.4536 -0.1872 -0.2440
    6MOL   H554 5364   2.360   6.134   6.604  0.8856  0.0076  1.2491
    6MOL   H555 5365   2.414   6.267   6.503  0.0865  0.6532  2.8639
    6MOL   H556 5366   2.554   5.987   6.514  2.5186  0.2872 -1.5383
    6MOL   H557 5367   2.630   6.120   6.440  0.2899 -1.0160  0.1286
    6MOL   H558 5368   2.436   6.152   6.287  1.2249 -0.0310  0.0158
    6MOL   H559 5369   2.391   5.992   6.343  0.7291 -0.0639  0.7436
    6MOL   H560 5370   2.606   5.901   6.274 -1.8633 -0.6459 -0.0318
    6MOL   H561 5371   2.668   6.064   6.225 -0.0160 -0.0823 -1.1084
    6MOL   H562 5372   2.442   5.929   6.086  0.1308 -1.1571 -3.7910
    6MOL   H563 5373   2.598   5.905   6.042  1.4010  1.0813 -0.7568
    6MOL   H564 5374   2.639   6.155   6.031 -0.4003 -0.2094 -0.1150
    6MOL   H565 5375   2.466   6.181   6.024  0.6532  0.9085 -1.2156
    6MOL   H566 5376   2.622   6.060   5.811  0.4150 -0.6688  1.2093
    6MOL   H567 5377   2.455   6.021   5.842 -0.7094  0.4404  1.5157
    6MOL   H568 5378   2.553   6.314   5.810  2.1438 -0.2824 -1.3282
    6MOL   H569 5379   2.385   6.248   5.800 -0.2872  0.8941  0.5424
    6MOL   H570 5380   2.480   6.213   5.393  0.7303 -0.6012  0.5777
    6MOL   H571 5381   2.458   6.388   5.370  1.5761  0.9481 -0.3935
    6MOL   H572 5382   2.675   6.265   5.265  1.1722  0.2698  0.0664
    6MOL   H573 5383   2.744   6.286   5.424  0.4492 -0.5373 -0.2191
    6MOL   H574 5384   2.693   6.521   5.439 -0.7987 -2.1335  0.8548
    6MOL   H575 5385   2.625   6.532   5.273 -1.6976 -1.4594 -0.1252
    6MOL   H576 5386   2.852   6.472   5.195  0.0683  0.5290  0.4404
    6MOL   H577 5387   2.904   6.444   5.360  0.8790  2.3607  1.9028
    6MOL   O578 5388   2.921   6.689   5.438  0.0141 -0.0477  0.1830
    6MOL   C579 5389   2.917   6.826   5.485  0.2378 -0.3037 -0.0690
    6MOL   C580 5390   2.790   6.851   5.573  0.3803 -0.0709  0.6615
    6MOL   C581 5391   2.671   6.887   5.484  0.1207  0.1946 -0.0145
    6MOL   C582 5392   2.533   6.859   5.556 -0.0747  0.4057  0.6879
    6MOL   C583 5393   2.426   6.912   5.457 -0.0405  0.1755  0.0048
    6MOL   C584 5394   2.284   6.917   5.513 -0.0467  0.1715  0.0251
    6MOL   C585 5395   2.167   6.948   5.413  0.0051 -0.2232 -0.1485
    6MOL   C586 5396   2.167   7.089   5.348  0.2686 -0.0031 -0.6266
    6MOL   C587 5397   2.045   7.114   5.261 -0.8668  0.0048 -0.4971
    6MOL   C588 5398   1.916   7.136   5.344  0.2430 -0.4232 -0.0902
    6MOL   O589 5399   1.828   7.024   5.339 -0.0871 -0.4335 -0.1918
    6MOL   C590 5400   1.698   7.045   5.367 -0.0584  0.1677  0.2306
    6MOL   O591 5401   1.654   7.151   5.413 -0.4445 -0.1596 -0.4414
    6MOL   C592 5402   1.612   6.927   5.336 -0.4719 -0.6974  0.5008
    6MOL   C593 5403   1.603   6.896   5.186  0.7507  0.1368  0.8227
    6MOL   C594 5404   1.526   7.002   5.109  0.5343 -0.0370 -0.9050
    6MOL   C595 5405   1.475   6.947   4.973  0.2300  0.1224 -0.5880
    6MOL   C596 5406   1.403   7.046   4.881 -0.4069 -0.0483  0.1103
    6MOL   O597 5407   1.353   7.149   4.924  0.5360  0.3014  0.2612
    6MOL   H598 5408   2.992   6.830   5.564  2.4733 -0.6213 -2.1022
    6MOL   H599 5409   2.934   6.905   5.411 -1.3471 -1.3790 -1.6114
    6MOL   H600 5410   2.802   6.938   5.637 -2.7369  1.7973 -1.1818
    6MOL   H601 5411   2.759   6.758   5.620 -0.2889  0.1829  0.7255
    6MOL   H602 5412   2.678   6.983   5.433  0.7321 -0.8771 -2.0279
    6MOL   H603 5413   2.677   6.812   5.404 -1.2099  0.2831 -0.2086
    6MOL   H604 5414   2.512   6.922   5.642 -0.8664 -0.8086  1.4026
    6MOL   H605 5415   2.517   6.757   5.593  3.1937 -1.1687 -1.9431
    6MOL   H606 5416   2.431   6.857   5.363  1.1179 -1.1556  0.8212
    6MOL   H607 5417   2.444   7.018   5.441 -0.3047  0.0348 -1.3030
    6MOL   H608 5418   2.276   7.001   5.581  2.3969  0.4484 -0.0016
    6MOL   H609 5419   2.258   6.831   5.574 -1.4146  0.2174 -0.4628
    6MOL   H610 5420   2.073   6.945   5.468  0.2236 -0.3771  0.2163
    6MOL   H611 5421   2.161   6.870   5.337  1.1929 -1.1694  0.7198
    6MOL   H612 5422   2.253   7.112   5.286  0.7254 -1.5941 -0.6039
    6MOL   H613 5423   2.181   7.161   5.428  2.6649 -0.0465 -0.9571
    6MOL   H614 5424   2.048   7.197   5.190 -0.2145  0.0373 -0.4291
    6MOL   H615 5425   2.021   7.033   5.192  0.9054 -1.0324  0.1003
    6MOL   H616 5426   1.874   7.231   5.314 -1.9689 -1.2604  0.2511
    6MOL   H617 5427   1.950   7.138   5.448  4.2205  0.1020 -1.3433
    6MOL   H618 5428   1.657   6.848   5.397  0.4056 -1.2167 -0.7942
    6MOL   H619 5429   1.516   6.947   5.383 -0.5683  0.2575 -0.0938
    6MOL   H620 5430   1.542   6.807   5.173  1.8781 -0.4862 -0.1756
    6MOL   H621 5431   1.698   6.876   5.138  0.5956  1.1253  0.0908
    6MOL   H622 5432   1.595   7.083   5.085  1.5449 -0.2823  1.0037
    6MOL   H623 5433   1.443   7.044   5.166  0.6545  1.4749 -1.8233
    6MOL   H624 5434   1.397   6.878   5.007  0.4340 -0.6823 -1.7234
    6MOL   H625 5435   1.550   6.886   4.922 -0.6302 -1.2362 -0.2611
    6MOL   O626 5436   1.390   7.008   4.756  0.2157  0.1908  0.2100
    6MOL   C627 5437   1.328   7.082   4.652  0.3521 -0.1566 -0.5131
    6MOL   C628 5438   1.183   7.051   4.634  0.4333 -0.4773 -0.0347
    6MOL   C629 5439   1.148   6.901   4.614 -0.1352  0.0579 -0.7667
    6MOL   C630 5440   1.002   6.865   4.613  0.4640  0.2547 -0.4932
    6MOL   C631 5441   0.964   6.721   4.603 -0.6897  0.8684 -0.2416
    6MOL   C632 5442   1.011   6.625   4.711  0.2424  0.4190  0.1928
    6MOL   C633 5443   0.902   6.520   4.735 -0.1931  0.2237 -0.5744
    6MOL   C634 5444   0.954   6.406   4.819  0.3446  0.0250 -1.1938
    6MOL   C635 5445   1.031   6.288   4.751  0.4076 -1.2858  0.4041
    6MOL   C636 5446   1.099   6.189   4.849  0.3465 -0.3349  0.1706
    6MOL   O637 5447   1.142   6.085   4.764  0.0075 -0.3652 -0.5216
    6MOL   C638 5448   1.261   6.031   4.784  0.1663 -0.2413  0.9390
    6MOL   O639 5449   1.333   6.048   4.884 -0.5626  0.3789  0.5155
    6MOL   C640 5450   1.291   5.928   4.676  0.6372  0.1188 -0.0125
    6MOL   C641 5451   1.204   5.806   4.673  0.4491  0.9092  0.1903
    6MOL   C642 5452   1.275   5.679   4.635  0.1651 -0.3894  0.0290
    6MOL   C643 5453   1.185   5.553   4.645 -0.3792 -0.5525  0.3757
    6MOL   C644 5454   1.244   5.423   4.587  0.4769 -0.0297 -0.1612
    6MOL   O645 5455   1.201   5.382   4.472  0.3943 -0.4181 -0.2053
    6MOL   H646 5456   1.326   7.188   4.674 -0.0301 -0.6816  2.1720
    6MOL   H647 5457   1.390   7.058   4.565  0.4397 -0.6553 -0.3162
    6MOL   H648 5458   1.141   7.116   4.558  0.9951 -1.5474 -1.2752
    6MOL   H649 5459   1.140   7.091   4.726 -1.8918  0.8630 -1.6687
    6MOL   H650 5460   1.190   6.881   4.516  1.8869  0.6345 -0.0572
    6MOL   H651 5461   1.201   6.848   4.694  1.2999 -1.2265 -2.5358
    6MOL   H652 5462   0.960   6.912   4.525  0.5945 -0.0426 -0.7150
    6MOL   H653 5463   0.951   6.908   4.700  1.5272 -0.5584  0.5519
    6MOL   H654 5464   0.993   6.690   4.503  0.1853  1.3642 -0.1417
    6MOL   H655 5465   0.855   6.726   4.601 -0.8286 -0.0023  2.3233
    6MOL   H656 5466   1.023   6.681   4.803  0.0235 -1.0286  1.1135
    6MOL   H657 5467   1.099   6.566   4.686 -0.4659  0.3735 -2.3141
    6MOL   H658 5468   0.876   6.471   4.642  1.0547 -0.0602 -0.7784
    6MOL   H659 5469   0.819   6.571   4.784  0.9238  1.9429 -0.4300
    6MOL   H660 5470   0.864   6.352   4.849 -0.4148  1.3963 -0.9271
    6MOL   H661 5471   1.001   6.443   4.910  2.1735 -0.6284 -1.8610
    6MOL   H662 5472   0.970   6.242   4.674 -2.6905  1.0513  1.3935
    6MOL   H663 5473   1.124   6.333   4.715 -0.3815  0.8612  0.9661
    6MOL   H664 5474   1.043   6.143   4.930  0.1564  0.2545  0.3806
    6MOL   H665 5475   1.188   6.232   4.894  0.7678  1.8026 -2.5451
    6MOL   H666 5476   1.313   5.968   4.577  0.7402 -0.9007 -0.4128
    6MOL   H667 5477   1.390   5.899   4.712  0.2234  0.4187  1.4061
    6MOL   H668 5478   1.123   5.825   4.604 -0.3103 -1.4416  0.3864
    6MOL   H669 5479   1.167   5.784   4.773 -1.4524  1.7937 -0.3079
    6MOL   H670 5480   1.355   5.668   4.708 -0.3209 -2.3731  0.2958
    6MOL   H671 5481   1.319   5.687   4.535  1.1207 -0.6669  0.4216
    6MOL   H672 5482   1.090   5.577   4.597 -0.2709 -1.2878 -0.2251
    6MOL   H673 5483   1.173   5.532   4.751  0.3237 -1.7747  0.2204
    6MOL   O674 5484   1.340   5.370   4.659 -0.4711  0.4481  0.6446
    6MOL   C675 5485   1.406   5.262   4.619 -0.8273  0.2453  0.0044
    6MOL   C676 5486   1.330   5.142   4.694 -0.4063 -0.0036 -0.9204
    6MOL   C677 5487   1.405   5.014   4.678  0.3104 -0.5985 -0.0534
    6MOL   C678 5488   1.336   4.887   4.738 -0.4389 -0.9541  0.5036
    6MOL   C679 5489   1.421   4.755   4.744 -0.5541  0.2230  0.0643
    6MOL   C680 5490   1.444   4.699   4.610  0.5831 -0.5838  0.9780
    6MOL   C681 5491   1.459   4.542   4.629 -0.0773 -0.2870 -0.1630
    6MOL   C682 5492   1.491   4.474   4.499  0.0631  0.2297  0.0122
    6MOL   C683 5493   1.374   4.445   4.408  0.3316  0.0727 -0.5855
    6MOL   C684 5494   1.409   4.384   4.280 -0.2946  0.2033 -0.1760
    6MOL   O685 5495   1.441   4.245   4.299  0.8101  0.2667 -0.0213
    6MOL   C686 5496   1.533   4.181   4.222  0.2367 -0.7649 -0.0387
    6MOL   O687 5497   1.620   4.237   4.155 -0.5727  0.0149  0.0029
    6MOL   C688 5498   1.527   4.030   4.234 -0.0814  0.7933 -0.0723
    6MOL   C689 5499   1.502   3.961   4.100 -0.1116 -0.3882  0.5946
    6MOL   C690 5500   1.628   3.947   4.005 -0.5197 -0.2859  0.4735
    6MOL   C691 5501   1.598   3.848   3.889 -0.8690  0.1960 -0.4229
    6MOL   C692 5502   1.710   3.851   3.784 -0.1045  0.5197 -0.0055
    6MOL   O693 5503   1.800   3.771   3.791 -0.3416  0.2895  0.2104
    6MOL   H694 5504   1.424   5.245   4.512  0.9437 -0.1704  0.3459
    6MOL   H695 5505   1.506   5.269   4.661 -0.4531  1.8900 -1.1120
    6MOL   H696 5506   1.229   5.138   4.652 -0.0792  1.4625 -1.8836
    6MOL   H697 5507   1.330   5.176   4.798  2.3710  2.8330 -1.7594
    6MOL   H698 5508   1.416   4.995   4.571  0.0758 -1.7535  0.1216
    6MOL   H699 5509   1.502   5.032   4.723 -1.6904  1.7809  3.5847
    6MOL   H700 5510   1.246   4.862   4.682 -1.5100  2.1869  0.7335
    6MOL   H701 5511   1.297   4.916   4.836 -1.5549  0.6336 -0.3903
    6MOL   H702 5512   1.357   4.687   4.799 -0.5596  0.4538  0.3461
    6MOL   H703 5513   1.511   4.772   4.802 -0.5891 -0.6974  0.3950
    6MOL   H704 5514   1.538   4.730   4.564 -0.1956 -1.2940 -1.1521
    6MOL   H705 5515   1.368   4.733   4.540 -0.1243 -1.9603  1.0578
    6MOL   H706 5516   1.364   4.505   4.667  0.1034 -0.2409  0.3386
    6MOL   H707 5517   1.535   4.516   4.704  1.1734  1.0595 -0.9289
    6MOL   H708 5518   1.536   4.377   4.517  0.2474  0.5675  1.4078
    6MOL   H709 5519   1.563   4.536   4.445  0.7059 -0.3821  0.1664
    6MOL   H710 5520   1.298   4.385   4.458 -1.7611  1.1839 -2.4043
    6MOL   H711 5521   1.329   4.536   4.369 -1.1257 -1.1912 -1.9360
    6MOL   H712 5522   1.485   4.433   4.220 -0.2739 -0.4348 -0.6719
    6MOL   H713 5523   1.323   4.380   4.213 -0.3462  2.2225 -0.2456
    6MOL   H714 5524   1.620   3.985   4.271  0.3316  0.7121 -1.2002
    6MOL   H715 5525   1.456   4.007   4.314  2.8363  1.6596  2.9158
    6MOL   H716 5526   1.420   4.015   4.052 -0.2148 -0.8383  0.2671
    6MOL   H717 5527   1.453   3.865   4.114 -0.5824 -0.5228 -1.6914
    6MOL   H718 5528   1.716   3.913   4.059  0.0525 -0.5004 -0.5854
    6MOL   H719 5529   1.639   4.048   3.968 -1.3992 -0.6368 -0.7858
    6MOL   H720 5530   1.507   3.882   3.840 -1.3462  0.8499  0.8716
    6MOL   H721 5531   1.583   3.745   3.920 -2.3851  1.2168  2.4460
    6MOL   O722 5532   1.688   3.935   3.683  0.4920 -0.6866  0.5497
    6MOL   C723 5533   1.781   3.937   3.575 -0.0980 -0.1069 -1.1765
    6MOL   C724 5534   1.743   4.069   3.500 -0.0631 -0.1222  0.2330
    6MOL   C725 5535   1.776   4.192   3.581  0.2221  0.0215 -0.6716
    6MOL   C726 5536   1.733   4.320   3.519  0.0020 -0.2194  0.6484
    6MOL   C727 5537   1.794   4.440   3.592 -0.1993  0.1513 -0.2002
    6MOL   C728 5538   1.891   4.524   3.513 -0.3331  0.0343  0.5815
    6MOL   C729 5539   1.957   4.633   3.589  0.2770 -0.0044  0.7636
    6MOL   C730 5540   1.870   4.738   3.664 -0.6114 -0.0232 -0.3284
    6MOL   C731 5541   1.932   4.776   3.799  0.1635  0.0982  0.1521
    6MOL   C732 5542   1.842   4.867   3.874 -0.6886 -0.6123 -0.8224
    6MOL   O733 5543   1.864   4.998   3.815 -0.3951 -0.1268 -0.2800
    6MOL   C734 5544   1.761   5.072   3.766 -0.3727 -0.1230 -0.1010
    6MOL   O735 5545   1.639   5.034   3.744  0.2056 -0.5381  0.0335
    6MOL   C736 5546   1.809   5.219   3.740  0.0907  0.1140  0.6520
    6MOL   C737 5547   1.836   5.291   3.873 -0.4540  0.0073 -0.3007
    6MOL   C738 5548   1.710   5.338   3.949  0.0043  0.5328  0.7024
    6MOL   C739 5549   1.597   5.407   3.875  0.0052  0.0561 -0.1948
    6MOL   C740 5550   1.618   5.558   3.868 -0.4797  0.7458 -0.1623
    6MOL   O741 5551   1.619   5.630   3.962  0.1430 -0.2864  0.1411
    6MOL   H742 5552   1.884   3.928   3.609 -0.9289  1.8962  2.1361
    6MOL   H743 5553   1.761   3.843   3.524 -0.6285 -1.4604  1.4409
    6MOL   H744 5554   1.635   4.062   3.484  0.0987 -2.4739 -0.0056
    6MOL   H745 5555   1.803   4.088   3.411 -2.1645  1.1281 -0.9740
    6MOL   H746 5556   1.738   4.194   3.683  2.1120  1.3005  0.0406
    6MOL   H747 5557   1.884   4.187   3.592  0.4279  1.0730 -2.2092
    6MOL   H748 5558   1.625   4.330   3.535 -0.0580  0.1214  0.0695
    6MOL   H749 5559   1.764   4.323   3.414 -0.3367  0.5136  0.5619
    6MOL   H750 5560   1.844   4.411   3.684  0.0840  1.6035  0.1096
    6MOL   H751 5561   1.709   4.500   3.625 -0.3690 -0.4508  0.4570
    6MOL   H752 5562   1.841   4.554   3.420  1.0942 -2.0642 -0.9186
    6MOL   H753 5563   1.971   4.457   3.483 -0.1618 -0.1807  1.5109
    6MOL   H754 5564   2.029   4.684   3.525 -3.3062  1.5213 -2.2523
    6MOL   H755 5565   2.021   4.579   3.658 -0.2237 -1.2275  0.2761
    6MOL   H756 5566   1.767   4.704   3.676 -0.3371 -0.6772  0.2077
    6MOL   H757 5567   1.861   4.824   3.598 -1.1950  0.8804  0.9104
    6MOL   H758 5568   1.956   4.686   3.857  1.3148  0.1357 -0.2381
    6MOL   H759 5569   2.026   4.829   3.786  0.3513  0.2068  1.8175
    6MOL   H760 5570   1.887   4.875   3.973  0.2204 -1.7779 -1.1279
    6MOL   H761 5571   1.739   4.833   3.864 -1.3976  1.9369 -2.8132
    6MOL   H762 5572   1.906   5.203   3.694  1.1099 -0.4357  2.9373
    6MOL   H763 5573   1.750   5.278   3.671 -1.3311  0.3367  2.0218
    6MOL   H764 5574   1.897   5.378   3.849 -0.7387 -0.2746 -2.1669
    6MOL   H765 5575   1.890   5.228   3.943  0.2912  1.7216  0.7004
    6MOL   H766 5576   1.715   5.389   4.046  0.7921 -0.8456  1.4063
    6MOL   H767 5577   1.682   5.239   3.986  6.1046 -1.1477  1.4548
    6MOL   H768 5578   1.510   5.376   3.934  0.2387  2.6845  1.6155
    6MOL   H769 5579   1.593   5.379   3.770  0.6554 -1.8047  0.2504
    6MOL   O770 5580   1.657   5.592   3.745 -0.1135 -0.0413 -0.3465
    6MOL   C771 5581   1.663   5.726   3.710  0.2619 -0.1881  0.4658
    6MOL   C772 5582   1.691   5.743   3.563 -0.4031 -0.0744  0.2059
    6MOL   C773 5583   1.597   5.675   3.464 -0.3762 -0.0970 -0.0947
    6MOL   C774 5584   1.649   5.667   3.317 -0.2564 -0.6082  0.0391
    6MOL   C775 5585   1.684   5.802   3.258 -0.0668  0.3774  0.7757
    6MOL   C776 5586   1.714   5.801   3.106  0.0800  0.0202  0.1640
    6MOL   C777 5587   1.771   5.936   3.049 -0.2392 -0.3681  0.1051
    6MOL   C778 5588   1.771   5.921   2.898 -1.0778 -0.0457  0.3321
    6MOL   C779 5589   1.826   6.044   2.825 -0.3925  0.2463  0.5823
    6MOL   C780 5590   1.791   6.059   2.681  0.4263 -0.0867  0.6067
    6MOL   O781 5591   1.834   6.186   2.641  0.2882  0.7131  0.7451
    6MOL   C782 5592   1.751   6.281   2.600  0.3465 -0.2499  0.2799
    6MOL   O783 5593   1.623   6.273   2.606 -0.0964  0.3019 -0.4490
    6MOL   C784 5594   1.817   6.402   2.555  0.2184  0.1453 -0.7890
    6MOL   C785 5595   1.848   6.402   2.410  0.7476 -0.0339  0.1168
    6MOL   C786 5596   1.725   6.441   2.326 -0.1672  0.5101  0.0353
    6MOL   C787 5597   1.756   6.410   2.176 -0.3503  0.0963 -0.3094
    6MOL   C788 5598   1.634   6.432   2.082 -0.0626 -0.2990 -0.5345
    6MOL   O789 5599   1.527   6.475   2.118 -0.6449 -0.2230  0.0748
    6MOL   H790 5600   1.570   5.778   3.732 -0.6768 -0.5910 -2.3295
    6MOL   H791 5601   1.743   5.775   3.766 -0.1241  0.3403  0.5656
    6MOL   H792 5602   1.795   5.713   3.546 -0.6273  0.6555 -2.8162
    6MOL   H793 5603   1.683   5.848   3.532 -2.0959 -0.8361 -2.0300
    6MOL   H794 5604   1.583   5.571   3.494  0.7540 -0.4754 -0.8319
    6MOL   H795 5605   1.498   5.721   3.463 -1.2985 -1.8592  3.1516
    6MOL   H796 5606   1.565   5.615   3.273  0.4999  0.0512 -2.2373
    6MOL   H797 5607   1.737   5.604   3.305  2.0472  2.5227 -0.0872
    6MOL   H798 5608   1.759   5.863   3.309  0.1384  1.2232 -0.5202
    6MOL   H799 5609   1.592   5.856   3.281  0.4538  1.7599 -0.2879
    6MOL   H800 5610   1.613   5.787   3.067  0.2264 -0.2407 -0.1285
    6MOL   H801 5611   1.779   5.716   3.082  0.4380 -0.2739  2.1397
    6MOL   H802 5612   1.875   5.949   3.081 -0.5908  0.1706  1.0436
    6MOL   H803 5613   1.722   6.029   3.080 -1.3064 -0.9412  0.1597
    6MOL   H804 5614   1.668   5.899   2.868 -0.5910 -1.1584 -0.5531
    6MOL   H805 5615   1.831   5.838   2.862 -1.5134  0.2865 -1.1846
    6MOL   H806 5616   1.793   6.130   2.882 -0.8869 -0.6502  1.6707
    6MOL   H807 5617   1.934   6.031   2.823 -0.4411 -0.5121  2.2517
    6MOL   H808 5618   1.684   6.042   2.668  0.5544 -0.5078  0.0568
    6MOL   H809 5619   1.832   5.974   2.627 -2.2801 -1.3158  0.3742
    6MOL   H810 5620   1.745   6.483   2.567  1.1676  1.3936 -3.1069
    6MOL   H811 5621   1.911   6.421   2.608  0.9537  0.7934 -2.2808
    6MOL   H812 5622   1.874   6.300   2.384  0.5543  0.2265 -1.1226
    6MOL   H813 5623   1.937   6.465   2.407 -0.1712  1.2681 -0.3449
    6MOL   H814 5624   1.709   6.547   2.348 -0.9853  0.5840 -0.8756
    6MOL   H815 5625   1.642   6.384   2.367  0.8984 -1.0130  0.1322
    6MOL   H816 5626   1.793   6.308   2.167 -0.0347  0.2181 -0.4130
    6MOL   H817 5627   1.838   6.478   2.151  2.2797 -2.4032  1.2489
    6MOL   O818 5628   1.656   6.387   1.964 -0.3428  0.0703  0.0023
    6MOL   C819 5629   1.562   6.412   1.862 -0.0126 -0.6650  0.3464
    6MOL   C820 5630   1.615   6.357   1.735 -0.3545  0.1153  0.5862
    6MOL   C821 5631   1.503   6.363   1.628  0.1822  0.3255  0.3133
    6MOL   C822 5632   1.432   6.229   1.593 -0.4026  0.0864 -0.2987
    6MOL   C823 5633   1.527   6.125   1.526 -0.3712 -0.3895 -0.2996
    6MOL   C824 5634   1.565   6.151   1.378 -0.0320 -0.2833 -0.4372
    6MOL   C825 5635   1.456   6.143   1.266 -0.4616 -0.2503 -0.0162
    6MOL   C826 5636   1.504   6.120   1.116  0.2502 -0.5074 -0.6250
    6MOL   C827 5637   1.384   6.133   1.016  0.5727 -0.1257  0.2253
    6MOL   C828 5638   1.423   6.109   0.866 -0.4853  0.3320  0.1698
    6MOL   O829 5639   1.299   6.142   0.792 -0.2806 -0.8777 -0.1718
    6MOL   C830 5640   1.304   6.140   0.661 -0.0688  1.0060  0.1757
    6MOL   O831 5641   1.399   6.096   0.602 -0.7498 -0.2664 -0.5365
    6MOL   C832 5642   1.185   6.195   0.591  0.4160  0.2758 -0.5714
    6MOL   C833 5643   1.053   6.171   0.668  0.1616  0.1576  0.3466
    6MOL   C834 5644   0.930   6.180   0.583 -0.7868  0.2620  0.4721
    6MOL   C835 5645   0.802   6.123   0.630  0.3761 -0.1328 -0.4211
    6MOL   C836 5646   0.748   6.192   0.759 -0.6670 -0.0712  0.6235
    6MOL   O837 5647   0.807   6.281   0.824  0.2816  0.0528 -0.3227
    6MOL   H838 5648   1.467   6.364   1.886 -0.4862 -1.4850 -3.0137
    6MOL   H839 5649   1.543   6.518   1.845  2.6444  0.1577  2.2083
    6MOL   H840 5650   1.649   6.256   1.760  0.9809  0.6684  1.0517
    6MOL   H841 5651   1.701   6.414   1.701 -0.2991  0.5162  1.3747
    6MOL   H842 5652   1.425   6.435   1.655 -1.1532  0.1385 -2.7854
    6MOL   H843 5653   1.531   6.402   1.530  0.5351  1.1748  0.7437
    6MOL   H844 5654   1.355   6.259   1.522 -0.0126 -1.2821 -1.3275
    6MOL   H845 5655   1.405   6.185   1.689  0.7148  0.8477  0.3660
    6MOL   H846 5656   1.474   6.029   1.534 -0.7931 -0.0395  1.3418
    6MOL   H847 5657   1.624   6.118   1.575  0.8129 -0.4441 -2.6107
    6MOL   H848 5658   1.647   6.082   1.359 -0.5151 -0.6116 -1.3786
    6MOL   H849 5659   1.611   6.250   1.371  0.8440 -0.6088  0.6709
    6MOL   H850 5660   1.387   6.227   1.275 -0.1116 -0.1282  1.6057
    6MOL   H851 5661   1.392   6.059   1.291 -0.0880 -0.0242  1.7505
    6MOL   H852 5662   1.560   6.027   1.105  0.2645 -0.4085 -1.4073
    6MOL   H853 5663   1.582   6.191   1.088 -0.6415  0.3949 -0.8434
    6MOL   H854 5664   1.305   6.063   1.043 -0.4137  1.5238  1.7817
    6MOL   H855 5665   1.336   6.231   1.022 -0.4609 -0.6682  0.8645
    6MOL   H856 5666   1.447   6.006   0.843  0.2099  0.3310  0.8641
    6MOL   H857 5667   1.503   6.179   0.840 -0.1238  0.2215  0.9554
    6MOL   H858 5668   1.195   6.302   0.571 -3.0943  1.2769  2.2875
    6MOL   H859 5669   1.198   6.141   0.498 -0.0179 -0.6681 -0.0910
    6MOL   H860 5670   1.051   6.231   0.759  0.4455  0.6949  0.0074
    6MOL   H861 5671   1.063   6.068   0.700  3.9249 -0.2406 -1.8271
    6MOL   H862 5672   0.958   6.154   0.482 -0.5835  1.1231  0.3031
    6MOL   H863 5673   0.923   6.289   0.582  1.9461  0.4718 -2.1944
    6MOL   H864 5674   0.815   6.017   0.649  1.0973 -0.0514 -0.4804
    6MOL   H865 5675   0.720   6.138   0.559  1.2988  3.0139 -0.8963
    6MOL   O866 5676   0.629   6.144   0.790  0.0652 -0.2889 -0.9266
    6MOL   C867 5677   0.560   6.204   0.902 -0.3388  0.3557  0.0014
    6MOL   C868 5678   0.606   6.158   1.043  0.8940 -0.0824 -0.0158
    6MOL   C869 5679   0.509   6.222   1.151  0.5285 -0.3498 -0.6766
    6MOL   C870 5680   0.524   6.151   1.288  0.4538  0.4869  0.0510
    6MOL   C871 5681   0.667   6.162   1.346 -0.2948 -0.2001 -0.3340
    6MOL   C872 5682   0.683   6.113   1.491  1.0299  0.4143  0.6733
    6MOL   C873 5683   0.825   6.117   1.544 -0.3613 -0.9051 -0.0578
    6MOL   C874 5684   0.882   6.260   1.569 -0.3051  0.0860 -0.7513
    6MOL   C875 5685   1.024   6.253   1.626 -0.0832  0.3174 -0.3260
    6MOL   C876 5686   1.083   6.386   1.661  0.1910  0.3212 -0.4941
    6MOL   O877 5687   1.154   6.438   1.547  0.2091  0.2063  0.3819
    6MOL   C878 5688   1.104   6.529   1.461 -0.3568 -0.0082 -0.6654
    6MOL   O879 5689   1.010   6.607   1.480  0.2069  0.1405 -0.1227
    6MOL   C880 5690   1.193   6.544   1.338  0.0277  0.3392 -0.4815
    6MOL   C881 5691   1.166   6.437   1.234  0.3077  0.5096 -0.3745
    6MOL   C882 5692   1.025   6.427   1.184  0.0859  0.9079  0.1488
    6MOL   C883 5693   1.025   6.308   1.075  0.8297 -0.0399 -0.0398
    6MOL   C884 5694   1.024   6.165   1.125  0.9364  1.0193 -0.1050
    6MOL   O885 5695   1.022   6.130   1.243 -0.0039 -0.7837  0.2783
    6MOL   H886 5696   0.554   6.312   0.884  2.2076  0.1056 -2.5935
    6MOL   H887 5697   0.456   6.173   0.887  0.2496 -1.7065  0.0599
    6MOL   H888 5698   0.712   6.177   1.057  1.2359 -1.8427 -0.1758
    6MOL   H889 5699   0.598   6.050   1.047 -4.6786  0.1926  0.7676
    6MOL   H890 5700   0.520   6.331   1.159 -0.5393 -0.4392  2.8836
    6MOL   H891 5701   0.407   6.208   1.116  0.7188 -0.1796 -1.3077
    6MOL   H892 5702   0.500   6.046   1.277 -0.7158  0.7110  0.4881
    6MOL   H893 5703   0.453   6.193   1.359 -0.2701 -0.8389  0.1147
    6MOL   H894 5704   0.706   6.262   1.330 -0.0905 -0.3935 -1.0413
    6MOL   H895 5705   0.726   6.095   1.284  0.5987  0.0375  0.2480
    6MOL   H896 5706   0.642   6.013   1.503  0.5863  0.6527  1.1808
    6MOL   H897 5707   0.623   6.184   1.549  1.4652  0.4285  1.1040
    6MOL   H898 5708   0.894   6.049   1.495 -1.1767 -0.2890 -2.1265
    6MOL   H899 5709   0.820   6.085   1.649  1.8347 -1.9539 -0.2545
    6MOL   H900 5710   0.825   6.326   1.634  1.5675 -0.7851  1.8429
    6MOL   H901 5711   0.892   6.315   1.476 -0.3780  0.7771 -0.3513
    6MOL   H902 5712   1.024   6.190   1.716  1.8930 -0.9004 -1.1385
    6MOL   H903 5713   1.074   6.200   1.545 -0.9119  1.2632 -1.4464
    6MOL   H904 5714   1.140   6.384   1.754  0.8119 -0.2501 -0.8796
    6MOL   H905 5715   1.009   6.464   1.679  0.4183  0.4449 -0.0783
    6MOL   H906 5716   1.169   6.642   1.295 -1.2492  1.8727  3.5601
    6MOL   H907 5717   1.299   6.549   1.362 -0.4910  1.5386  1.6242
    6MOL   H908 5718   1.200   6.338   1.263 -0.8499 -0.4933 -2.3333
    6MOL   H909 5719   1.229   6.461   1.148 -0.8205  1.8188 -0.8521
    6MOL   H910 5720   0.995   6.517   1.131  0.2567  0.4340 -0.7544
    6MOL   H911 5721   0.950   6.400   1.258 -1.1017 -1.5171 -1.8747
    6MOL   H912 5722   1.090   6.321   0.988 -0.6292 -1.5836 -1.3910
    6MOL   H913 5723   0.924   6.307   1.034  0.6858 -0.8154  0.3319
    6MOL   O914 5724   1.044   6.079   1.025  0.2110  0.3330  0.0006
    6MOL   C915 5725   1.049   5.938   1.043 -0.5113  0.5278 -0.3442
    6MOL   C916 5726   0.933   5.870   0.967  0.6303 -0.0687  0.5310
    6MOL   C917 5727   0.959   5.718   0.947 -0.0076 -0.7784  0.4679
    6MOL   C918 5728   0.851   5.635   0.876  0.0506  1.5022  0.8464
    6MOL   C919 5729   0.882   5.596   0.727  0.6637 -0.1763  0.4657
    6MOL   C920 5730   0.771   5.533   0.644  0.0757 -0.0200 -0.0639
    6MOL   C921 5731   0.814   5.503   0.504  0.4819  0.1561 -0.7725
    6MOL   C922 5732   0.711   5.408   0.433  0.3747  0.0324 -0.5993
    6MOL   C923 5733   0.769   5.366   0.297  0.3884 -0.4649 -0.5400
    6MOL   C924 5734   0.669   5.282   0.222 -0.5074 -0.2230  0.7804
    6MOL   O925 5735   0.654   5.157   0.286  0.4369 -0.3692 -0.6080
    6MOL   C926 5736   0.555   5.075   0.244  0.4043 -0.2452 -0.7066
    6MOL   O927 5737   0.472   5.094   0.157 -0.2390  0.2381 -0.0330
    6MOL   C928 5738   0.557   4.950   0.331  0.4034 -0.5799  0.1206
    6MOL   C929 5739   0.521   4.991   0.472  0.2362 -0.2516 -0.0507
    6MOL   C930 5740   0.505   4.860   0.565 -0.0822 -0.3955  0.2812
    6MOL   C931 5741   0.477   4.900   0.716 -0.5407  0.0360  0.2960
    6MOL   C932 5742   0.328   4.916   0.737  0.4389 -0.8665 -0.2215
    6MOL   O933 5743   0.278   4.891   0.844  0.0858 -0.2766  0.4103
    6MOL   H934 5744   1.146   5.912   0.999 -0.4223  2.6428 -1.4800
    6MOL   H935 5745   1.053   5.910   1.148  0.7466 -0.8983 -0.7531
    6MOL   H936 5746   0.915   5.924   0.874 -0.0992  0.4273  0.9560
    6MOL   H937 5747   0.841   5.874   1.024  0.2041  1.2549 -0.2261
    6MOL   H938 5748   1.057   5.706   0.901 -1.1575 -0.3825 -2.1633
    6MOL   H939 5749   0.978   5.687   1.050  0.4317 -0.6101  0.4370
    6MOL   H940 5750   0.757   5.691   0.871 -0.9634 -0.2654 -0.4615
    6MOL   H941 5751   0.824   5.549   0.937  1.1017  1.1255  0.7985
    6MOL   H942 5752   0.978   5.547   0.719  0.8837 -0.0652  2.1635
    6MOL   H943 5753   0.911   5.688   0.677 -2.2883  1.5310  1.7381
    6MOL   H944 5754   0.685   5.598   0.632 -0.5170 -0.9333 -0.8166
    6MOL   H945 5755   0.741   5.446   0.703  0.9699 -1.3293 -1.4905
    6MOL   H946 5756   0.906   5.444   0.499  0.6904  0.5578 -2.1857
    6MOL   H947 5757   0.840   5.598   0.458  0.9195 -0.0832 -1.0267
    6MOL   H948 5758   0.620   5.467   0.428 -0.9922 -2.0053 -0.3375
    6MOL   H949 5759   0.688   5.326   0.502 -0.7043  2.2480  1.7485
    6MOL   H950 5760   0.801   5.439   0.223  1.4288  1.5995  1.8862
    6MOL   H951 5761   0.858   5.305   0.313  1.7576  1.3466 -1.1533
    6MOL   H952 5762   0.709   5.262   0.123 -1.4128 -0.3130  0.4334
    6MOL   H953 5763   0.573   5.334   0.222 -0.9342 -0.9971 -0.4696
    6MOL   H954 5764   0.479   4.887   0.290 -1.0448  2.1619 -1.4571
    6MOL   H955 5765   0.654   4.901   0.346  0.4868 -0.5827 -0.4287
    6MOL   H956 5766   0.424   5.040   0.467  0.3112  0.2620  2.8411
    6MOL   H957 5767   0.590   5.067   0.511 -0.1437  0.3269 -0.5020
    6MOL   H958 5768   0.599   4.807   0.546  1.6621  1.8111  2.4719
    6MOL   H959 5769   0.427   4.796   0.524 -2.0943  1.7669  0.6381
    6MOL   H960 5770   0.517   4.997   0.747 -3.1183  1.9252 -1.9604
    6MOL   H961 5771   0.523   4.829   0.784 -3.0200 -2.3494 -0.4420
    6MOL   H962 5772   0.278   4.943   0.644 -0.5112  0.5728  0.6885
    7MOL     O1 5773   6.513   6.700   3.054 -0.1599  0.9047  0.1199
    7MOL     C2 5774   6.483   6.653   2.925 -0.1430 -0.7492 -0.6410
    7MOL     C3 5775   6.456   6.503   2.932 -0.0575 -0.1647 -0.7383
    7MOL     C4 5776   6.446   6.440   2.799 -0.0503  0.3486 -0.3746
    7MOL     C5 5777   6.472   6.288   2.776 -0.0004 -0.0948  0.2980
    7MOL     C6 5778   6.354   6.193   2.822  0.3015  0.4054  0.0935
    7MOL     C7 5779   6.384   6.044   2.817  0.1100 -0.4603  0.0638
    7MOL     C8 5780   6.384   5.990   2.671  0.5772 -0.4150  0.3646
    7MOL     C9 5781   6.435   5.842   2.667  0.1852 -0.6026  0.2666
    7MOL    C10 5782   6.320   5.740   2.702 -0.4397 -0.2461  0.0109
    7MOL    C11 5783   6.365   5.595   2.704  0.0770  0.1248  0.1808
    7MOL    O12 5784   6.248   5.507   2.698  0.0984  0.0142 -0.7383
    7MOL    C13 5785   6.265   5.371   2.684  0.7744 -0.5869  0.3188
    7MOL    O14 5786   6.364   5.300   2.696 -0.7981  0.0040 -0.1108
    7MOL    C15 5787   6.132   5.301   2.665  0.0630  0.1453 -0.1738
    7MOL    C16 5788   6.147   5.163   2.612  0.2555 -0.8010  0.6409
    7MOL    C17 5789   6.016   5.095   2.629  0.2563 -0.6084  0.9706
    7MOL    C18 5790   6.010   4.957   2.546  0.2488 -0.2126 -0.3235
    7MOL    C19 5791   5.867   4.905   2.554  0.5020 -0.2889 -0.5568
    7MOL    O20 5792   5.832   4.815   2.624 -0.0377 -0.3002  0.6908
    7MOL    H21 5793   6.389   6.700   2.896 -0.8149 -0.7808  1.4232
    7MOL    H22 5794   6.564   6.675   2.855  0.1569  3.8418  0.9992
    7MOL    H23 5795   6.375   6.497   3.004  1.7377 -0.3110  1.3242
    7MOL    H24 5796   6.539   6.448   2.976 -0.8999 -2.0597 -1.4827
    7MOL    H25 5797   6.348   6.469   2.761  0.0419  0.2999 -0.6487
    7MOL    H26 5798   6.521   6.490   2.738 -1.6723  2.0695 -0.9867
    7MOL    H27 5799   6.562   6.269   2.836  0.7129 -0.8508 -0.9865
    7MOL    H28 5800   6.495   6.263   2.672 -2.1144 -2.2327  0.2981
    7MOL    H29 5801   6.270   6.207   2.755  1.9367 -0.1216 -2.1185
    7MOL    H30 5802   6.327   6.211   2.926  0.5964 -2.7250  0.7843
    7MOL    H31 5803   6.308   5.987   2.873 -0.1052 -1.5891 -1.3502
    7MOL    H32 5804   6.481   6.026   2.862 -0.6106 -0.4697  1.6930
    7MOL    H33 5805   6.443   6.059   2.611  0.7937 -1.4597 -0.6413
    7MOL    H34 5806   6.286   5.992   2.625  1.5780  0.7459 -1.7503
    7MOL    H35 5807   6.523   5.833   2.731 -0.8219 -0.5506  1.6924
    7MOL    H36 5808   6.479   5.836   2.568  1.9514 -1.9021  1.0964
    7MOL    H37 5809   6.289   5.764   2.804 -1.3608  0.9033 -0.5333
    7MOL    H38 5810   6.229   5.758   2.646 -0.1877 -3.1747 -1.4302
    7MOL    H39 5811   6.440   5.574   2.779  0.6833 -2.3004 -1.0301
    7MOL    H40 5812   6.417   5.575   2.610  0.4979  0.4754  0.3407
    7MOL    H41 5813   6.079   5.283   2.759 -1.9451 -1.2983 -1.5309
    7MOL    H42 5814   6.062   5.368   2.616  0.4061  1.5534  1.2085
    7MOL    H43 5815   6.221   5.103   2.666  2.5259  1.3825  0.0398
    7MOL    H44 5816   6.177   5.168   2.508 -0.3336 -1.7192  0.4185
    7MOL    H45 5817   5.950   5.166   2.580  0.9294 -2.8205 -3.3700
    7MOL    H46 5818   5.996   5.087   2.736 -1.3557 -1.8500  0.5887
    7MOL    H47 5819   6.077   4.882   2.588 -0.7254 -1.7845 -1.5174
    7MOL    H48 5820   6.030   4.981   2.442  1.8930  1.7206  0.4117
    7MOL    H49 5821   6.432   6.726   3.095 -0.1554  1.6050 -0.3162
    7MOL    O50 5822   5.787   4.990   2.489 -0.3062 -0.2995 -0.0234
    7MOL    C51 5823   5.651   4.949   2.474  0.0407  0.3248  0.1887
    7MOL    C52 5824   5.561   4.976   2.594  0.7314  0.2913 -0.1612
    7MOL    C53 5825   5.422   4.922   2.584  0.1923  0.6945  0.3461
    7MOL    C54 5826   5.328   4.986   2.683  0.3812  0.3024  0.1975
    7MOL    C55 5827   5.177   4.951   2.679  0.9106  0.3438  0.1552
    7MOL    C56 5828   5.095   5.003   2.793 -0.5873  0.4174  0.6684
    7MOL    C57 5829   4.953   4.954   2.806 -0.6003  0.2369 -0.1234
    7MOL    C58 5830   4.864   5.006   2.689  0.4651 -0.0438 -0.4635
    7MOL    C59 5831   4.721   4.952   2.677 -0.3822 -1.2933  0.1355
    7MOL    C60 5832   4.649   5.001   2.555  0.5134  0.2102  0.0363
    7MOL    O61 5833   4.533   4.917   2.542 -0.2285 -0.0623  0.2435
    7MOL    C62 5834   4.425   4.958   2.493  0.7074 -0.1584 -0.4095
    7MOL    O63 5835   4.406   5.069   2.437 -0.1838 -0.1256  0.3365
    7MOL    C64 5836   4.307   4.867   2.525  0.8476  0.1279  0.0018
    7MOL    C65 5837   4.181   4.945   2.589  0.3024 -0.1395 -0.1394
    7MOL    C66 5838   4.097   4.851   2.675 -0.0884  0.6463  0.4146
    7MOL    C67 5839   4.042   4.728   2.604 -0.7281 -0.0017  0.0401
    7MOL    C68 5840   3.931   4.747   2.497 -0.6259 -0.2655  0.1629
    7MOL    O69 5841   3.815   4.766   2.519 -0.0379  0.3343 -0.4372
    7MOL    H70 5842   5.622   5.016   2.393 -0.5023 -0.5717 -0.3632
    7MOL    H71 5843   5.624   4.849   2.439 -2.2250  1.3860 -1.1945
    7MOL    H72 5844   5.567   5.084   2.590  1.9503  0.3137  1.5816
    7MOL    H73 5845   5.609   4.940   2.685 -3.3981 -1.8556  1.2694
    7MOL    H74 5846   5.393   4.930   2.480  4.3565 -2.6525 -1.2261
    7MOL    H75 5847   5.429   4.814   2.599 -2.1192  0.4747 -0.0900
    7MOL    H76 5848   5.324   5.094   2.668 -1.9879  0.2556  0.3107
    7MOL    H77 5849   5.365   4.975   2.785  1.8884 -0.1980 -0.3948
    7MOL    H78 5850   5.175   4.843   2.673  0.3877  0.3391  0.3991
    7MOL    H79 5851   5.138   4.986   2.583  1.1959  2.1859  0.6781
    7MOL    H80 5852   5.107   5.111   2.795 -1.5672  0.5795 -1.3370
    7MOL    H81 5853   5.146   4.964   2.881  0.0253 -0.7633 -0.1899
    7MOL    H82 5854   4.904   4.988   2.897 -2.2839 -2.2968 -0.0584
    7MOL    H83 5855   4.936   4.848   2.821  1.3113 -0.2856 -1.4274
    7MOL    H84 5856   4.921   4.983   2.599  2.1062 -0.5719  0.6713
    7MOL    H85 5857   4.871   5.115   2.692 -1.8488  0.1141  0.7521
    7MOL    H86 5858   4.716   4.844   2.694 -0.8281 -1.2662  0.1904
    7MOL    H87 5859   4.668   4.992   2.765  0.4235 -1.4097  0.6758
    7MOL    H88 5860   4.706   4.970   2.467 -0.6130  0.8969 -0.9433
    7MOL    H89 5861   4.623   5.106   2.558  1.4055  0.4292  0.1778
    7MOL    H90 5862   4.267   4.813   2.439  0.3194  0.5267 -0.0013
    7MOL    H91 5863   4.330   4.789   2.598  2.2979 -0.8211 -1.4263
    7MOL    H92 5864   4.135   4.992   2.502  1.0695 -3.0646 -2.2182
    7MOL    H93 5865   4.212   5.026   2.655 -0.4533  0.0271  0.0187
    7MOL    H94 5866   4.004   4.901   2.702 -0.5269  0.6196 -1.0046
    7MOL    H95 5867   4.143   4.814   2.766 -0.8118 -1.4418 -0.0247
    7MOL    H96 5868   4.002   4.678   2.692 -0.4838 -0.5211 -0.1443
    7MOL    H97 5869   4.128   4.676   2.564  1.8612  1.6945  3.1658
    7MOL    O98 5870   3.981   4.737   2.372  0.0840  0.3509  0.3484
    7MOL    C99 5871   3.901   4.780   2.264  0.4505  0.0296 -0.3192
    7MOL   C100 5872   3.902   4.929   2.235 -0.7027  1.0445 -0.2138
    7MOL   C101 5873   4.041   5.003   2.200 -0.2718  0.1786 -0.4679
    7MOL   C102 5874   4.089   4.978   2.054  0.4837 -0.5358 -0.7567
    7MOL   C103 5875   4.231   5.042   2.034  0.7578 -0.1712 -0.0355
    7MOL   C104 5876   4.352   4.971   2.098 -0.0966  0.2768 -0.6305
    7MOL   C105 5877   4.487   5.037   2.060  0.3978  0.1959 -0.1693
    7MOL   C106 5878   4.611   4.991   2.139 -0.2411 -0.6822 -0.3415
    7MOL   C107 5879   4.733   5.087   2.125  0.5952  0.2693 -0.1487
    7MOL   C108 5880   4.856   5.035   2.202 -0.1274  0.0470 -0.4027
    7MOL   O109 5881   4.974   5.109   2.182  0.3082 -0.4310 -0.1057
    7MOL   C110 5882   5.017   5.191   2.278 -0.2146 -0.3359  0.4140
    7MOL   O111 5883   4.959   5.213   2.382 -0.5559 -0.1995 -0.4875
    7MOL   C112 5884   5.157   5.248   2.258  0.3951  0.2854 -0.7456
    7MOL   C113 5885   5.255   5.142   2.305 -0.7658 -0.6517 -0.9889
    7MOL   C114 5886   5.382   5.155   2.221 -1.0095  0.1107  0.5949
    7MOL   C115 5887   5.454   5.290   2.238  0.5353  0.2553  0.6604
    7MOL   C116 5888   5.580   5.305   2.150 -0.9380  0.0489  0.0718
    7MOL   O117 5889   5.580   5.288   2.026  0.3918 -0.8800 -0.1960
    7MOL   H118 5890   3.929   4.733   2.169  0.0948 -0.8471 -0.0001
    7MOL   H119 5891   3.807   4.727   2.279  1.3510 -0.7928  2.6944
    7MOL   H120 5892   3.863   4.968   2.329 -2.2154 -2.4349  0.6762
    7MOL   H121 5893   3.829   4.949   2.157  0.5781 -0.0737 -1.7334
    7MOL   H122 5894   4.018   5.108   2.221  1.3808 -0.1304  3.2951
    7MOL   H123 5895   4.122   4.976   2.268 -2.7373 -0.9478  2.1125
    7MOL   H124 5896   4.016   5.014   1.982  0.4130  0.0244 -0.4055
    7MOL   H125 5897   4.101   4.870   2.045 -1.9839 -0.7918 -1.3271
    7MOL   H126 5898   4.228   5.148   2.059  1.5134  0.0573 -0.8877
    7MOL   H127 5899   4.247   5.029   1.927  1.5953  0.3492  0.0209
    7MOL   H128 5900   4.352   4.867   2.067  2.0801  0.1815 -0.4024
    7MOL   H129 5901   4.343   4.970   2.206 -0.6931 -0.6308 -0.6854
    7MOL   H130 5902   4.469   5.143   2.076  0.5262  0.2311 -0.2589
    7MOL   H131 5903   4.511   5.030   1.954 -1.1830  1.1066 -0.6026
    7MOL   H132 5904   4.635   4.886   2.121  2.6879 -0.4287  1.7090
    7MOL   H133 5905   4.586   4.997   2.245 -3.3095 -0.7375 -1.0066
    7MOL   H134 5906   4.747   5.094   2.017  0.4051  0.9646 -0.1296
    7MOL   H135 5907   4.702   5.180   2.173  1.9897  0.2223  0.8905
    7MOL   H136 5908   4.886   4.933   2.178  0.9534  0.1298  0.5725
    7MOL   H137 5909   4.822   5.035   2.305 -0.9515  0.7564 -0.6617
    7MOL   H138 5910   5.173   5.258   2.151 -0.1852 -4.1499 -1.3573
    7MOL   H139 5911   5.177   5.340   2.313  2.3878  0.1818 -1.2697
    7MOL   H140 5912   5.219   5.041   2.286 -1.6092 -0.0289 -2.7751
    7MOL   H141 5913   5.271   5.144   2.413  0.3934 -0.3263 -1.1648
    7MOL   H142 5914   5.370   5.132   2.115 -0.7926 -1.9492  1.0104
    7MOL   H143 5915   5.448   5.075   2.254  1.9978  2.3834  0.2956
    7MOL   H144 5916   5.474   5.301   2.345  0.6929  0.7157  0.5862
    7MOL   H145 5917   5.385   5.369   2.209 -1.0273 -1.7771 -1.3175
    7MOL   O146 5918   5.689   5.318   2.220 -0.3823  0.2732  0.4338
    7MOL   C147 5919   5.811   5.324   2.152  0.2235  0.1809 -0.1939
    7MOL   C148 5920   5.926   5.329   2.252  0.6230 -0.1363 -0.1763
    7MOL   C149 5921   6.058   5.363   2.189  0.0473  0.1369 -0.1079
    7MOL   C150 5922   6.178   5.336   2.289 -0.5125 -0.2819  0.0482
    7MOL   C151 5923   6.310   5.360   2.220  0.1998 -0.9429  0.3524
    7MOL   C152 5924   6.432   5.354   2.310 -0.6893  0.1597  0.4384
    7MOL   C153 5925   6.457   5.219   2.359  0.3019 -0.4933 -0.3554
    7MOL   C154 5926   6.600   5.217   2.419  0.2993  0.0575 -0.1354
    7MOL   C155 5927   6.634   5.078   2.490 -0.3464 -0.0408 -0.6079
    7MOL   C156 5928   6.581   5.068   2.634  0.0381  0.0938 -0.6623
    7MOL   O157 5929   6.632   4.950   2.703 -0.2379 -0.2053  0.0076
    7MOL   C158 5930   6.594   4.830   2.674  0.3241 -0.0800 -0.0774
    7MOL   O159 5931   6.504   4.809   2.587 -0.1206  0.1469 -0.5287
    7MOL   C160 5932   6.667   4.717   2.756  0.5645 -0.2521  0.2514
    7MOL   C161 5933   6.624   4.580   2.705  0.7322 -0.7380  0.2884
    7MOL   C162 5934   6.686   4.463   2.779  0.8270 -0.5873 -0.4688
    7MOL   C163 5935   6.636   4.317   2.748  0.0361 -0.1370 -0.4781
    7MOL   C164 5936   6.670   4.273   2.609  0.0195 -0.0291 -0.1232
    7MOL   O165 5937   6.788   4.256   2.583 -0.3571 -0.5383  0.0245
    7MOL   H166 5938   5.819   5.241   2.082  0.1472 -0.5364  0.6370
    7MOL   H167 5939   5.813   5.414   2.091  2.6916 -0.9192 -1.8341
    7MOL   H168 5940   5.930   5.236   2.309  1.5766 -0.5052 -0.8339
    7MOL   H169 5941   5.909   5.405   2.329  1.4888  1.7152 -1.7822
    7MOL   H170 5942   6.069   5.305   2.097 -0.7854 -0.2576  0.0344
    7MOL   H171 5943   6.063   5.465   2.151  1.1967 -0.2628 -1.0745
    7MOL   H172 5944   6.160   5.232   2.318  1.3612 -1.2687 -2.2055
    7MOL   H173 5945   6.182   5.397   2.379 -0.1586  1.2582 -0.9961
    7MOL   H174 5946   6.307   5.463   2.185  0.2789 -0.3560  2.0196
    7MOL   H175 5947   6.320   5.298   2.131  0.2805  0.3392 -0.5408
    7MOL   H176 5948   6.423   5.417   2.398  0.3837  0.0494  0.6388
    7MOL   H177 5949   6.516   5.393   2.251  0.1050 -1.3113  0.5660
    7MOL   H178 5950   6.438   5.142   2.285 -0.6712  1.2401 -1.9295
    7MOL   H179 5951   6.382   5.202   2.437 -0.7694 -1.5000 -1.5816
    7MOL   H180 5952   6.603   5.293   2.497  0.7428 -0.3989  0.2882
    7MOL   H181 5953   6.664   5.243   2.334 -2.3196 -0.9968 -2.5294
    7MOL   H182 5954   6.597   4.995   2.429  1.8752 -2.4096  1.1306
    7MOL   H183 5955   6.742   5.061   2.488 -0.4915 -1.2029  0.4379
    7MOL   H184 5956   6.472   5.071   2.638  0.0346 -1.2577  0.7026
    7MOL   H185 5957   6.619   5.161   2.677 -0.8433  1.2459 -2.3058
    7MOL   H186 5958   6.774   4.721   2.734  0.7177 -0.8446  0.8387
    7MOL   H187 5959   6.636   4.724   2.860 -1.6987  0.8392 -0.4725
    7MOL   H188 5960   6.636   4.584   2.597  0.7014  1.3068  0.3316
    7MOL   H189 5961   6.517   4.563   2.721  0.2480  0.8534 -1.1108
    7MOL   H190 5962   6.696   4.480   2.886  0.1981 -1.2411 -0.3071
    7MOL   H191 5963   6.785   4.464   2.734  0.8377  1.7402 -0.4457
    7MOL   H192 5964   6.528   4.316   2.755  0.0599  1.2380  0.1915
    7MOL   H193 5965   6.684   4.253   2.823  0.5178 -0.9570 -1.4674
    7MOL   O194 5966   6.565   4.280   2.528 -0.1826 -0.3169  0.3549
    7MOL   C195 5967   6.583   4.271   2.386  0.4699  0.0466 -0.2447
    7MOL   C196 5968   6.461   4.314   2.313 -0.8777 -0.0013 -0.0900
    7MOL   C197 5969   6.452   4.466   2.300 -0.1215 -0.4785  0.4000
    7MOL   C198 5970   6.312   4.523   2.279  0.2774  0.0246 -0.2001
    7MOL   C199 5971   6.300   4.681   2.290  0.1649  0.3028 -0.4109
    7MOL   C200 5972   6.291   4.754   2.155 -0.0129 -0.1926  0.1691
    7MOL   C201 5973   6.313   4.908   2.164  0.3188  0.5443  0.8076
    7MOL   C202 5974   6.303   4.981   2.030 -0.1660 -0.2413 -0.6393
    7MOL   C203 5975   6.163   5.035   2.013  0.0764 -0.4844  0.4428
    7MOL   C204 5976   6.147   5.125   1.896 -0.1984 -0.0515  0.2146
    7MOL   O205 5977   6.186   5.046   1.788 -0.3421  0.4551  0.4191
    7MOL   C206 5978   6.173   5.100   1.661 -0.4100 -0.5198  0.0652
    7MOL   O207 5979   6.139   5.219   1.643 -0.0003 -0.5979  0.1174
    7MOL   C208 5980   6.207   5.000   1.547 -0.4495 -0.5936  0.6511
    7MOL   C209 5981   6.345   5.035   1.479 -0.4244  0.2882 -0.5916
    7MOL   C210 5982   6.402   4.926   1.396  0.8235  0.3105  0.0920
    7MOL   C211 5983   6.551   4.955   1.356 -0.0925  0.0283 -0.0303
    7MOL   C212 5984   6.641   4.959   1.475 -0.7794 -0.2211  0.4937
    7MOL   O213 5985   6.740   5.036   1.473 -0.4093 -0.1098  0.1290
    7MOL   H214 5986   6.654   4.348   2.356 -0.6151  0.7032 -1.1703
    7MOL   H215 5987   6.606   4.170   2.354  0.4543  0.4697 -1.6144
    7MOL   H216 5988   6.376   4.275   2.369 -1.5559 -0.3602 -1.3409
    7MOL   H217 5989   6.463   4.277   2.210 -0.9412 -1.0739  0.2898
    7MOL   H218 5990   6.505   4.508   2.385 -0.3224  0.4119  0.0851
    7MOL   H219 5991   6.509   4.505   2.215  0.4731 -0.8347  0.6289
    7MOL   H220 5992   6.253   4.478   2.359  2.2805 -0.2252  1.1699
    7MOL   H221 5993   6.278   4.507   2.176  0.0382  2.6315 -0.5507
    7MOL   H222 5994   6.379   4.722   2.354 -0.6889  1.9942 -0.4221
    7MOL   H223 5995   6.208   4.699   2.345  0.4290 -1.3780  0.6248
    7MOL   H224 5996   6.196   4.721   2.112  1.6084 -2.3718 -1.8730
    7MOL   H225 5997   6.360   4.717   2.080 -0.3836  0.8449 -0.7046
    7MOL   H226 5998   6.416   4.924   2.196 -0.4277  0.1652  3.5521
    7MOL   H227 5999   6.257   4.947   2.249  1.3353 -0.4703  1.9663
    7MOL   H228 6000   6.341   4.920   1.948 -1.3801 -2.0161  0.0860
    7MOL   H229 6001   6.368   5.068   2.022 -0.6760  0.3940  1.8425
    7MOL   H230 6002   6.093   4.952   2.010  0.7662 -1.0407 -2.0185
    7MOL   H231 6003   6.144   5.084   2.108 -0.5388 -0.2092  0.1824
    7MOL   H232 6004   6.205   5.217   1.896  1.0183 -0.8037  1.6571
    7MOL   H233 6005   6.045   5.161   1.886 -1.2255 -2.7631  0.4287
    7MOL   H234 6006   6.212   4.905   1.600 -1.2491 -0.7355  0.4752
    7MOL   H235 6007   6.125   4.998   1.475 -1.5247 -0.9638  1.8686
    7MOL   H236 6008   6.417   5.064   1.556 -1.2548  0.2613  0.2045
    7MOL   H237 6009   6.338   5.125   1.417 -0.4527 -1.1695 -2.7247
    7MOL   H238 6010   6.336   4.920   1.311 -0.7519 -0.0653  1.3212
    7MOL   H239 6011   6.396   4.833   1.454  1.2391  0.1478 -0.1205
    7MOL   H240 6012   6.556   5.044   1.294  1.2848  0.1209  0.2133
    7MOL   H241 6013   6.606   4.882   1.296 -0.8684 -0.9695  0.4355
    7MOL   O242 6014   6.602   4.880   1.578  0.1342 -0.3532  0.9324
    7MOL   C243 6015   6.671   4.874   1.705  0.1719  0.0161  0.3857
    7MOL   C244 6016   6.584   4.939   1.818  0.8029 -0.9704 -0.3130
    7MOL   C245 6017   6.652   4.958   1.954  0.1238  0.2450  0.1623
    7MOL   C246 6018   6.697   4.828   2.017  0.0598  0.1799  0.4236
    7MOL   C247 6019   6.742   4.846   2.164 -0.6847 -0.4775  0.7554
    7MOL   C248 6020   6.809   4.724   2.217 -0.7114  0.8597 -1.0868
    7MOL   C249 6021   6.863   4.738   2.363 -0.3672 -0.5420 -0.6168
    7MOL   C250 6022   6.901   4.618   2.455  0.1852 -0.0516 -0.8689
    7MOL   C251 6023   7.015   4.532   2.396 -0.1714 -0.1681 -0.4744
    7MOL   C252 6024   7.066   4.425   2.491 -1.0109  0.2064  0.5515
    7MOL   O253 6025   7.120   4.485   2.605  0.3870 -0.2918 -0.5385
    7MOL   C254 6026   7.256   4.506   2.623 -0.0410  0.3389  0.2745
    7MOL   O255 6027   7.345   4.483   2.539  0.0453  0.3937  0.1369
    7MOL   C256 6028   7.281   4.564   2.763  0.5205  0.3501 -0.2993
    7MOL   C257 6029   7.294   4.718   2.769  0.2742 -0.8653 -0.8885
    7MOL   C258 6030   7.158   4.795   2.768 -0.4123  0.7089  0.2611
    7MOL   C259 6031   7.173   4.937   2.808  0.4141  0.4006 -0.0480
    7MOL   C260 6032   7.045   5.018   2.787 -0.3658 -0.6831  0.4836
    7MOL   O261 6033   6.961   4.983   2.704  0.0834  0.4399  0.3634
    7MOL   H262 6034   6.694   4.774   1.742  0.5040 -0.1100 -0.1593
    7MOL   H263 6035   6.765   4.929   1.698  0.1662  0.0507  0.5851
    7MOL   H264 6036   6.506   4.864   1.829  0.3194 -0.6344 -1.3335
    7MOL   H265 6037   6.540   5.031   1.779 -1.6517 -1.8409  0.3180
    7MOL   H266 6038   6.741   5.020   1.943  0.3809 -0.1607 -0.0367
    7MOL   H267 6039   6.579   5.012   2.015 -2.4602  0.3686 -2.9676
    7MOL   H268 6040   6.767   4.766   1.961  1.7856  1.5512  1.0340
    7MOL   H269 6041   6.608   4.766   2.006  0.1088  0.2543 -0.4532
    7MOL   H270 6042   6.651   4.869   2.221  0.1725  0.2150  1.8642
    7MOL   H271 6043   6.815   4.926   2.168 -0.9487 -0.2569  1.2090
    7MOL   H272 6044   6.898   4.701   2.159  0.6669 -1.4676  1.7794
    7MOL   H273 6045   6.738   4.641   2.219 -0.4512  0.6461  0.1010
    7MOL   H274 6046   6.776   4.777   2.417  1.1114  1.2398  0.5427
    7MOL   H275 6047   6.946   4.809   2.367 -0.5070 -0.4366  0.7103
    7MOL   H276 6048   6.809   4.560   2.460  0.2659 -0.0976  0.0620
    7MOL   H277 6049   6.916   4.642   2.560 -0.0481 -3.0792 -0.0966
    7MOL   H278 6050   6.989   4.507   2.293  2.7983  0.4498 -1.4293
    7MOL   H279 6051   7.095   4.603   2.376 -0.3733  0.6808  1.7009
    7MOL   H280 6052   7.134   4.352   2.447 -2.0593 -0.3225 -0.2243
    7MOL   H281 6053   6.980   4.370   2.530 -1.5193  1.0805  0.6685
    7MOL   H282 6054   7.201   4.535   2.831  0.8520  0.1650  0.0092
    7MOL   H283 6055   7.361   4.505   2.809  0.0891  0.3570  0.4622
    7MOL   H284 6056   7.376   4.754   2.706  1.1542 -3.4100 -1.2777
    7MOL   H285 6057   7.321   4.730   2.874  0.6685  2.3734 -1.3290
    7MOL   H286 6058   7.078   4.752   2.827  0.0992 -0.1453  0.3511
    7MOL   H287 6059   7.124   4.792   2.664 -2.7397  0.2566  1.0215
    7MOL   H288 6060   7.245   4.991   2.748 -3.1987  3.7407 -1.6114
    7MOL   H289 6061   7.209   4.943   2.911 -1.8703 -1.8396  0.9547
    7MOL   O290 6062   7.043   5.129   2.851  0.4433 -0.0622  0.8431
    7MOL   C291 6063   6.915   5.206   2.840  0.0042  0.2013  0.2349
    7MOL   C292 6064   6.947   5.315   2.732  0.0587  0.2520  0.0739
    7MOL   C293 6065   6.829   5.403   2.686  0.3704  1.1636 -0.4886
    7MOL   C294 6066   6.868   5.497   2.570 -0.0234  0.6172 -0.2995
    7MOL   C295 6067   6.767   5.597   2.538  0.3922 -0.5410 -0.4203
    7MOL   C296 6068   6.804   5.634   2.397  0.0304  1.0959 -0.3011
    7MOL   C297 6069   6.688   5.665   2.306 -0.1263  0.2700 -0.0776
    7MOL   C298 6070   6.725   5.731   2.174  0.8826  0.4527  0.3690
    7MOL   C299 6071   6.604   5.761   2.077  0.4873 -0.0930 -0.3227
    7MOL   C300 6072   6.651   5.856   1.960 -0.1921 -0.5989 -0.3646
    7MOL   O301 6073   6.548   5.894   1.873 -0.3877 -0.8032  0.2131
    7MOL   C302 6074   6.583   5.969   1.763  0.2410 -1.2071  0.2353
    7MOL   O303 6075   6.697   6.012   1.740  0.2645  0.2337  0.1409
    7MOL   C304 6076   6.468   5.975   1.660 -0.6566  0.6146 -0.2702
    7MOL   C305 6077   6.336   6.029   1.712  0.6801 -0.1736  0.5292
    7MOL   C306 6078   6.232   6.058   1.595 -0.3049 -0.7142 -0.1418
    7MOL   C307 6079   6.216   6.207   1.561  0.5952  0.1015 -0.0630
    7MOL   C308 6080   6.328   6.261   1.470 -0.5342  0.4278  0.0347
    7MOL   O309 6081   6.323   6.247   1.348 -0.1965  0.4393  0.3575
    7MOL   H310 6082   6.835   5.140   2.807 -0.5348 -0.7569  3.2665
    7MOL   H311 6083   6.881   5.250   2.933  2.1745  1.2298  0.5881
    7MOL   H312 6084   6.982   5.268   2.640 -1.5384  0.5511 -0.6928
    7MOL   H313 6085   7.023   5.381   2.774 -0.5674  0.4081  0.9894
    7MOL   H314 6086   6.731   5.358   2.672  2.0895 -3.2366  0.7459
    7MOL   H315 6087   6.804   5.466   2.771  0.6632  0.9702 -0.2579
    7MOL   H316 6088   6.881   5.423   2.491  0.0977  1.6527 -1.2641
    7MOL   H317 6089   6.961   5.552   2.585  0.2229  0.3100 -0.6971
    7MOL   H318 6090   6.774   5.685   2.603  1.0882 -0.7641 -0.1889
    7MOL   H319 6091   6.670   5.550   2.552 -1.0905  2.3708 -0.3931
    7MOL   H320 6092   6.854   5.557   2.340  1.8460  0.9843  1.3759
    7MOL   H321 6093   6.869   5.722   2.401  1.6058 -0.0958  1.2266
    7MOL   H322 6094   6.606   5.717   2.356  0.3225  0.7820  0.1446
    7MOL   H323 6095   6.642   5.572   2.275 -2.6233  1.2555  0.5685
    7MOL   H324 6096   6.795   5.660   2.130 -0.7018 -0.6294 -0.4425
    7MOL   H325 6097   6.786   5.820   2.193 -0.5765  1.1156  1.9809
    7MOL   H326 6098   6.560   5.670   2.035  0.8540 -0.3243 -0.2056
    7MOL   H327 6099   6.525   5.810   2.134  1.7915  2.0655 -0.3286
    7MOL   H328 6100   6.730   5.800   1.910 -0.2916  0.0104 -1.2202
    7MOL   H329 6101   6.693   5.949   1.998  0.2324 -0.5090 -1.0448
    7MOL   H330 6102   6.505   6.026   1.570  2.1896 -0.2652  0.3377
    7MOL   H331 6103   6.451   5.874   1.622  0.3617  0.2198  0.3131
    7MOL   H332 6104   6.347   6.107   1.787  0.4654 -0.0528  0.4339
    7MOL   H333 6105   6.294   5.947   1.769  0.4189 -1.6709 -1.7512
    7MOL   H334 6106   6.137   6.019   1.632 -0.0121 -0.2395  1.1161
    7MOL   H335 6107   6.246   6.004   1.501 -1.5655 -0.3939 -0.5256
    7MOL   H336 6108   6.213   6.281   1.641 -2.0307  1.8581 -1.6985
    7MOL   H337 6109   6.120   6.230   1.516 -0.6146 -1.9266  1.3835
    7MOL   O338 6110   6.442   6.291   1.542  0.2988 -0.1274 -0.1886
    7MOL   C339 6111   6.569   6.305   1.486  0.3011  0.4091 -0.1604
    7MOL   C340 6112   6.671   6.351   1.586 -0.4716 -0.1743  0.3373
    7MOL   C341 6113   6.815   6.347   1.520 -0.3928  0.7706 -0.0052
    7MOL   C342 6114   6.928   6.324   1.624  0.1564 -0.3771 -0.4094
    7MOL   C343 6115   7.068   6.335   1.563 -0.1496 -0.3850 -0.7124
    7MOL   C344 6116   7.107   6.208   1.489  0.7424 -0.3320  0.0005
    7MOL   C345 6117   7.167   6.099   1.575 -0.4541 -0.1219  0.6704
    7MOL   C346 6118   7.248   5.989   1.507 -0.4376  0.5337  0.1959
    7MOL   C347 6119   7.345   5.917   1.604  0.6288 -0.3074  0.0844
    7MOL   C348 6120   7.411   5.794   1.539  0.2819 -0.1760 -0.5180
    7MOL   O349 6121   7.531   5.744   1.599 -0.1413  0.2690 -0.1722
    7MOL   C350 6122   7.647   5.804   1.563 -0.3256  1.0971 -0.5863
    7MOL   O351 6123   7.656   5.894   1.480 -0.3809 -0.2154 -0.0806
    7MOL   C352 6124   7.763   5.756   1.644 -0.1648  0.4034  0.7424
    7MOL   C353 6125   7.734   5.770   1.785  0.2517  0.1219 -0.9262
    7MOL   C354 6126   0.024   5.882   1.869  0.2257  0.1778  0.0942
    7MOL   C355 6127   7.728   5.882   2.009  0.4154  0.0334 -1.0095
    7MOL   C356 6128   7.584   5.937   2.036 -0.0652  0.4170  0.4589
    7MOL   O357 6129   7.486   5.865   2.055 -0.0990  0.7585  0.2323
    7MOL   H358 6130   6.602   6.208   1.449 -1.3148 -0.3426  0.3345
    7MOL   H359 6131   6.568   6.363   1.394 -2.1496 -0.5328 -0.7767
    7MOL   H360 6132   6.660   6.276   1.664 -0.4823  0.0777  0.5794
    7MOL   H361 6133   6.651   6.448   1.632  3.0252  1.3157 -1.0312
    7MOL   H362 6134   6.824   6.268   1.446  0.1346  0.9540 -0.1416
    7MOL   H363 6135   6.821   6.439   1.462  0.8355  0.5435 -0.2666
    7MOL   H364 6136   6.915   6.223   1.663  0.6821  0.6482  2.4942
    7MOL   H365 6137   6.913   6.391   1.709  0.0197  0.4421 -1.0682
    7MOL   H366 6138   7.144   6.364   1.636  1.6971 -1.9555 -1.9693
    7MOL   H367 6139   7.074   6.426   1.504 -0.1117 -0.2496 -0.4987
    7MOL   H368 6140   7.178   6.234   1.410 -0.1299  1.1661 -0.3143
    7MOL   H369 6141   7.022   6.153   1.449 -0.4673 -0.5460  2.7437
    7MOL   H370 6142   7.101   6.047   1.645 -1.2913 -2.0742 -1.4919
    7MOL   H371 6143   7.235   6.148   1.645  2.0747  1.4665 -2.7910
    7MOL   H372 6144   7.306   6.038   1.429  1.0434  1.9588  2.1433
    7MOL   H373 6145   7.184   5.921   1.451  0.6230  0.7013 -1.2530
    7MOL   H374 6146   7.420   5.990   1.635  0.8103  0.0139 -1.0789
    7MOL   H375 6147   7.294   5.881   1.694 -2.2769  1.4316 -0.7926
    7MOL   H376 6148   7.430   5.827   1.437 -1.5330  1.1063 -0.4579
    7MOL   H377 6149   7.331   5.720   1.539  0.9599 -0.9176 -1.2084
    7MOL   H378 6150   0.012   5.654   1.606 -0.2992  0.5425  0.3219
    7MOL   H379 6151   0.086   5.817   1.623 -1.0789  1.9151  1.2859
    7MOL   H380 6152   0.009   5.680   1.832 -1.1917 -0.0708 -0.0460
    7MOL   H381 6153   7.631   5.756   1.818  0.7300  2.3992  1.7135
    7MOL   H382 6154   0.005   5.979   1.822  0.1577  0.2896  0.3549
    7MOL   H383 6155   0.133   5.881   1.875  0.1978  1.7525  1.0795
    7MOL   H384 6156   0.031   5.942   2.070 -1.2113  2.6417 -1.6940
    7MOL   H385 6157   7.743   5.778   2.036  1.7274  0.9212  1.9140
    7MOL   O386 6158   7.579   6.070   2.038 -0.6207  0.3340  0.0155
    7MOL   C387 6159   7.470   6.141   2.098  0.2872  1.0822 -0.0567
    7MOL   C388 6160   7.353   6.162   2.006  0.2542  0.8597  0.4324
    7MOL   C389 6161   7.249   6.248   2.061 -0.9940  0.1745 -0.1781
    7MOL   C390 6162   7.120   6.248   1.982 -0.1565 -0.4428 -0.4520
    7MOL   C391 6163   6.999   6.256   2.080 -0.6023 -0.3350 -0.3965
    7MOL   C392 6164   6.864   6.234   2.013  0.6303  0.1084 -0.0526
    7MOL   C393 6165   6.755   6.216   2.116  0.5894 -0.4911  0.4448
    7MOL   C394 6166   6.619   6.262   2.052  0.1090  0.2146 -0.1651
    7MOL   C395 6167   6.495   6.237   2.150 -0.2442 -0.1526 -0.5886
    7MOL   C396 6168   6.426   6.099   2.133  0.2404 -0.1653  0.2154
    7MOL   O397 6169   6.295   6.100   2.193 -0.3253 -0.5580 -0.2518
    7MOL   C398 6170   6.287   6.055   2.323  0.7614 -0.2104 -0.3834
    7MOL   O399 6171   6.374   5.985   2.372 -0.1576 -0.1863 -0.3729
    7MOL   C400 6172   6.145   6.069   2.379 -1.0065 -0.2101  0.3329
    7MOL   C401 6173   6.133   6.199   2.467 -0.4714  0.7501 -0.1005
    7MOL   C402 6174   6.028   6.299   2.424  0.3714  0.7197  0.2431
    7MOL   C403 6175   6.030   6.427   2.508  0.0541 -0.1164  0.5566
    7MOL   C404 6176   5.953   6.416   2.641  0.4804 -0.0214  0.9508
    7MOL   O405 6177   5.836   6.452   2.652 -0.5132  0.0062 -0.4455
    7MOL   H406 6178   7.443   6.080   2.184 -0.7916  1.8432  0.1543
    7MOL   H407 6179   7.506   6.232   2.146  2.1828  0.2509  0.1490
    7MOL   H408 6180   7.302   6.073   1.972 -3.1017  2.9115 -0.0764
    7MOL   H409 6181   7.392   6.195   1.910 -0.5380  0.2463 -0.0956
    7MOL   H410 6182   7.228   6.215   2.163  0.4237  1.4326  0.5329
    7MOL   H411 6183   7.289   6.348   2.078 -0.7257  0.3230 -1.6717
    7MOL   H412 6184   7.118   6.151   1.931  0.1413  0.3120 -1.9102
    7MOL   H413 6185   7.127   6.329   1.911 -1.4946  0.9069  0.9269
    7MOL   H414 6186   7.017   6.348   2.135  0.0449 -1.1797  0.8013
    7MOL   H415 6187   7.004   6.180   2.158  0.4419  0.2060  0.0667
    7MOL   H416 6188   6.855   6.149   1.945 -0.6666  0.2128 -0.0208
    7MOL   H417 6189   6.852   6.321   1.948  0.8856 -0.1084 -0.3955
    7MOL   H418 6190   6.778   6.267   2.209 -1.4818 -1.3137  1.4286
    7MOL   H419 6191   6.758   6.112   2.148  0.7090 -0.8993 -0.8558
    7MOL   H420 6192   6.617   6.232   1.947  1.5582  1.6695 -0.6196
    7MOL   H421 6193   6.619   6.371   2.047 -3.4808  0.4118  2.1627
    7MOL   H422 6194   6.526   6.253   2.253 -0.8992 -0.1280 -0.3993
    7MOL   H423 6195   6.422   6.315   2.129 -0.8112 -0.5257 -0.0007
    7MOL   H424 6196   6.490   6.028   2.184  1.2162  1.1073  0.7724
    7MOL   H425 6197   6.414   6.074   2.027  0.2727  0.0434  0.1626
    7MOL   H426 6198   6.073   6.058   2.298  1.5244  1.3424 -2.2392
    7MOL   H427 6199   6.122   5.984   2.443 -3.5809  0.5206  0.4433
    7MOL   H428 6200   6.221   6.263   2.471  0.6660 -0.7348 -0.8334
    7MOL   H429 6201   6.115   6.166   2.570 -0.2420  3.5059  0.8526
    7MOL   H430 6202   5.939   6.237   2.438  0.1146  0.8956 -0.6055
    7MOL   H431 6203   6.040   6.323   2.319 -0.2335  0.1503  0.0399
    7MOL   H432 6204   5.982   6.501   2.443  1.4417  1.4623  1.3001
    7MOL   H433 6205   6.130   6.470   2.505 -0.0416  0.0250 -1.1081
    7MOL   O434 6206   6.023   6.361   2.739 -0.7215 -0.0398  0.4109
    7MOL   C435 6207   5.974   6.355   2.876 -0.7110  0.2982 -0.7254
    7MOL   C436 6208   5.898   6.230   2.893  0.3132 -0.1995  0.2992
    7MOL   C437 6209   5.992   6.105   2.924 -0.0943 -0.4976  0.1058
    7MOL   C438 6210   5.915   5.971   2.901 -0.1798 -0.5785 -0.0398
    7MOL   C439 6211   5.990   5.837   2.930 -0.4948 -0.4615  0.3206
    7MOL   C440 6212   6.013   5.803   3.084  0.1154  0.5364 -0.2376
    7MOL   C441 6213   6.057   5.666   3.123  0.4830  0.2037 -0.6222
    7MOL   C442 6214   6.070   5.631   3.278  0.4806 -0.1718  0.0624
    7MOL   C443 6215   5.935   5.600   3.349 -0.1089  0.4644 -0.5226
    7MOL   C444 6216   5.939   5.620   3.504 -0.6883  0.2369  0.2886
    7MOL   O445 6217   6.007   5.507   3.560 -0.2193  0.2801 -0.1624
    7MOL   C446 6218   6.075   5.527   3.671 -0.3856  0.0778 -0.3440
    7MOL   O447 6219   6.094   5.633   3.731  0.0894  0.2869 -0.4860
    7MOL   C448 6220   6.125   5.387   3.716  0.2083 -0.2799 -0.1530
    7MOL   C449 6221   6.273   5.366   3.675 -0.6266 -0.5434 -0.6548
    7MOL   C450 6222   6.302   5.279   3.551  0.0924 -0.8032 -0.4509
    7MOL   C451 6223   6.451   5.259   3.531 -0.4251 -0.0395 -0.6207
    7MOL   C452 6224   6.528   5.374   3.465  0.1282  0.2642  0.5639
    7MOL   O453 6225   6.471   5.472   3.428 -0.4145 -0.0956 -0.3588
    7MOL   H454 6226   6.059   6.364   2.943 -1.9183  1.0172  0.7337
    7MOL   H455 6227   5.917   6.445   2.899 -1.8537 -0.4679 -0.5122
    7MOL   H456 6228   5.850   6.203   2.799 -1.6508 -2.6363  1.9268
    7MOL   H457 6229   5.822   6.257   2.966 -1.6935  4.0928 -3.1201
    7MOL   H458 6230   6.085   6.111   2.867  0.2122 -1.0744  0.5434
    7MOL   H459 6231   6.024   6.111   3.028  0.1649  0.3210 -0.0152
    7MOL   H460 6232   5.896   5.962   2.794  0.3508  0.3468 -0.2152
    7MOL   H461 6233   5.819   5.969   2.952 -0.3728  0.1020 -0.3702
    7MOL   H462 6234   6.092   5.854   2.896  0.9139 -2.9445  3.0447
    7MOL   H463 6235   5.948   5.750   2.880  0.5679 -0.9008  0.1827
    7MOL   H464 6236   5.918   5.826   3.131  0.9051  0.3677  1.4996
    7MOL   H465 6237   6.084   5.865   3.138 -0.2780 -1.8671  3.2253
    7MOL   H466 6238   6.159   5.647   3.089 -0.1155  0.4335 -2.6304
    7MOL   H467 6239   5.987   5.608   3.063  0.4788  0.8373 -1.2498
    7MOL   H468 6240   6.113   5.720   3.324  0.9862 -1.6566  2.5058
    7MOL   H469 6241   6.148   5.556   3.294  0.0521 -0.1406  2.3481
    7MOL   H470 6242   5.858   5.670   3.318 -3.1278 -2.1790  0.6745
    7MOL   H471 6243   5.886   5.503   3.340 -0.5139  0.7445 -1.3992
    7MOL   H472 6244   5.841   5.631   3.551  0.2450  1.8896  1.9080
    7MOL   H473 6245   6.006   5.703   3.523  0.6381 -1.0570  1.4374
    7MOL   H474 6246   6.120   5.390   3.825 -2.7632  0.3148 -0.2608
    7MOL   H475 6247   6.059   5.308   3.679 -2.1311  1.0637  1.0383
    7MOL   H476 6248   6.324   5.304   3.749 -2.9839 -2.0827 -0.2792
    7MOL   H477 6249   6.326   5.461   3.666  1.4281 -1.3647  1.9601
    7MOL   H478 6250   6.268   5.337   3.466 -2.2079 -1.2644  0.1125
    7MOL   H479 6251   6.244   5.187   3.563 -1.5782  0.3402  0.3535
    7MOL   H480 6252   6.477   5.179   3.461  2.4476  0.4553 -0.2121
    7MOL   H481 6253   6.499   5.236   3.626  0.2553 -1.4106 -1.2781
    7MOL   O482 6254   6.660   5.357   3.447  0.3219 -0.1999 -0.2902
    7MOL   C483 6255   6.740   5.456   3.385  0.0305 -1.1081 -0.1953
    7MOL   C484 6256   6.883   5.425   3.431 -0.8314  0.3116 -0.3028
    7MOL   C485 6257   6.893   5.441   3.588 -0.1651  0.0840 -0.3690
    7MOL   C486 6258   7.035   5.424   3.633 -0.0368  1.0130  1.0742
    7MOL   C487 6259   7.059   5.453   3.784  0.5082 -0.2812  0.1024
    7MOL   C488 6260   7.200   5.420   3.840 -1.2581  1.0358 -0.1135
    7MOL   C489 6261   7.236   5.262   3.855 -0.6422 -0.2837 -0.6294
    7MOL   C490 6262   7.315   5.204   3.733  0.1707 -0.1706  0.1049
    7MOL   C491 6263   7.344   5.049   3.744 -0.0551  0.3612 -0.0987
    7MOL   C492 6264   7.441   4.999   3.638  0.2310  0.0056 -0.4077
    7MOL   O493 6265   7.381   5.013   3.509 -0.8853  0.2337 -0.4130
    7MOL   C494 6266   7.441   5.074   3.408  0.9237  0.7172  0.6646
    7MOL   O495 6267   7.558   5.117   3.408  0.7728 -0.1081 -0.1419
    7MOL   C496 6268   7.372   5.082   3.271  0.2026  0.5366  0.6145
    7MOL   C497 6269   7.226   5.133   3.267  0.4739  0.2790  0.5085
    7MOL   C498 6270   7.190   5.173   3.123  0.8357 -0.5180  0.4416
    7MOL   C499 6271   7.249   5.311   3.084  0.3697  0.2247 -0.6155
    7MOL   C500 6272   7.155   5.429   3.119  0.2356  0.1784  0.5569
    7MOL   O501 6273   7.168   5.499   3.218 -0.0591 -0.2241 -0.3784
    7MOL   H502 6274   6.732   5.446   3.276 -0.1054  0.2653 -0.3261
    7MOL   H503 6275   6.710   5.552   3.428  4.0226  0.1973 -0.1156
    7MOL   H504 6276   6.955   5.494   3.387  1.7286 -0.5539  2.3691
    7MOL   H505 6277   6.911   5.323   3.404 -1.1000 -0.0136  0.6368
    7MOL   H506 6278   6.854   5.541   3.610 -1.0165  0.1301 -1.9657
    7MOL   H507 6279   6.831   5.372   3.644  0.5703  0.2084  0.6031
    7MOL   H508 6280   7.095   5.490   3.571 -0.5708  0.0037 -0.5451
    7MOL   H509 6281   7.062   5.322   3.606 -1.5609  0.5328  1.2793
    7MOL   H510 6282   6.984   5.408   3.849 -2.0383  2.5979 -0.7132
    7MOL   H511 6283   7.030   5.557   3.797  2.2370  0.1452  0.7634
    7MOL   H512 6284   7.198   5.455   3.943 -0.3193 -1.3160  0.7588
    7MOL   H513 6285   7.289   5.471   3.803  0.2823 -0.7300  1.0287
    7MOL   H514 6286   7.142   5.215   3.882 -1.0638 -0.4793 -2.3549
    7MOL   H515 6287   7.304   5.249   3.939 -0.0495  0.2844 -1.0139
    7MOL   H516 6288   7.409   5.258   3.719 -0.7215  1.7268  1.1779
    7MOL   H517 6289   7.257   5.230   3.645  0.1606  1.9208  0.7119
    7MOL   H518 6290   7.397   5.040   3.839 -0.3503  1.1978  0.1485
    7MOL   H519 6291   7.255   4.987   3.756 -0.2909  0.6584 -0.3023
    7MOL   H520 6292   7.457   4.891   3.647  0.9557  0.0767 -0.8701
    7MOL   H521 6293   7.541   5.041   3.646  0.1812  0.1602 -0.5995
    7MOL   H522 6294   7.438   5.149   3.216  1.3009  0.6030  1.9967
    7MOL   H523 6295   7.389   4.984   3.226  0.0186 -0.6761  3.1083
    7MOL   H524 6296   7.200   5.224   3.321 -0.6872 -0.1131  0.6316
    7MOL   H525 6297   7.167   5.046   3.295  2.6941 -1.3550  0.2080
    7MOL   H526 6298   7.081   5.178   3.125  0.7712 -1.6191 -0.1442
    7MOL   H527 6299   7.213   5.098   3.048  2.0627 -0.3564  0.6488
    7MOL   H528 6300   7.251   5.323   2.976  1.3449 -0.3469 -0.6673
    7MOL   H529 6301   7.352   5.330   3.113  0.2658  0.7352 -0.5850
    7MOL   O530 6302   7.061   5.442   3.020  0.5294 -1.0097  0.1482
    7MOL   C531 6303   6.970   5.550   3.031  0.7296  0.3945 -0.2896
    7MOL   C532 6304   6.991   5.659   2.924  0.0506 -0.1724 -0.2577
    7MOL   C533 6305   6.880   5.767   2.945 -0.1475  0.4729  0.0400
    7MOL   C534 6306   6.909   5.890   2.848  0.1133  0.4648 -0.1796
    7MOL   C535 6307   6.795   5.992   2.845  0.0989  0.0033 -0.1759
    7MOL   C536 6308   6.858   6.130   2.808  0.2567 -0.2386 -0.4586
    7MOL   C537 6309   6.921   6.202   2.932  0.1065  0.0277 -0.6117
    7MOL   C538 6310   6.949   6.352   2.918 -0.1291 -0.0297  0.3171
    7MOL   C539 6311   7.034   6.405   3.033  0.1573 -0.1620 -0.8646
    7MOL   C540 6312   7.098   6.544   3.035  0.0626  0.3273  0.1127
    7MOL   O541 6313   7.007   6.647   3.053 -0.2297 -0.6963  0.2910
    7MOL   C542 6314   6.969   6.685   3.180 -0.2690  0.3638  0.3273
    7MOL   O543 6315   7.033   6.658   3.285 -0.1816 -0.2969 -0.0428
    7MOL   C544 6316   6.846   6.771   3.182  0.0712 -0.1553  0.0028
    7MOL   C545 6317   6.868   6.905   3.109  0.5509 -0.6473 -0.1506
    7MOL   C546 6318   6.948   7.000   3.201 -0.0634  0.0860 -0.1883
    7MOL   C547 6319   6.932   7.148   3.159 -0.4232  0.0211  0.2789
    7MOL   C548 6320   7.036   7.196   3.060 -0.5584  0.0601  0.2340
    7MOL   O549 6321   7.135   7.254   3.105 -1.1804 -0.0189 -0.4309
    7MOL   H550 6322   6.875   5.495   3.026  0.4821  0.8273 -0.3379
    7MOL   H551 6323   6.967   5.611   3.122  0.6692 -0.5593  0.3588
    7MOL   H552 6324   7.002   5.628   2.820 -1.8958  0.6837 -0.7395
    7MOL   H553 6325   7.089   5.701   2.945 -0.3249 -0.2354  1.6584
    7MOL   H554 6326   6.783   5.728   2.916 -0.8805  0.5694  2.2807
    7MOL   H555 6327   6.875   5.796   3.049  4.0944 -1.0022  0.7467
    7MOL   H556 6328   6.938   5.850   2.751 -2.1216  2.1908 -1.6036
    7MOL   H557 6329   7.002   5.934   2.885  0.0177  2.7354 -2.4900
    7MOL   H558 6330   6.735   6.000   2.936 -0.3507  0.6924 -0.5262
    7MOL   H559 6331   6.723   5.955   2.772 -0.5592  1.3042 -0.2013
    7MOL   H560 6332   6.776   6.194   2.774  0.4626  0.5264  0.4645
    7MOL   H561 6333   6.928   6.119   2.726  0.5301 -0.7646 -0.1547
    7MOL   H562 6334   7.009   6.148   2.968  0.8179  0.5586 -1.5328
    7MOL   H563 6335   6.855   6.186   3.018 -1.5277  1.1367 -1.6446
    7MOL   H564 6336   6.858   6.408   2.894 -1.1551 -1.9988 -0.5724
    7MOL   H565 6337   7.007   6.370   2.827  1.5470  0.0334  1.3824
    7MOL   H566 6338   6.978   6.392   3.126 -0.0452  0.7656 -0.8553
    7MOL   H567 6339   7.120   6.338   3.037  0.5189  0.1494 -3.0962
    7MOL   H568 6340   7.152   6.562   2.942 -0.7530 -0.1329 -0.4593
    7MOL   H569 6341   7.167   6.545   3.119 -1.4492 -0.0388  1.3750
    7MOL   H570 6342   6.763   6.714   3.139 -0.2102 -0.7350  1.2898
    7MOL   H571 6343   6.817   6.783   3.287 -1.9448 -2.4338 -0.2387
    7MOL   H572 6344   6.768   6.943   3.086  0.3457  0.0138  1.7440
    7MOL   H573 6345   6.919   6.883   3.015  2.7009 -0.1604  0.8726
    7MOL   H574 6346   7.051   6.965   3.194 -0.2835 -0.1490 -2.6092
    7MOL   H575 6347   6.917   6.995   3.305  0.4549  0.8445  0.0160
    7MOL   H576 6348   6.938   7.215   3.245  1.1891  0.7959 -0.4053
    7MOL   H577 6349   6.832   7.152   3.116  0.0263  1.9905 -0.6477
    7MOL   O578 6350   7.003   7.165   2.935  0.3966  0.3203  0.4655
    7MOL   C579 6351   7.103   7.204   2.835 -0.0306  0.1796  0.0685
    7MOL   C580 6352   7.052   7.320   2.749  0.0234 -0.2704 -0.6142
    7MOL   C581 6353   6.901   7.336   2.727  0.2499 -0.0225  0.4206
    7MOL   C582 6354   6.860   7.442   2.631 -0.2130 -0.0855 -0.3348
    7MOL   C583 6355   6.710   7.450   2.606  0.6953 -0.1284 -0.2204
    7MOL   C584 6356   6.655   7.398   2.471 -0.2012  0.2239  0.2981
    7MOL   C585 6357   6.650   7.507   2.361  0.2501  0.4767  0.2733
    7MOL   C586 6358   6.625   7.454   2.220 -0.4428 -0.5102 -0.4257
    7MOL   C587 6359   6.614   7.559   2.110  0.6759 -0.1643 -0.5015
    7MOL   C588 6360   6.668   7.500   1.975 -0.0153  0.0761  0.5020
    7MOL   O589 6361   6.554   7.447   1.901 -0.1885  0.0757 -0.0698
    7MOL   C590 6362   6.574   7.378   1.792 -0.5591  0.2327  1.0481
    7MOL   O591 6363   6.684   7.345   1.753 -0.1715 -0.1817 -0.3787
    7MOL   C592 6364   6.440   7.336   1.728  0.2210  0.0987  0.1059
    7MOL   C593 6365   6.431   7.351   1.572 -0.4335 -0.1386  0.5064
    7MOL   C594 6366   6.442   7.223   1.496 -0.1613 -0.0080  0.3809
    7MOL   C595 6367   6.459   7.240   1.341 -0.1393 -0.1453 -0.7199
    7MOL   C596 6368   6.470   7.110   1.274  0.3703  0.5447 -0.0100
    7MOL   O597 6369   6.380   7.069   1.199  0.5588 -0.8719  0.0406
    7MOL   H598 6370   7.202   7.210   2.879 -0.1760  2.4864  0.1423
    7MOL   H599 6371   7.129   7.125   2.764  0.1991  0.2688  0.0518
    7MOL   H600 6372   7.095   7.308   2.650 -0.2889  0.1386 -0.7997
    7MOL   H601 6373   7.096   7.411   2.790  1.2007 -1.7560  1.5000
    7MOL   H602 6374   6.860   7.250   2.676 -0.3323  0.7442 -0.4147
    7MOL   H603 6375   6.849   7.353   2.821  1.8987  2.4678  0.9338
    7MOL   H604 6376   6.904   7.434   2.532 -0.2943  1.2022 -0.4764
    7MOL   H605 6377   6.898   7.537   2.667  1.0080 -0.2140 -1.2593
    7MOL   H606 6378   6.683   7.555   2.618  1.3882  0.0188  0.0302
    7MOL   H607 6379   6.661   7.382   2.676 -1.3085 -1.1454 -2.5267
    7MOL   H608 6380   6.557   7.360   2.498  0.3168 -2.2171 -1.0922
    7MOL   H609 6381   6.713   7.308   2.447  0.5683  0.6853  0.4153
    7MOL   H610 6382   6.751   7.548   2.361 -0.0162  1.1505 -0.3643
    7MOL   H611 6383   6.576   7.584   2.383  3.0867  3.1417  0.8840
    7MOL   H612 6384   6.531   7.399   2.208 -1.3671  0.9019  0.1109
    7MOL   H613 6385   6.703   7.380   2.206  0.8383  0.9630 -1.2156
    7MOL   H614 6386   6.512   7.592   2.088  0.7536  0.8459  0.6317
    7MOL   H615 6387   6.669   7.652   2.123  1.2184 -0.1447 -2.6784
    7MOL   H616 6388   6.737   7.417   1.990 -0.6607 -0.5979 -0.2325
    7MOL   H617 6389   6.727   7.574   1.921 -1.1767  2.9781  3.0828
    7MOL   H618 6390   6.410   7.238   1.766 -0.0749 -0.2974 -1.1458
    7MOL   H619 6391   6.370   7.408   1.770 -0.1239 -0.0233 -0.2575
    7MOL   H620 6392   6.511   7.418   1.539 -1.0409 -0.3288 -1.3795
    7MOL   H621 6393   6.340   7.402   1.540  0.3830  0.7911 -0.3770
    7MOL   H622 6394   6.352   7.166   1.517  0.0489 -0.4067  0.2188
    7MOL   H623 6395   6.531   7.169   1.531  0.4559  1.2156  0.7301
    7MOL   H624 6396   6.553   7.289   1.314 -0.8791  0.6543 -1.8848
    7MOL   H625 6397   6.374   7.298   1.306  1.2387  0.5132 -3.0678
    7MOL   O626 6398   6.574   7.038   1.305  0.3413  0.2537 -0.0450
    7MOL   C627 6399   6.606   6.913   1.248  0.3031 -0.0665  0.3923
    7MOL   C628 6400   6.518   6.796   1.309  0.6028 -0.0994 -0.3798
    7MOL   C629 6401   6.557   6.758   1.453 -0.2794  0.1399 -0.3778
    7MOL   C630 6402   6.524   6.868   1.566 -0.0252 -0.0698  0.3426
    7MOL   C631 6403   6.574   6.828   1.704  0.2444 -0.2614 -1.1227
    7MOL   C632 6404   6.459   6.768   1.791 -0.3736  0.4892 -0.0053
    7MOL   C633 6405   6.461   6.611   1.802 -0.1180  0.7996  0.2037
    7MOL   C634 6406   6.339   6.544   1.863 -0.5071 -0.1929 -0.4506
    7MOL   C635 6407   6.209   6.559   1.772  0.1077 -0.1514 -0.2797
    7MOL   C636 6408   6.075   6.550   1.846  0.5251  0.0713 -0.2868
    7MOL   O637 6409   6.042   6.414   1.867  0.0324 -0.2135 -0.4397
    7MOL   C638 6410   6.045   6.361   1.989  0.5096  0.5272  0.4757
    7MOL   O639 6411   6.093   6.403   2.094 -0.3105  0.1236 -0.3387
    7MOL   C640 6412   5.998   6.212   1.986 -0.7752 -0.5193 -0.1360
    7MOL   C641 6413   5.843   6.202   2.005  0.3552  0.1915 -0.5360
    7MOL   C642 6414   5.784   6.060   2.035  0.0640  0.3021 -0.4872
    7MOL   C643 6415   5.872   5.947   1.972 -0.3789  0.0832 -0.3855
    7MOL   C644 6416   6.000   5.902   2.045  0.1081  1.1619 -0.9871
    7MOL   O645 6417   5.997   5.885   2.163  0.1173  0.1744 -0.6779
    7MOL   H646 6418   6.582   6.923   1.142 -0.6295 -2.1692  0.3783
    7MOL   H647 6419   6.713   6.894   1.255  0.2684  0.5918  3.6083
    7MOL   H648 6420   6.522   6.718   1.234  0.7943  0.1011 -0.5777
    7MOL   H649 6421   6.412   6.824   1.304  1.0557  1.7465 -0.0233
    7MOL   H650 6422   6.511   6.671   1.500  0.2408  0.4928  0.8185
    7MOL   H651 6423   6.665   6.746   1.451 -0.2192  0.1929  1.5975
    7MOL   H652 6424   6.419   6.895   1.557 -0.6221 -2.7580 -1.2519
    7MOL   H653 6425   6.584   6.955   1.540  0.8978 -1.3944 -2.1138
    7MOL   H654 6426   6.614   6.916   1.753 -1.8159  3.0302 -5.0571
    7MOL   H655 6427   6.660   6.760   1.702 -0.0570 -0.6237 -2.2354
    7MOL   H656 6428   6.356   6.791   1.767 -1.1850 -0.4162  2.4605
    7MOL   H657 6429   6.498   6.791   1.890 -0.9628  2.4124 -0.2053
    7MOL   H658 6430   6.547   6.573   1.858  0.3401  1.5427  0.0031
    7MOL   H659 6431   6.465   6.573   1.700  1.3547  0.4729  0.3750
    7MOL   H660 6432   6.307   6.584   1.959 -2.1898  1.0934 -1.5202
    7MOL   H661 6433   6.352   6.437   1.878 -1.4203 -0.1733  0.5060
    7MOL   H662 6434   6.205   6.652   1.716 -0.1667  1.2422  1.9856
    7MOL   H663 6435   6.191   6.484   1.696  1.1928  0.6314 -1.3379
    7MOL   H664 6436   5.992   6.584   1.784 -0.2198 -0.1356  0.5936
    7MOL   H665 6437   6.081   6.612   1.935 -2.1176 -0.4879  0.3319
    7MOL   H666 6438   6.036   6.182   1.888 -1.1580  0.3784 -0.5645
    7MOL   H667 6439   6.057   6.153   2.056 -1.4165 -1.8011 -0.6364
    7MOL   H668 6440   5.802   6.237   1.910 -0.2065 -0.4581 -0.5330
    7MOL   H669 6441   5.812   6.276   2.078 -0.1356  0.5801 -1.1375
    7MOL   H670 6442   5.685   6.056   1.990 -0.7138  1.3691  1.0974
    7MOL   H671 6443   5.766   6.032   2.139  2.2366 -1.5230 -0.5605
    7MOL   H672 6444   5.910   5.979   1.875  2.5167 -1.9395  0.0238
    7MOL   H673 6445   5.814   5.855   1.958 -0.1143 -0.1453  0.0244
    7MOL   O674 6446   6.102   5.874   1.964 -0.6689 -0.0811 -0.0526
    7MOL   C675 6447   6.222   5.812   2.014  0.0932 -0.4857 -0.4576
    7MOL   C676 6448   6.240   5.673   1.958  0.4205 -0.0952  0.3520
    7MOL   C677 6449   6.248   5.663   1.807 -0.6446  0.5628 -0.0982
    7MOL   C678 6450   6.286   5.520   1.767  0.1051  0.0347 -0.3502
    7MOL   C679 6451   6.432   5.492   1.806  0.3927  0.4298  0.4379
    7MOL   C680 6452   6.478   5.361   1.742  0.0385 -0.4105 -0.3466
    7MOL   C681 6453   6.629   5.349   1.764 -0.0956  0.0278 -0.0668
    7MOL   C682 6454   6.668   5.344   1.913  0.1802 -0.1232  0.4509
    7MOL   C683 6455   6.815   5.323   1.941 -0.8169  0.0153  0.5220
    7MOL   C684 6456   6.833   5.345   2.084  0.1506  0.3000  0.4252
    7MOL   O685 6457   6.972   5.338   2.115 -0.2387 -0.0353  0.0933
    7MOL   C686 6458   7.016   5.278   2.230  0.1137  0.3555  0.4850
    7MOL   O687 6459   6.949   5.258   2.332 -0.0099 -0.1981 -0.4694
    7MOL   C688 6460   7.163   5.223   2.225 -0.1918 -0.2590  0.3929
    7MOL   C689 6461   7.192   5.124   2.117 -0.6431  0.5238 -0.2731
    7MOL   C690 6462   7.126   4.977   2.122  0.6576 -0.4541 -0.5500
    7MOL   C691 6463   7.092   4.903   1.984 -0.3165  0.3921  0.1362
    7MOL   C692 6464   7.218   4.882   1.898 -0.0759 -0.5629 -0.4857
    7MOL   O693 6465   7.268   4.771   1.877  0.1034  0.5051  0.0125
    7MOL   H694 6466   6.311   5.873   2.000 -1.8853  2.5666 -0.1838
    7MOL   H695 6467   6.212   5.797   2.122 -0.3447  2.5510 -0.0368
    7MOL   H696 6468   6.150   5.621   1.991 -0.9237  1.5656 -0.5739
    7MOL   H697 6469   6.328   5.627   2.002  0.2062 -0.6901  0.1668
    7MOL   H698 6470   6.148   5.687   1.771  0.4929 -0.1469 -3.9556
    7MOL   H699 6471   6.320   5.730   1.760  0.0596  0.9099  1.4444
    7MOL   H700 6472   6.271   5.518   1.659  0.5075 -0.8885 -0.3935
    7MOL   H701 6473   6.217   5.447   1.809 -1.4397 -0.1952 -3.1408
    7MOL   H702 6474   6.432   5.499   1.915 -1.0017  0.5378  0.4459
    7MOL   H703 6475   6.493   5.572   1.763  1.8783 -0.7195  0.3663
    7MOL   H704 6476   6.458   5.354   1.635 -0.8537  0.6246 -0.2525
    7MOL   H705 6477   6.414   5.289   1.794  0.2236 -0.0234  0.4237
    7MOL   H706 6478   6.688   5.429   1.719  2.0389 -1.7237 -0.5062
    7MOL   H707 6479   6.671   5.259   1.717 -0.8955 -0.2756 -0.2054
    7MOL   H708 6480   6.600   5.291   1.979  0.4045  1.6519  2.1668
    7MOL   H709 6481   6.654   5.449   1.939  0.6278 -0.0475  0.3941
    7MOL   H710 6482   6.846   5.221   1.917  0.7482  0.2387  1.5764
    7MOL   H711 6483   6.873   5.397   1.885 -0.8216  0.5779  1.2615
    7MOL   H712 6484   6.784   5.270   2.146  0.5042 -0.2139  0.0796
    7MOL   H713 6485   6.816   5.449   2.113  1.8750  0.8879 -0.5784
    7MOL   H714 6486   7.230   5.309   2.210  1.2577 -1.1045  1.8181
    7MOL   H715 6487   7.193   5.193   2.325  0.9322 -0.1090  0.1099
    7MOL   H716 6488   7.296   5.094   2.115 -0.8468 -0.1375 -1.9967
    7MOL   H717 6489   7.164   5.172   2.022  2.1006  2.3802 -0.1943
    7MOL   H718 6490   7.029   4.983   2.171  0.2590 -1.2464 -1.2295
    7MOL   H719 6491   7.183   4.906   2.182  2.3507  1.9832  0.8258
    7MOL   H720 6492   7.025   4.965   1.924  1.1230  2.7021  0.8387
    7MOL   H721 6493   7.038   4.809   1.993 -1.1694  0.8911  0.2206
    7MOL   O722 6494   7.253   4.995   1.844 -0.0870 -0.0909 -0.2005
    7MOL   C723 6495   7.372   5.002   1.761  0.2997  0.4516 -0.9319
    7MOL   C724 6496   7.348   5.131   1.684  0.1104 -0.3119  0.0312
    7MOL   C725 6497   7.483   5.176   1.616 -0.5523 -0.0520  0.2062
    7MOL   C726 6498   7.471   5.309   1.538  0.4661  0.1221 -0.8590
    7MOL   C727 6499   7.606   5.332   1.469 -0.1520  0.5156 -0.5014
    7MOL   C728 6500   7.612   5.461   1.389  0.0623 -0.5448  0.0553
    7MOL   C729 6501   7.753   5.465   1.313 -0.3305  0.0161 -0.0949
    7MOL   C730 6502   0.026   5.607   1.260 -0.1475  0.3344 -0.2590
    7MOL   C731 6503   0.154   5.612   1.176 -0.0220 -0.0860 -0.7836
    7MOL   C732 6504   0.202   5.757   1.165 -0.4728  0.1017  0.4207
    7MOL   O733 6505   0.316   5.748   1.088  0.1121 -0.7671  0.2312
    7MOL   C734 6506   0.337   5.840   0.989 -0.1471 -0.5438 -0.6100
    7MOL   O735 6507   0.267   5.938   0.965  0.2371 -0.4467  0.1836
    7MOL   C736 6508   0.468   5.816   0.908  0.0093  0.7480 -0.3724
    7MOL   C737 6509   0.441   5.730   0.787  0.1061 -0.1060  0.0832
    7MOL   C738 6510   0.434   5.584   0.823 -0.0572 -0.2531 -0.1180
    7MOL   C739 6511   0.396   5.489   0.705  0.1216 -0.2262  0.3427
    7MOL   C740 6512   0.372   5.340   0.751  1.0318  0.2377  0.0730
    7MOL   O741 6513   0.436   5.243   0.713  0.0395 -0.0339  0.4344
    7MOL   H742 6514   7.458   5.008   1.827 -0.3973 -1.6910  0.2084
    7MOL   H743 6515   7.376   4.914   1.696  0.5856 -1.2874  1.3754
    7MOL   H744 6516   7.322   5.213   1.751  0.4467  2.1364 -2.7268
    7MOL   H745 6517   7.264   5.128   1.614 -0.0937  1.9460  0.1512
    7MOL   H746 6518   7.569   5.163   1.680 -0.4389  0.6229  0.1892
    7MOL   H747 6519   7.496   5.108   1.532 -0.4095  1.3265 -0.9046
    7MOL   H748 6520   7.452   5.394   1.604  1.4638 -1.4435  1.5068
    7MOL   H749 6521   7.393   5.308   1.462 -0.0954 -1.6449 -0.2677
    7MOL   H750 6522   7.617   5.245   1.404 -2.7449  0.0999 -0.4737
    7MOL   H751 6523   7.669   5.323   1.557  1.3207 -1.1565 -1.6937
    7MOL   H752 6524   7.611   5.546   1.457  1.9701 -0.9621  0.6495
    7MOL   H753 6525   7.526   5.476   1.325  1.9549  2.3391 -1.9555
    7MOL   H754 6526   7.748   5.393   1.232 -0.3541  0.1390 -0.2027
    7MOL   H755 6527   0.062   5.435   1.387  0.9356  2.0811 -0.4734
    7MOL   H756 6528   0.023   5.686   1.335 -0.5004  0.8803 -0.8544
    7MOL   H757 6529   7.706   5.642   1.202  1.4531  2.4022 -1.3958
    7MOL   H758 6530   0.234   5.558   1.227 -1.6242 -1.8046 -0.0389
    7MOL   H759 6531   0.144   5.559   1.081  2.2819 -0.7804 -0.6797
    7MOL   H760 6532   0.246   5.805   1.253 -0.2483 -0.1102  0.4231
    7MOL   H761 6533   0.116   5.819   1.138 -0.0010  0.2997 -0.6580
    7MOL   H762 6534   0.504   5.916   0.881 -0.6864  0.8456 -0.9513
    7MOL   H763 6535   0.551   5.771   0.962 -0.3410 -2.5038 -2.4314
    7MOL   H764 6536   0.525   5.752   0.721 -1.4766  0.5091 -1.7849
    7MOL   H765 6537   0.343   5.753   0.745 -0.6300 -2.1868  0.5644
    7MOL   H766 6538   0.358   5.571   0.900  1.7142  0.0917  1.7264
    7MOL   H767 6539   0.528   5.553   0.867  1.3784  2.3771 -1.2617
    7MOL   H768 6540   0.476   5.487   0.630  0.3432  0.5483  0.5503
    7MOL   H769 6541   0.308   5.526   0.653 -0.0738 -0.7221  0.3173
    7MOL   O770 6542   0.275   5.330   0.846  0.7801 -0.1660 -0.2205
    7MOL   C771 6543   0.237   5.204   0.892 -0.0092  0.7271  0.0423
    7MOL   C772 6544   0.111   5.240   0.979 -0.4540 -0.4722  0.2507
    7MOL   C773 6545   0.054   5.115   1.038  1.0192  0.5347 -0.5522
    7MOL   C774 6546   7.665   5.123   1.071  0.2393  0.1156  0.4143
    7MOL   C775 6547   7.622   5.004   1.163 -0.4219 -0.0415 -0.5567
    7MOL   C776 6548   7.467   4.974   1.170 -0.0218  0.9057  0.3100
    7MOL   C777 6549   7.427   4.846   1.240 -0.0047  0.3548 -0.6281
    7MOL   C778 6550   7.277   4.842   1.255  0.0093  0.0448 -0.6557
    7MOL   C779 6551   7.224   4.907   1.386  0.1098  0.0352 -0.6011
    7MOL   C780 6552   7.072   4.896   1.405  0.5925  0.5140  0.6774
    7MOL   O781 6553   7.000   4.976   1.312  0.5811  0.1631 -0.1613
    7MOL   C782 6554   6.936   4.925   1.207  0.9910  0.5728 -0.4592
    7MOL   O783 6555   6.910   4.801   1.199 -0.9463  0.3985  0.0550
    7MOL   C784 6556   6.881   5.034   1.114 -0.3816 -0.6228  0.3868
    7MOL   C785 6557   6.897   4.988   0.969 -0.0675 -0.5177  0.2402
    7MOL   C786 6558   7.047   4.987   0.924  0.0744 -0.1267  0.1672
    7MOL   C787 6559   7.123   5.125   0.937 -0.0051  0.5559  0.0601
    7MOL   C788 6560   7.080   5.227   0.836 -0.2757 -0.4695  0.0265
    7MOL   O789 6561   7.017   5.191   0.737  0.1136  0.5895  0.5127
    7MOL   H790 6562   0.212   5.155   0.798  2.9141 -0.4434 -0.1716
    7MOL   H791 6563   0.317   5.145   0.935 -1.3168 -0.0274  1.4839
    7MOL   H792 6564   0.037   5.285   0.912  0.4632 -1.4837 -1.4820
    7MOL   H793 6565   0.138   5.315   1.054 -0.7860 -1.7564  1.6843
    7MOL   H794 6566   0.076   5.033   0.970 -0.3307 -0.8832  0.6813
    7MOL   H795 6567   0.109   5.090   1.129  1.9302  0.4752 -1.1062
    7MOL   H796 6568   7.604   5.118   0.980  1.2136 -2.3567 -0.1447
    7MOL   H797 6569   7.640   5.216   1.122  0.5136  0.5677 -0.2695
    7MOL   H798 6570   7.670   5.020   1.260  1.9730  1.0248 -1.8911
    7MOL   H799 6571   7.665   4.915   1.118  1.6373  0.2362  0.8063
    7MOL   H800 6572   7.419   4.966   1.073 -2.6262  0.2513  1.6021
    7MOL   H801 6573   7.416   5.057   1.220  2.1928  0.5417  3.3478
    7MOL   H802 6574   7.473   4.863   1.338 -0.0148  0.3967 -0.6303
    7MOL   H803 6575   7.465   4.758   1.188  0.5238  0.4686 -0.4368
    7MOL   H804 6576   7.255   4.736   1.270 -0.9112  0.3633  0.3536
    7MOL   H805 6577   7.231   4.872   1.161  1.1238 -0.4770 -1.3715
    7MOL   H806 6578   7.279   4.856   1.465  2.0385  0.0359 -1.8997
    7MOL   H807 6579   7.247   5.013   1.387 -1.0951  0.2998  2.1798
    7MOL   H808 6580   7.034   4.933   1.501  2.8360  0.7687  1.4901
    7MOL   H809 6581   7.034   4.794   1.394  0.2253  0.7894 -0.6452
    7MOL   H810 6582   6.778   5.048   1.146 -0.9062 -3.0732 -0.1270
    7MOL   H811 6583   6.934   5.128   1.130 -1.4909  0.0014  0.3952
    7MOL   H812 6584   6.832   5.043   0.902  0.6879  2.0435  1.5534
    7MOL   H813 6585   6.858   4.886   0.964  0.4644 -0.6413 -2.0022
    7MOL   H814 6586   7.041   4.965   0.817 -0.9915 -1.6202  0.5143
    7MOL   H815 6587   7.085   4.899   0.977 -1.0818 -0.2042  0.8999
    7MOL   H816 6588   7.231   5.114   0.922  0.0219  0.9588 -0.0521
    7MOL   H817 6589   7.105   5.176   1.031  0.0241  1.1372 -0.2451
    7MOL   O818 6590   7.120   5.355   0.859  0.2309 -0.1824  0.5791
    7MOL   C819 6591   7.090   5.454   0.762 -0.1802  0.0408  0.0520
    7MOL   C820 6592   6.941   5.495   0.763  0.5216 -0.3363  0.0572
    7MOL   C821 6593   6.897   5.579   0.890  0.6603  0.3369 -0.7052
    7MOL   C822 6594   6.751   5.624   0.876  0.6598  0.1408 -0.1105
    7MOL   C823 6595   6.704   5.711   0.991  0.2426 -0.0565  0.6244
    7MOL   C824 6596   6.554   5.734   0.984 -1.4661  0.7571  0.2234
    7MOL   C825 6597   6.504   5.832   1.094  0.1343  0.5141 -0.6920
    7MOL   C826 6598   6.355   5.870   1.095  0.3995  0.1383 -0.4167
    7MOL   C827 6599   6.316   5.958   1.217 -0.2127 -0.1077 -0.2925
    7MOL   C828 6600   6.163   5.985   1.217  0.0206 -0.0997 -0.2540
    7MOL   O829 6601   6.132   6.095   1.136 -0.3779 -1.1300 -0.2591
    7MOL   C830 6602   6.013   6.154   1.149 -0.7099 -1.0093  0.5070
    7MOL   O831 6603   5.922   6.114   1.222 -0.0283  0.3453  0.3241
    7MOL   C832 6604   6.000   6.281   1.063 -0.5419  0.0129  0.0399
    7MOL   C833 6605   5.991   6.266   0.908  0.3763 -0.1288 -0.9893
    7MOL   C834 6606   5.923   6.378   0.824 -0.4088  0.5381  0.1307
    7MOL   C835 6607   5.878   6.324   0.682 -0.3621 -0.5178  0.3264
    7MOL   C836 6608   5.990   6.319   0.582 -0.5255 -0.6166  0.4696
    7MOL   O837 6609   6.111   6.300   0.608  0.0290  0.3218 -0.3590
    7MOL   H838 6610   7.151   5.538   0.796 -3.3036  1.6032  2.0921
    7MOL   H839 6611   7.128   5.427   0.663  1.1587  0.0497  0.5619
    7MOL   H840 6612   6.882   5.405   0.749  0.6787 -0.5479  0.7331
    7MOL   H841 6613   6.919   5.544   0.668 -0.2829 -0.4877  0.1588
    7MOL   H842 6614   6.914   5.522   0.982 -2.0085  2.4496  1.1869
    7MOL   H843 6615   6.961   5.667   0.890  0.2361  0.6475 -0.9315
    7MOL   H844 6616   6.688   5.536   0.890  0.5451  0.0232 -1.3459
    7MOL   H845 6617   6.727   5.678   0.784 -0.2330  0.1173  0.1005
    7MOL   H846 6618   6.760   5.803   0.975 -1.7467  1.3689  1.6645
    7MOL   H847 6619   6.733   5.672   1.088 -0.0113  1.5187  1.3497
    7MOL   H848 6620   6.501   5.640   1.002 -0.5684  0.1760 -0.1227
    7MOL   H849 6621   6.519   5.762   0.885 -0.4835  0.1370 -0.3053
    7MOL   H850 6622   6.557   5.925   1.070  1.5665 -0.5813 -1.8570
    7MOL   H851 6623   6.528   5.794   1.193  1.4673 -2.0909 -1.9783
    7MOL   H852 6624   6.284   5.788   1.081 -0.1065  0.2461  1.3434
    7MOL   H853 6625   6.342   5.936   1.010  1.1879  0.7280 -0.0866
    7MOL   H854 6626   6.335   5.907   1.311 -0.7067 -1.6621 -1.0245
    7MOL   H855 6627   6.378   6.047   1.221 -0.0087 -0.2497 -0.3031
    7MOL   H856 6628   6.132   6.009   1.319  1.3886 -0.8494  0.3635
    7MOL   H857 6629   6.116   5.891   1.188  1.1584 -0.4794 -0.9015
    7MOL   H858 6630   5.910   6.333   1.095 -2.3481 -1.5643 -2.3476
    7MOL   H859 6631   6.086   6.345   1.084 -1.6428  1.5362  0.0114
    7MOL   H860 6632   5.944   6.171   0.882  0.1365 -0.1781 -0.4024
    7MOL   H861 6633   6.095   6.267   0.877  0.8042  1.1716  0.4008
    7MOL   H862 6634   5.990   6.464   0.819 -1.6159  1.7272  2.9848
    7MOL   H863 6635   5.840   6.420   0.882  0.2173  1.1205  0.6072
    7MOL   H864 6636   5.797   6.387   0.645  0.3274 -0.6536 -1.4731
    7MOL   H865 6637   5.843   6.222   0.692 -0.3817 -0.7517 -1.8952
    7MOL   O866 6638   5.941   6.306   0.455  0.0874 -0.4285  0.0888
    7MOL   C867 6639   6.023   6.236   0.355  0.3666  0.2886 -0.6254
    7MOL   C868 6640   6.000   6.293   0.215 -0.1958  0.3958 -0.0795
    7MOL   C869 6641   5.872   6.234   0.158  0.6702  0.3329  0.0782
    7MOL   C870 6642   5.825   6.304   0.035 -0.2229 -0.7877 -0.2566
    7MOL   C871 6643   5.706   6.230   7.743  0.0930  0.2095  0.6672
    7MOL   C872 6644   5.638   6.300   7.633  0.1997 -0.8583  0.7908
    7MOL   C873 6645   5.512   6.225   7.579  0.1084  0.1996 -0.2108
    7MOL   C874 6646   5.437   6.295   7.469  0.1829  0.5876 -0.2216
    7MOL   C875 6647   5.310   6.208   7.429 -0.2562  0.4141 -0.2177
    7MOL   C876 6648   5.218   6.276   7.327  0.1522  0.9211 -0.3518
    7MOL   O877 6649   5.307   6.300   7.219 -0.6062 -0.0539 -0.6317
    7MOL   C878 6650   5.310   6.211   7.118 -0.0483  0.1171  0.0918
    7MOL   O879 6651   5.224   6.130   7.081  0.0411  0.0251  0.6124
    7MOL   C880 6652   5.437   6.223   7.031 -0.1231  0.0927  0.4213
    7MOL   C881 6653   5.448   6.354   6.956 -0.4410 -0.3131  0.5234
    7MOL   C882 6654   5.457   6.488   7.034 -0.1475  1.0109 -0.5479
    7MOL   C883 6655   5.578   6.488   7.134 -0.3491 -0.0355  1.2424
    7MOL   C884 6656   5.568   6.606   7.232  0.0404 -0.5127  0.3067
    7MOL   O885 6657   5.565   6.585   7.352  0.7657  0.2912  0.2928
    7MOL   H886 6658   6.130   6.236   0.380 -0.2175  1.7531  2.1303
    7MOL   H887 6659   5.992   6.132   0.363  0.3158  0.3226 -0.3708
    7MOL   H888 6660   6.080   6.256   0.151  1.1480  2.0825  0.5925
    7MOL   H889 6661   6.006   6.402   0.212  1.6396  0.2757 -1.4504
    7MOL   H890 6662   5.883   6.128   0.134  1.0666 -0.1489  2.2654
    7MOL   H891 6663   5.803   6.222   0.241 -0.2910  2.4785 -0.3827
    7MOL   H892 6664   5.891   6.321   7.715 -1.2791  1.8732 -0.6102
    7MOL   H893 6665   5.800   6.403   0.072  0.0310 -1.3605  1.5123
    7MOL   H894 6666   5.635   6.211   0.059 -0.3542  0.4262  0.3254
    7MOL   H895 6667   5.736   6.128   7.718 -1.3794  0.0436 -0.4807
    7MOL   H896 6668   5.709   6.314   7.551  0.8836  0.1668  1.5551
    7MOL   H897 6669   5.617   6.400   7.673  0.2288 -0.3649 -0.3900
    7MOL   H898 6670   5.437   6.218   7.658 -0.8528  0.2407 -1.1061
    7MOL   H899 6671   5.540   6.123   7.552  1.2375  0.7969 -1.3365
    7MOL   H900 6672   5.506   6.313   7.386 -0.7250  0.7525 -0.9451
    7MOL   H901 6673   5.410   6.396   7.503  2.4137  1.7938 -1.9190
    7MOL   H902 6674   5.344   6.111   7.391  2.7036  1.6526 -0.8755
    7MOL   H903 6675   5.249   6.190   7.517  0.2484 -0.4515 -0.0397
    7MOL   H904 6676   5.193   6.370   7.375  0.3652 -0.0675  1.7207
    7MOL   H905 6677   5.131   6.215   7.304  2.7571 -2.4117 -1.9560
    7MOL   H906 6678   5.532   6.209   7.082  0.1580 -4.0109 -1.0005
    7MOL   H907 6679   5.429   6.150   6.950  1.6060 -0.1438  0.4471
    7MOL   H908 6680   5.384   6.360   6.868 -0.8253  3.3249  0.9854
    7MOL   H909 6681   5.535   6.342   6.892  1.0180  2.4663  1.9228
    7MOL   H910 6682   5.362   6.519   7.079 -1.0871  1.3588 -2.7340
    7MOL   H911 6683   5.482   6.567   6.963  5.8358  0.8837  1.1203
    7MOL   H912 6684   5.669   6.515   7.081 -0.8550  2.1633  1.4408
    7MOL   H913 6685   5.595   6.396   7.189  1.4898 -0.3515  0.2117
    7MOL   O914 6686   5.590   6.722   7.174  0.1564 -0.1701  0.4797
    7MOL   C915 6687   5.571   6.839   7.247  0.1528  0.0744 -0.1480
    7MOL   C916 6688   5.590   6.958   7.157 -0.1047  0.5625  0.3059
    7MOL   C917 6689   5.643   7.081   7.234  0.5909 -0.1523  0.3540
    7MOL   C918 6690   5.665   7.209   7.147  0.0978 -0.2961  0.6255
    7MOL   C919 6691   5.681   7.336   7.232  0.9198 -0.2880  0.3202
    7MOL   C920 6692   5.698   7.459   7.149 -0.1103 -0.1224  0.3069
    7MOL   C921 6693   5.711   7.586   7.233 -0.2998 -0.2134 -0.0078
    7MOL   C922 6694   5.703   7.713   7.159 -0.7310  0.3568  0.2989
    7MOL   C923 6695   5.809   7.729   7.045 -0.8830 -0.7455  0.2589
    7MOL   C924 6696   5.800   0.105   6.980 -0.6823 -0.5631  0.0528
    7MOL   O925 6697   5.854   0.193   7.084  0.2520  0.5136 -0.2636
    7MOL   C926 6698   5.850   0.323   7.055  0.1653  0.6497 -0.4915
    7MOL   O927 6699   5.830   0.370   6.946 -0.1356  0.7935  0.0300
    7MOL   C928 6700   5.894   0.410   7.175  0.1604  0.1387 -0.5263
    7MOL   C929 6701   5.822   0.393   7.318  0.0137  1.0574 -0.8606
    7MOL   C930 6702   5.825   0.533   7.396  0.4105 -0.3484 -0.6111
    7MOL   C931 6703   5.966   0.579   7.412 -0.0279 -0.1406 -0.8918
    7MOL   C932 6704   5.993   0.691   7.508  0.2185 -0.3586  0.0284
    7MOL   O933 6705   5.906   0.735   7.585 -0.4220  0.2003  0.2107
    7MOL   H934 6706   5.472   6.850   7.293  0.6395  0.2841  0.8647
    7MOL   H935 6707   5.644   6.825   7.327  0.5313  1.7649 -0.1735
    7MOL   H936 6708   5.507   6.981   7.089 -1.3973 -3.3494  0.4119
    7MOL   H937 6709   5.667   6.930   7.085 -1.3560  0.7020 -1.1412
    7MOL   H938 6710   5.566   7.108   7.306 -0.1658 -0.1143 -0.4695
    7MOL   H939 6711   5.737   7.059   7.284  0.4912 -0.0590  0.5870
    7MOL   H940 6712   5.570   7.221   7.095  0.2748  0.0059  0.3710
    7MOL   H941 6713   5.738   7.192   7.068  0.4118  1.8039  0.4375
    7MOL   H942 6714   5.774   7.330   7.289  2.4820 -0.2493 -2.1308
    7MOL   H943 6715   5.592   7.341   7.295  0.7320  1.3294 -0.0618
    7MOL   H944 6716   5.613   7.469   7.082  0.2328 -2.0072 -0.4670
    7MOL   H945 6717   5.785   7.443   7.085 -0.0258  0.7933  0.1857
    7MOL   H946 6718   5.806   7.584   7.288  0.3730 -0.1072 -1.1529
    7MOL   H947 6719   5.634   7.576   7.309 -1.2680  0.0932 -0.9437
    7MOL   H948 6720   5.705   0.034   7.227  1.2943  0.1026  0.5839
    7MOL   H949 6721   5.602   7.706   7.118  0.0327  0.2663 -1.5890
    7MOL   H950 6722   5.912   7.710   7.074 -1.3260 -0.3101  2.1959
    7MOL   H951 6723   5.793   7.660   6.963  1.2947  0.1373 -0.9278
    7MOL   H952 6724   5.698   0.129   6.951 -0.3365  1.1778  0.2045
    7MOL   H953 6725   5.865   0.107   6.892  0.1806  0.6169  0.6958
    7MOL   H954 6726   6.001   0.394   7.177  0.1561  0.1018 -0.5470
    7MOL   H955 6727   5.888   0.515   7.149 -0.8037  0.1431 -0.3209
    7MOL   H956 6728   5.877   0.323   7.381  0.5928  2.1329 -0.1630
    7MOL   H957 6729   5.721   0.355   7.302  1.2983 -2.9681  0.0335
    7MOL   H958 6730   5.784   0.531   7.497 -0.5539 -1.2172 -1.0137
    7MOL   H959 6731   5.769   0.605   7.337  1.5080  1.5176  0.5504
    7MOL   H960 6732   6.004   0.606   7.314 -0.7950  0.2332 -1.0923
    7MOL   H961 6733   6.029   0.502   7.458 -0.3777 -1.1222 -2.0167
    7MOL   H962 6734   6.095   0.728   7.511  0.1853 -0.3013  0.4720
    8MOL     O1 6735   3.920   6.379   3.405 -0.0677  0.7618  0.2414
    8MOL     C2 6736   4.050   6.389   3.350  0.2184  0.6099  0.2682
    8MOL     C3 6737   4.145   6.470   3.431  0.0904  0.1202  0.1741
    8MOL     C4 6738   4.285   6.465   3.368 -0.1675  0.6118 -1.0714
    8MOL     C5 6739   4.389   6.549   3.442  0.1847  0.5168  0.3903
    8MOL     C6 6740   4.529   6.573   3.371  0.4074  0.4974  0.0818
    8MOL     C7 6741   4.608   6.441   3.347  0.5022 -0.5375  0.1639
    8MOL     C8 6742   4.727   6.472   3.263 -0.0490 -0.4394 -0.1182
    8MOL     C9 6743   4.800   6.342   3.229  0.0829  0.2058  0.0651
    8MOL    C10 6744   4.937   6.370   3.171  0.7487  0.5566 -0.5989
    8MOL    C11 6745   5.008   6.242   3.127 -0.7822  0.2237  0.6124
    8MOL    O12 6746   5.036   6.154   3.238 -0.2252  0.2951 -0.1699
    8MOL    C13 6747   5.152   6.167   3.302  0.8163 -0.0852  0.3730
    8MOL    O14 6748   5.235   6.250   3.283  0.5983 -0.2983 -0.5022
    8MOL    C15 6749   5.179   6.064   3.411  0.0938  0.0678 -0.3715
    8MOL    C16 6750   5.157   6.114   3.557 -0.3053  0.4111  0.9095
    8MOL    C17 6751   5.227   6.239   3.617 -0.3861 -0.6925  0.1670
    8MOL    C18 6752   5.381   6.220   3.636 -0.4775  0.2354 -0.2792
    8MOL    C19 6753   5.460   6.351   3.646 -0.1152  0.1249 -0.0394
    8MOL    O20 6754   5.535   6.386   3.556  0.0871  0.3019  0.7141
    8MOL    H21 6755   4.079   6.284   3.341 -5.0436 -0.8901 -1.2083
    8MOL    H22 6756   4.042   6.411   3.243  0.5097 -2.4994 -0.4464
    8MOL    H23 6757   4.155   6.421   3.528 -0.1230  0.2263  0.2492
    8MOL    H24 6758   4.107   6.572   3.441 -0.2732  0.1377 -1.3216
    8MOL    H25 6759   4.321   6.362   3.374 -0.0295  0.6836 -0.6787
    8MOL    H26 6760   4.292   6.492   3.263  0.0166 -1.6826 -1.6799
    8MOL    H27 6761   4.412   6.501   3.537  0.6159 -0.2329 -0.0921
    8MOL    H28 6762   4.353   6.650   3.465 -1.5188  0.2373 -0.9819
    8MOL    H29 6763   4.593   6.629   3.439 -0.6279  2.1210 -0.2376
    8MOL    H30 6764   4.530   6.632   3.279 -4.9014 -0.0839 -0.4955
    8MOL    H31 6765   4.554   6.355   3.306  2.6595 -2.2715  0.8704
    8MOL    H32 6766   4.634   6.408   3.448  0.1679  1.7802  1.0304
    8MOL    H33 6767   4.794   6.540   3.314  0.8996 -1.1749 -0.3724
    8MOL    H34 6768   4.699   6.532   3.176  2.5261  1.7740  0.5423
    8MOL    H35 6769   4.744   6.278   3.160 -1.5442 -1.2372  2.6322
    8MOL    H36 6770   4.809   6.269   3.310  2.7030 -0.1747 -0.5239
    8MOL    H37 6771   4.934   6.435   3.084  1.2817  2.0074  0.4580
    8MOL    H38 6772   4.983   6.415   3.258 -0.6650 -0.6472  0.7992
    8MOL    H39 6773   5.103   6.275   3.085 -0.1610  2.2948  3.5204
    8MOL    H40 6774   4.941   6.189   3.059 -0.8448  0.8601  0.1783
    8MOL    H41 6775   5.111   5.981   3.394 -2.1895  1.5588  1.1757
    8MOL    H42 6776   5.282   6.031   3.408  0.4864  1.2812 -0.4338
    8MOL    H43 6777   5.185   6.031   3.621 -1.3528  0.5797  1.5993
    8MOL    H44 6778   5.048   6.122   3.569 -0.5277 -1.5862  0.3063
    8MOL    H45 6779   5.178   6.268   3.710  0.7951  2.5682 -0.1306
    8MOL    H46 6780   5.207   6.324   3.552 -1.0248 -0.4544  0.6763
    8MOL    H47 6781   5.437   6.168   3.559  0.3041 -0.8047  0.9712
    8MOL    H48 6782   5.399   6.160   3.725 -2.1185  0.0066 -0.0823
    8MOL    H49 6783   3.927   6.322   3.479 -0.4503 -0.0883 -0.3747
    8MOL    O50 6784   5.435   6.425   3.754  0.2536  0.1719  0.1309
    8MOL    C51 6785   5.508   6.542   3.769  0.2943  0.2086  0.2487
    8MOL    C52 6786   5.527   6.585   3.916  0.1191 -0.3946 -0.2268
    8MOL    C53 6787   5.617   6.708   3.934  0.6679  0.8541 -0.3607
    8MOL    C54 6788   5.656   6.737   4.081  0.8296 -0.5527 -0.7500
    8MOL    C55 6789   5.754   6.855   4.087 -0.0966 -0.0575 -0.3452
    8MOL    C56 6790   5.827   6.848   4.223 -0.5386 -0.3422 -0.6842
    8MOL    C57 6791   5.919   6.971   4.241  1.0464  0.0831  0.2976
    8MOL    C58 6792   6.000   6.964   4.372 -0.3992  0.3086 -0.0306
    8MOL    C59 6793   6.087   7.096   4.395  0.5686 -0.2913 -0.2782
    8MOL    C60 6794   6.126   7.107   4.538 -0.6347  0.4921  0.2996
    8MOL    O61 6795   6.012   7.140   4.615  0.3645  0.6521  0.6440
    8MOL    C62 6796   6.020   7.135   4.757  0.1002  0.3943  0.0424
    8MOL    O63 6797   6.120   7.106   4.819 -0.3583 -0.2553 -0.4164
    8MOL    C64 6798   5.895   7.168   4.824 -0.3735 -0.3862  0.9964
    8MOL    C65 6799   5.791   7.059   4.817  0.1172  0.3640  0.4724
    8MOL    C66 6800   5.805   6.957   4.933 -0.1562 -0.1129  0.2908
    8MOL    C67 6801   5.713   6.839   4.919  0.2413  0.9688  0.4453
    8MOL    C68 6802   5.756   6.739   4.809 -0.4864  0.1366  0.1829
    8MOL    O69 6803   5.699   6.742   4.700 -0.3901  0.3636 -0.1499
    8MOL    H70 6804   5.610   6.536   3.730 -0.2194 -0.3263 -1.0403
    8MOL    H71 6805   5.461   6.625   3.716  1.9287  1.0488  0.0721
    8MOL    H72 6806   5.549   6.499   3.979  2.8380  0.5018  0.0957
    8MOL    H73 6807   5.426   6.605   3.951  0.6541  1.3074  0.3691
    8MOL    H74 6808   5.705   6.705   3.869  0.0526 -1.6907 -1.1084
    8MOL    H75 6809   5.557   6.787   3.889  2.1801  1.7970 -0.7669
    8MOL    H76 6810   5.701   6.644   4.115 -0.0299 -0.5491  0.4359
    8MOL    H77 6811   5.565   6.758   4.138  1.1001  1.9088 -1.1468
    8MOL    H78 6812   5.691   6.941   4.061 -1.1754 -0.7346  0.0378
    8MOL    H79 6813   5.817   6.838   3.999  0.0191 -0.9504 -0.0901
    8MOL    H80 6814   5.877   6.752   4.235 -1.2048 -0.3198  2.7918
    8MOL    H81 6815   5.761   6.839   4.309 -0.4201 -0.8250 -0.6407
    8MOL    H82 6816   5.873   7.069   4.226  0.7432  0.3156  2.5791
    8MOL    H83 6817   5.987   6.972   4.155  0.1398 -2.2270 -0.4715
    8MOL    H84 6818   6.059   6.872   4.365 -2.0955 -0.8814  0.9026
    8MOL    H85 6819   5.929   6.949   4.453 -3.8007 -1.7847 -3.2454
    8MOL    H86 6820   6.171   7.082   4.327  0.3038  0.2062 -0.7155
    8MOL    H87 6821   6.027   7.184   4.371  0.0146  0.1801  2.6165
    8MOL    H88 6822   6.205   7.182   4.544 -0.9763  0.7938  0.9995
    8MOL    H89 6823   6.169   7.010   4.562  0.2919  0.2450 -2.1841
    8MOL    H90 6824   5.899   7.212   4.924  3.7842  0.2866  0.6369
    8MOL    H91 6825   5.861   7.258   4.772 -1.2871 -1.2257  0.1308
    8MOL    H92 6826   5.778   7.013   4.719 -0.5788  2.0466 -0.2468
    8MOL    H93 6827   5.695   7.110   4.823 -1.0205 -1.0981 -3.6083
    8MOL    H94 6828   5.792   7.008   5.029  1.6439  2.1089 -0.5982
    8MOL    H95 6829   5.906   6.922   4.913  0.2713  0.2435  1.7259
    8MOL    H96 6830   5.626   6.890   4.878 -0.1837 -1.0153 -1.2736
    8MOL    H97 6831   5.691   6.787   5.012 -2.6048 -0.8224 -1.1614
    8MOL    O98 6832   5.867   6.679   4.843 -0.3890 -0.9223  0.7216
    8MOL    C99 6833   5.935   6.590   4.759  0.1768  0.1993  0.0479
    8MOL   C100 6834   6.081   6.597   4.803  0.1915  0.9948 -0.3473
    8MOL   C101 6835   6.171   6.671   4.701 -0.5500 -0.4238  0.1634
    8MOL   C102 6836   6.320   6.681   4.738  0.0499  0.1635 -0.2263
    8MOL   C103 6837   6.392   6.796   4.659  0.5075 -0.1607  0.0881
    8MOL   C104 6838   6.375   6.777   4.505  0.6440 -0.3146 -0.0408
    8MOL   C105 6839   6.432   6.896   4.427  0.7075 -0.3517  0.3277
    8MOL   C106 6840   6.421   6.875   4.276  0.6193 -0.3064 -0.3259
    8MOL   C107 6841   6.468   6.993   4.179 -0.5265 -0.1359  0.3800
    8MOL   C108 6842   6.425   6.977   4.033 -0.2032  0.0087 -0.6807
    8MOL   O109 6843   6.505   7.047   3.946  0.7467 -0.1093  0.5992
    8MOL   C110 6844   6.626   7.012   3.911  0.5698 -0.1663 -0.2139
    8MOL   O111 6845   6.690   6.909   3.952 -0.3535  0.3692 -0.0156
    8MOL   C112 6846   6.684   7.105   3.804  0.0191  0.3391  0.1866
    8MOL   C113 6847   6.657   7.254   3.828 -0.3414 -0.0940  0.1366
    8MOL   C114 6848   6.523   7.302   3.773 -0.5731  0.1103  0.2724
    8MOL   C115 6849   6.526   7.459   3.735  0.3152 -0.4180  0.0956
    8MOL   C116 6850   6.536   7.543   3.861  0.5665 -0.2252 -0.3029
    8MOL   O117 6851   6.645   7.600   3.881  0.5161 -0.0031 -0.3106
    8MOL   H118 6852   5.894   6.490   4.773 -3.0042  1.3099 -0.8436
    8MOL   H119 6853   5.933   6.626   4.656  1.0720 -0.5143 -0.2196
    8MOL   H120 6854   6.113   6.493   4.799 -0.8466  0.6414  0.6049
    8MOL   H121 6855   6.106   6.636   4.901  0.6684 -0.2868  0.0475
    8MOL   H122 6856   6.167   6.620   4.605 -1.4927 -0.0430 -0.0096
    8MOL   H123 6857   6.129   6.770   4.686  1.4261  0.4990  0.6104
    8MOL   H124 6858   6.373   6.587   4.719 -0.0663 -0.0875  0.6579
    8MOL   H125 6859   6.328   6.696   4.846 -1.7628  1.0199 -0.1928
    8MOL   H126 6860   6.499   6.792   4.679  0.3470 -2.7425  0.6987
    8MOL   H127 6861   6.363   6.892   4.701  0.1951  0.2654 -1.0889
    8MOL   H128 6862   6.268   6.770   4.486  0.1823  2.0442  1.3689
    8MOL   H129 6863   6.424   6.686   4.473  2.9819  0.0095  2.4068
    8MOL   H130 6864   6.538   6.918   4.442  0.7756  0.0771 -0.7792
    8MOL   H131 6865   6.367   6.979   4.453  2.4125 -0.1727  4.3736
    8MOL   H132 6866   6.324   6.836   4.245  0.2378  0.6225 -0.3057
    8MOL   H133 6867   6.485   6.794   4.241  0.0519 -1.3040  0.9151
    8MOL   H134 6868   6.424   7.085   4.217 -0.5934 -1.4768  3.7236
    8MOL   H135 6869   6.576   7.010   4.180 -0.4523 -0.5602 -0.0790
    8MOL   H136 6870   6.327   7.024   4.037 -0.5246 -0.8056  2.8772
    8MOL   H137 6871   6.425   6.873   4.001 -0.6011  0.0740 -0.8891
    8MOL   H138 6872   6.792   7.106   3.819  0.2197 -1.4568 -0.9729
    8MOL   H139 6873   6.659   7.074   3.703 -1.2012  1.1217  0.2481
    8MOL   H140 6874   6.731   7.325   3.790 -0.0737 -1.0447 -1.1702
    8MOL   H141 6875   6.650   7.274   3.934 -1.9455 -2.5984  0.5382
    8MOL   H142 6876   6.447   7.287   3.850 -0.9578 -1.3300 -0.3768
    8MOL   H143 6877   6.504   7.252   3.678 -0.2782  0.0873  0.2259
    8MOL   H144 6878   6.438   7.492   3.680  0.5410 -1.2373 -0.7760
    8MOL   H145 6879   6.602   7.487   3.662 -1.8531  0.2317 -1.9832
    8MOL   O146 6880   6.424   7.552   3.929 -0.4594  0.9248  0.0919
    8MOL   C147 6881   6.420   7.626   4.051  0.1414  0.0418 -0.7013
    8MOL   C148 6882   6.465   7.542   4.172 -0.7559 -0.2694  0.5201
    8MOL   C149 6883   6.352   7.475   4.247 -0.0125  0.1449  0.0650
    8MOL   C150 6884   6.290   7.345   4.181 -0.1612  0.4147 -0.5827
    8MOL   C151 6885   6.171   7.376   4.090 -0.7494  0.1693  0.3731
    8MOL   C152 6886   6.109   7.255   4.025  0.6088 -0.4479 -0.1221
    8MOL   C153 6887   5.986   7.291   3.937 -0.2471  0.4171  0.4681
    8MOL   C154 6888   5.947   7.158   3.870  0.4155 -0.8898  0.5974
    8MOL   C155 6889   5.818   7.172   3.782  0.2607 -0.7867  0.5302
    8MOL   C156 6890   5.768   7.035   3.725  0.3513 -0.7296 -0.2919
    8MOL   O157 6891   5.676   7.053   3.619  0.0096  0.3982 -0.0655
    8MOL   C158 6892   5.550   7.016   3.620  0.2893  0.7469 -0.5072
    8MOL   O159 6893   5.494   6.957   3.710  0.0339  0.2091 -0.1484
    8MOL   C160 6894   5.474   7.067   3.497  0.3678  0.3305 -0.0006
    8MOL   C161 6895   5.328   7.082   3.515  0.4229 -0.3828  0.7358
    8MOL   C162 6896   5.247   7.083   3.382 -0.7105 -0.0121 -0.2457
    8MOL   C163 6897   5.099   7.112   3.418  0.5556  0.3807  0.0625
    8MOL   C164 6898   5.071   7.257   3.458 -0.2807  0.1617 -0.0974
    8MOL   O165 6899   4.978   7.287   3.536 -0.3999  0.4858 -0.2743
    8MOL   H166 6900   6.470   7.722   4.058  0.5932 -0.0660 -2.2555
    8MOL   H167 6901   6.315   7.652   4.062  0.1120 -0.9645  1.7437
    8MOL   H168 6902   6.517   7.608   4.242 -1.3079 -1.2995  1.9337
    8MOL   H169 6903   6.546   7.471   4.151 -0.0461  1.3621 -2.5595
    8MOL   H170 6904   6.410   7.442   4.333  1.3695 -1.2189 -1.3564
    8MOL   H171 6905   6.278   7.550   4.275 -0.6147  0.2141 -1.6610
    8MOL   H172 6906   6.245   7.290   4.263  0.0740  0.9230 -0.1176
    8MOL   H173 6907   6.366   7.283   4.132  0.7841 -1.4194  3.0252
    8MOL   H174 6908   6.214   7.439   4.013  1.1634 -0.9743  0.4589
    8MOL   H175 6909   6.092   7.435   4.135 -3.2315 -2.2041 -0.7456
    8MOL   H176 6910   6.080   7.190   4.108  0.2965  1.0995  1.0020
    8MOL   H177 6911   6.188   7.202   3.971 -0.0135 -0.8622 -0.6323
    8MOL   H178 6912   6.008   7.371   3.866 -2.6158  0.3508 -0.3994
    8MOL   H179 6913   5.907   7.328   4.002 -1.9921  2.6954 -2.8030
    8MOL   H180 6914   5.940   7.081   3.947  2.4237 -2.0957 -0.4002
    8MOL   H181 6915   6.022   7.137   3.794 -1.3642 -0.9565 -1.1684
    8MOL   H182 6916   5.741   7.228   3.834  0.1808  1.7852 -2.2588
    8MOL   H183 6917   5.845   7.235   3.697 -0.0920 -1.5201 -0.1379
    8MOL   H184 6918   5.727   6.976   3.808  2.2437  0.2287  1.3460
    8MOL   H185 6919   5.842   6.968   3.681 -0.6300 -0.7283 -1.9717
    8MOL   H186 6920   5.517   7.165   3.479  0.7838  0.2715  0.6630
    8MOL   H187 6921   5.506   7.012   3.408  2.1040  1.2727  0.0290
    8MOL   H188 6922   5.309   7.180   3.559  0.6515 -0.1496  0.3166
    8MOL   H189 6923   5.283   7.008   3.582  1.6482 -1.0659  0.8126
    8MOL   H190 6924   5.265   6.992   3.326  0.0654 -0.7389  1.1557
    8MOL   H191 6925   5.286   7.155   3.309 -0.0310 -0.9552 -0.8172
    8MOL   H192 6926   5.065   7.034   3.486  1.2564  0.0708  0.0611
    8MOL   H193 6927   5.034   7.084   3.335 -0.9333  2.0689  0.6309
    8MOL   O194 6928   5.146   7.342   3.392 -0.2185  0.3998 -0.3369
    8MOL   C195 6929   5.154   7.477   3.433 -0.3858 -0.5668 -0.5706
    8MOL   C196 6930   5.291   7.496   3.491  0.0624 -0.0289 -0.0579
    8MOL   C197 6931   5.405   7.461   3.398  0.5516 -0.2049 -0.2520
    8MOL   C198 6932   5.540   7.466   3.472 -0.0846 -0.1650  0.3364
    8MOL   C199 6933   5.657   7.418   3.394 -0.1312 -0.7266  0.4630
    8MOL   C200 6934   5.703   7.511   3.277 -0.1153  0.4844 -0.5303
    8MOL   C201 6935   5.620   7.511   3.146  0.3056  0.0739  0.8223
    8MOL   C202 6936   5.570   7.649   3.095  0.3078 -0.4913 -0.5625
    8MOL   C203 6937   5.468   7.633   2.975 -0.7708  0.1246  0.1761
    8MOL   C204 6938   5.429   0.001   2.900  0.3957 -0.4454  0.3469
    8MOL   O205 6939   5.330   7.738   2.799 -0.1511 -0.0104  0.2807
    8MOL   C206 6940   5.199   7.744   2.830 -0.4074 -0.0595 -0.3197
    8MOL   O207 6941   5.143   7.734   2.940 -0.1188  0.3932  0.0046
    8MOL   C208 6942   5.119   7.753   2.706  0.2729  0.3693 -0.8473
    8MOL   C209 6943   5.038   0.115   2.683 -0.2809 -0.5298  0.5457
    8MOL   C210 6944   4.927   0.151   2.780  0.4955  0.4432 -0.0101
    8MOL   C211 6945   4.848   0.271   2.726  0.8371  0.3984 -0.0934
    8MOL   C212 6946   4.877   0.406   2.794  0.2081  0.2064  0.2357
    8MOL   O213 6947   4.778   0.471   2.830  0.4832 -0.3555 -0.1792
    8MOL   H214 6948   5.156   7.539   3.344 -2.3284 -2.1434 -1.7421
    8MOL   H215 6949   5.087   7.501   3.515  0.7795 -1.7012  0.7502
    8MOL   H216 6950   5.288   7.437   3.583 -0.1434 -0.0295 -0.0639
    8MOL   H217 6951   5.302   7.601   3.521 -1.3962  1.1450 -3.4178
    8MOL   H218 6952   5.393   7.362   3.353  1.7569 -0.6146  0.2947
    8MOL   H219 6953   5.395   7.536   3.320 -0.8882 -0.4390 -0.3040
    8MOL   H220 6954   5.533   7.402   3.560  2.7876 -2.2660 -0.9017
    8MOL   H221 6955   5.566   7.561   3.518  0.3295 -0.4486  0.6884
    8MOL   H222 6956   5.634   7.319   3.354 -1.7565  0.2439 -1.0564
    8MOL   H223 6957   5.748   7.416   3.455  1.1251 -0.0863 -1.3547
    8MOL   H224 6958   5.802   7.474   3.250 -0.9418 -1.3359 -1.1475
    8MOL   H225 6959   5.714   7.611   3.319  2.2062 -0.9083  2.3659
    8MOL   H226 6960   5.526   7.457   3.157  0.2298 -0.0265 -0.2921
    8MOL   H227 6961   5.671   7.452   3.071  1.5337 -0.0687  1.7560
    8MOL   H228 6962   5.662   7.700   3.065 -1.8225  3.4524 -0.6806
    8MOL   H229 6963   5.521   7.707   3.173  1.0463 -1.8193  0.9267
    8MOL   H230 6964   5.519   7.576   2.897 -3.0980 -2.1613  0.2495
    8MOL   H231 6965   5.381   7.573   3.002  0.1273 -0.2497  2.2770
    8MOL   H232 6966   5.505   0.046   2.837 -1.2813  0.2998 -1.1783
    8MOL   H233 6967   5.388   0.072   2.972 -2.5512 -0.6828 -1.0444
    8MOL   H234 6968   5.188   7.733   2.624  3.2107  0.5507  1.4847
    8MOL   H235 6969   5.042   7.676   2.711  0.6680 -0.0643 -1.4299
    8MOL   H236 6970   5.005   0.123   2.580 -1.6018 -0.2134  0.9742
    8MOL   H237 6971   5.107   0.198   2.700 -2.1446  0.3945  4.1998
    8MOL   H238 6972   4.963   0.170   2.881  1.0343 -0.0311 -0.1118
    8MOL   H239 6973   4.861   0.064   2.786  0.0318  0.7131 -1.2151
    8MOL   H240 6974   4.741   0.262   2.741  0.7393 -0.5340 -1.2642
    8MOL   H241 6975   4.861   0.295   2.620  1.1998 -0.2238 -0.1942
    8MOL   O242 6976   5.007   0.435   2.812  0.6654  0.0934  0.3865
    8MOL   C243 6977   5.039   0.546   2.887 -0.6441 -0.6983 -0.3746
    8MOL   C244 6978   5.103   0.651   2.799 -0.3665 -0.4153  0.1007
    8MOL   C245 6979   5.216   0.609   2.715  0.1756 -0.1318 -0.3740
    8MOL   C246 6980   5.285   0.721   2.641  0.0701 -0.4941  0.0922
    8MOL   C247 6981   5.208   0.760   2.512 -0.1985 -0.1738 -0.2996
    8MOL   C248 6982   5.274   0.872   2.427  0.5699 -0.0038 -0.1551
    8MOL   C249 6983   5.211   0.892   2.296  0.5091 -0.4733  0.2541
    8MOL   C250 6984   5.281   0.991   2.200  0.2345  1.2192 -0.4677
    8MOL   C251 6985   5.186   1.024   2.078  0.1323 -0.4417  0.1693
    8MOL   C252 6986   5.217   1.148   1.994 -0.2262 -0.9539 -0.1402
    8MOL   O253 6987   5.353   1.162   1.955  0.1249  0.2283 -0.3369
    8MOL   C254 6988   5.409   1.077   1.860  0.1674  0.1378 -0.2097
    8MOL   O255 6989   5.355   1.000   1.776  0.1013  0.2510 -0.0923
    8MOL   C256 6990   5.558   1.108   1.843  0.0811  0.7919 -0.3377
    8MOL   C257 6991   5.594   1.134   1.695 -0.3014 -0.1198  0.5660
    8MOL   C258 6992   5.527   1.256   1.628 -0.8727  0.0513 -0.0613
    8MOL   C259 6993   5.598   1.307   1.497 -0.5973 -0.6141  0.2444
    8MOL   C260 6994   5.590   1.210   1.382  0.1857  0.0872  0.0714
    8MOL   O261 6995   5.675   1.125   1.362  0.2917  1.0116 -0.0005
    8MOL   H262 6996   4.961   0.580   2.955  2.2163  0.8213  2.2269
    8MOL   H263 6997   5.121   0.519   2.954  1.0850  3.1878 -0.8052
    8MOL   H264 6998   5.134   0.732   2.865  2.1751 -0.9174 -0.4308
    8MOL   H265 6999   5.021   0.702   2.747  0.5717  1.0369 -0.0018
    8MOL   H266 7000   5.287   0.565   2.784  1.2811 -1.6073 -2.3998
    8MOL   H267 7001   5.178   0.530   2.650 -1.1750  1.4214 -1.5135
    8MOL   H268 7002   5.381   0.692   2.598 -0.5699  1.0885 -2.5283
    8MOL   H269 7003   5.309   0.801   2.712  0.1511  0.2487 -0.7588
    8MOL   H270 7004   5.109   0.799   2.532  1.2479  3.3048  0.3894
    8MOL   H271 7005   5.201   0.671   2.449  1.0008  0.5052 -1.4355
    8MOL   H272 7006   5.378   0.843   2.414  0.5118  0.1587 -0.9574
    8MOL   H273 7007   5.272   0.956   2.496 -0.4996  1.5867 -2.1049
    8MOL   H274 7008   5.103   0.902   2.303  0.5617  0.6213 -0.3191
    8MOL   H275 7009   5.215   0.796   2.245 -0.1443 -1.3970  1.9170
    8MOL   H276 7010   5.379   0.951   2.175 -0.0784  0.4586 -0.5070
    8MOL   H277 7011   5.295   1.083   2.257 -0.8344  1.2450 -0.2276
    8MOL   H278 7012   5.174   0.939   2.011 -1.4950  0.5390 -0.8044
    8MOL   H279 7013   5.085   1.057   2.103  1.6593  2.5571  2.7516
    8MOL   H280 7014   5.200   1.234   2.059  0.3381 -1.3365  0.5270
    8MOL   H281 7015   5.138   1.166   1.921 -0.0626  0.5435  0.0216
    8MOL   H282 7016   5.566   1.205   1.892 -0.4555 -0.0955  1.5401
    8MOL   H283 7017   5.612   1.042   1.911 -2.0540 -0.3826  0.2540
    8MOL   H284 7018   5.593   1.042   1.638 -1.8065 -0.1116  0.5627
    8MOL   H285 7019   5.702   1.154   1.701 -0.3109  1.1916 -2.5934
    8MOL   H286 7020   5.528   1.338   1.699 -1.1403  1.3616 -1.5634
    8MOL   H287 7021   5.420   1.240   1.615 -1.3815  0.4027  3.3660
    8MOL   H288 7022   5.704   1.316   1.519 -0.8269  1.5145  0.5770
    8MOL   H289 7023   5.569   1.411   1.488 -1.2947 -0.9676 -2.1025
    8MOL   O290 7024   5.475   1.226   1.312  0.6975  0.4033 -0.1883
    8MOL   C291 7025   5.448   1.131   1.209  0.2282  0.2721 -0.2367
    8MOL   C292 7026   5.316   1.154   1.132 -0.0068  0.7066 -0.4341
    8MOL   C293 7027   5.351   1.231   0.994  0.6934  0.6775  0.3036
    8MOL   C294 7028   5.233   1.251   0.905 -0.2847  0.3180 -0.8513
    8MOL   C295 7029   5.239   1.361   0.803  0.0009  0.2357  0.3824
    8MOL   C296 7030   5.323   1.320   0.675  0.7562 -0.5776 -0.1934
    8MOL   C297 7031   5.328   1.432   0.570 -0.4457  0.3607  0.1348
    8MOL   C298 7032   5.399   1.393   0.437 -0.7345 -0.2896 -0.6058
    8MOL   C299 7033   5.301   1.374   0.324  0.8082 -0.3464  0.0107
    8MOL   C300 7034   5.244   1.497   0.256  0.3334 -0.0915  0.3761
    8MOL   O301 7035   5.336   1.586   0.200  0.1715 -0.0175  0.2008
    8MOL   C302 7036   5.397   1.565   0.078  0.5324  0.4988 -0.1844
    8MOL   O303 7037   5.378   1.474   7.760 -0.7901  0.2989  0.7646
    8MOL   C304 7038   5.492   1.681   0.047 -0.4075 -0.2503 -0.1877
    8MOL   C305 7039   5.415   1.815   0.025 -0.1363 -0.3046 -0.2856
    8MOL   C306 7040   5.287   1.814   7.694 -0.5713  0.1275 -0.4823
    8MOL   C307 7041   5.224   1.957   7.677 -0.0792 -0.0082  0.4777
    8MOL   C308 7042   5.105   1.988   7.760  0.3833 -0.6067 -0.4559
    8MOL   O309 7043   5.089   1.936   0.105 -0.5654  0.1161 -0.4378
    8MOL   H310 7044   5.541   1.134   1.152  0.3089  0.3180 -0.1046
    8MOL   H311 7045   5.448   1.032   1.254  1.7437  0.2733 -0.2060
    8MOL   H312 7046   5.249   1.196   1.207  1.5800 -1.1613  2.1218
    8MOL   H313 7047   5.274   1.056   1.110 -3.5009  2.1575 -0.6025
    8MOL   H314 7048   5.399   1.326   1.018 -0.3774  1.0567  0.9601
    8MOL   H315 7049   5.421   1.163   0.946 -1.7247 -0.1369 -2.1976
    8MOL   H316 7050   5.139   1.257   0.961 -0.0397  0.4277 -0.4521
    8MOL   H317 7051   5.224   1.151   0.861  3.5141 -0.1680 -0.6284
    8MOL   H318 7052   5.264   1.460   0.840  2.7512 -0.4202  0.3773
    8MOL   H319 7053   5.136   1.365   0.767 -0.2155 -0.8449  0.8306
    8MOL   H320 7054   5.268   1.240   0.624  2.7305 -2.7905  1.0258
    8MOL   H321 7055   5.423   1.289   0.706  1.2735 -1.9440 -3.0788
    8MOL   H322 7056   5.377   1.516   0.619 -2.6546  0.5371  2.0964
    8MOL   H323 7057   5.229   1.471   0.546 -0.2179  0.2889 -0.9832
    8MOL   H324 7058   5.451   1.300   0.460 -1.2258 -0.1368  1.1929
    8MOL   H325 7059   5.488   1.453   0.415 -0.1183 -0.7170  0.6457
    8MOL   H326 7060   5.344   1.316   0.242  1.0614  0.9413 -0.7793
    8MOL   H327 7061   5.214   1.318   0.358 -0.2904  1.1661 -0.2808
    8MOL   H328 7062   5.177   1.543   0.328 -0.4385  0.6921 -0.8330
    8MOL   H329 7063   5.184   1.468   0.170  0.0064  0.7822  0.3044
    8MOL   H330 7064   5.576   1.692   0.115  2.2378  1.2039 -3.6001
    8MOL   H331 7065   5.532   1.655   7.714  1.9772  0.3200  0.6101
    8MOL   H332 7066   5.492   1.870   7.736 -0.4573 -1.4331 -1.9777
    8MOL   H333 7067   5.388   1.871   0.114  1.8197  0.5601 -0.2256
    8MOL   H334 7068   5.216   1.744   7.739  0.5061 -1.2092 -0.8406
    8MOL   H335 7069   5.313   1.781   7.594  0.3653  0.4620 -0.3516
    8MOL   H336 7070   5.203   1.946   7.571  0.4062  1.0085  0.2775
    8MOL   H337 7071   5.288   2.045   7.684  2.4075 -1.7562  0.5795
    8MOL   O338 7072   5.029   2.084   7.705  0.3529 -0.3546  0.0037
    8MOL   C339 7073   4.925   2.153   0.021  0.8227  0.3887  0.7791
    8MOL   C340 7074   4.986   2.280   0.077  0.2363  0.2150 -1.2420
    8MOL   C341 7075   5.045   2.382   7.741 -0.1609  0.0479  0.0141
    8MOL   C342 7076   5.081   2.524   0.029  0.4634 -0.2734 -0.7003
    8MOL   C343 7077   5.174   2.594   7.689  0.4230 -0.3099 -0.2581
    8MOL   C344 7078   5.240   2.721   7.753  0.9618  0.4802 -0.1068
    8MOL   C345 7079   5.302   2.820   7.648 -0.5883 -0.3606  0.1308
    8MOL   C346 7080   5.336   2.963   7.701 -0.4779  0.1641 -0.5584
    8MOL   C347 7081   5.468   2.974   0.017 -0.0208 -0.1080 -0.5651
    8MOL   C348 7082   5.534   3.114   0.030  0.8010  0.2880  0.1140
    8MOL   O349 7083   5.452   3.205   0.109 -0.2760  0.3799 -0.3522
    8MOL   C350 7084   5.371   3.282   0.044  0.2246  0.3596 -0.1087
    8MOL   O351 7085   5.357   3.277   7.687 -0.3131 -0.0495 -0.2116
    8MOL   C352 7086   5.295   3.376   0.139 -0.1806 -0.3402 -0.1113
    8MOL   C353 7087   5.195   3.471   0.062  0.1652 -0.0399 -0.0739
    8MOL   C354 7088   5.125   3.567   0.161  1.1903  0.1472 -0.2982
    8MOL   C355 7089   4.975   3.600   0.128  0.0895  1.2706 -0.1548
    8MOL   C356 7090   4.879   3.475   0.121  1.1403  0.0090  0.2423
    8MOL   O357 7091   4.872   3.390   0.211 -0.3226 -0.1051 -0.1405
    8MOL   H358 7092   4.844   2.175   7.716  0.0213  0.2154  1.6431
    8MOL   H359 7093   4.896   2.082   0.098  1.5230 -0.5908  0.1570
    8MOL   H360 7094   5.067   2.263   0.148 -1.6832 -1.5201  0.5706
    8MOL   H361 7095   4.912   2.327   0.141  1.4477 -1.3240  1.3397
    8MOL   H362 7096   5.130   2.331   7.698  0.0060  0.6017 -0.3186
    8MOL   H363 7097   4.976   2.396   7.658  1.2454 -1.3093 -1.4054
    8MOL   H364 7098   5.130   2.513   0.125 -0.4547  0.2675 -0.1568
    8MOL   H365 7099   4.985   2.576   0.031  0.3259 -0.4894 -1.3285
    8MOL   H366 7100   5.107   2.615   7.606  1.4326 -0.0093 -1.0177
    8MOL   H367 7101   5.255   2.532   7.650  0.9814  0.3544 -0.1661
    8MOL   H368 7102   5.310   2.698   0.068 -0.8870 -0.1638  1.3835
    8MOL   H369 7103   5.155   2.762   0.044 -1.0517 -1.7897 -1.4214
    8MOL   H370 7104   5.232   2.833   7.565  0.5137 -0.5655 -0.8455
    8MOL   H371 7105   5.391   2.778   7.600  0.4071 -0.2106  1.8241
    8MOL   H372 7106   5.255   3.008   7.759  0.9008  1.3012  0.5162
    8MOL   H373 7107   5.339   3.028   7.614  1.1103  0.4844 -0.2865
    8MOL   H374 7108   5.445   2.939   0.117 -4.1580  0.2971 -1.2947
    8MOL   H375 7109   5.550   2.913   7.743  0.2740  0.7546 -1.3251
    8MOL   H376 7110   5.555   3.145   7.692  1.7421 -1.3950 -0.2133
    8MOL   H377 7111   5.630   3.110   0.082  1.0533  1.5912 -0.2287
    8MOL   H378 7112   5.225   3.333   0.211 -1.9979 -0.5150 -1.9247
    8MOL   H379 7113   5.363   3.436   0.200 -2.4593  0.7859  1.3839
    8MOL   H380 7114   5.128   3.403   0.010 -0.4128 -0.6260  1.4059
    8MOL   H381 7115   5.242   3.531   7.749 -1.1880 -0.7069 -1.4300
    8MOL   H382 7116   5.193   3.652   0.175  1.3705 -0.1812  0.8606
    8MOL   H383 7117   5.145   3.517   0.255 -2.8915  1.5339  1.3939
    8MOL   H384 7118   4.966   3.643   0.028  0.5413  2.3601  0.2733
    8MOL   H385 7119   4.939   3.678   0.194 -0.0940  2.5511 -1.7407
    8MOL   O386 7120   4.818   3.466   7.764 -0.4471 -0.4260  0.2257
    8MOL   C387 7121   4.740   3.351   7.741 -0.2088  0.2533 -0.1625
    8MOL   C388 7122   4.816   3.229   7.683  0.4098 -1.1087  0.1956
    8MOL   C389 7123   4.725   3.102   7.664 -0.1884  0.0439  0.0608
    8MOL   C390 7124   4.811   2.970   7.656 -0.0539 -0.0892  0.1136
    8MOL   C391 7125   4.761   2.832   7.598 -0.1197 -0.0324 -0.5225
    8MOL   C392 7126   4.640   2.774   7.676 -0.9897 -0.1024  0.4716
    8MOL   C393 7127   4.583   2.651   7.616 -0.3929  0.7235  0.2334
    8MOL   C394 7128   4.485   2.676   7.500 -0.0779 -0.8049  0.0846
    8MOL   C395 7129   4.456   2.557   7.400  0.3225  0.3445  0.3528
    8MOL   C396 7130   4.360   2.598   7.284  0.6622 -0.4388 -0.0022
    8MOL   O397 7131   4.422   2.696   7.206 -0.7852  0.0785 -0.0855
    8MOL   C398 7132   4.369   2.814   7.170  0.2045 -0.1398 -0.0123
    8MOL   O399 7133   4.257   2.864   7.196  0.0866  0.1635 -0.2068
    8MOL   C400 7134   4.462   2.877   7.072 -0.1292 -0.4427  0.1946
    8MOL   C401 7135   4.586   2.947   7.137 -0.0844  0.8169 -0.2804
    8MOL   C402 7136   4.705   2.844   7.154  0.1634 -0.3023  0.3766
    8MOL   C403 7137   4.824   2.908   7.223  0.0713 -0.6117 -0.1740
    8MOL   C404 7138   4.937   2.805   7.250 -0.5468 -0.7491  0.0454
    8MOL   O405 7139   5.022   2.824   7.338  0.2728  0.3466  0.3980
    8MOL   H406 7140   4.685   3.324   0.067 -2.1918  3.7034 -0.2721
    8MOL   H407 7141   4.656   3.375   7.677 -0.8449  1.5636  1.1227
    8MOL   H408 7142   4.896   3.203   7.753 -0.8568 -2.5012  1.1778
    8MOL   H409 7143   4.868   3.258   7.592 -0.4230 -0.2859 -0.0206
    8MOL   H410 7144   4.657   3.094   7.749  0.6749 -0.8777  0.6788
    8MOL   H411 7145   4.657   3.114   7.580  1.7852  0.9756 -1.4590
    8MOL   H412 7146   4.843   2.951   7.758 -0.2784 -2.5996 -0.2399
    8MOL   H413 7147   4.899   2.989   7.595  1.7287 -0.2565  2.5795
    8MOL   H414 7148   4.855   2.781   7.621 -0.2449  0.2997  0.7590
    8MOL   H415 7149   4.738   2.837   7.492 -0.2499  0.4085 -0.4757
    8MOL   H416 7150   4.563   2.850   7.688 -0.3169  0.6712 -0.0042
    8MOL   H417 7151   4.674   2.744   0.010  1.2272  2.0023  0.4100
    8MOL   H418 7152   4.536   2.595   7.697  0.8846 -2.4229 -1.1165
    8MOL   H419 7153   4.668   2.592   7.582 -0.2866  0.7207  0.5059
    8MOL   H420 7154   4.515   2.768   7.450 -1.1561 -0.8050 -0.5780
    8MOL   H421 7155   4.382   2.697   7.529 -0.8045 -1.5766 -1.8532
    8MOL   H422 7156   4.551   2.512   7.371  1.4379  1.5422  2.0760
    8MOL   H423 7157   4.410   2.473   7.451 -0.9801  0.3745 -0.7389
    8MOL   H424 7158   4.270   2.630   7.338  0.2236 -1.1144 -0.3180
    8MOL   H425 7159   4.322   2.519   7.218 -1.1198  0.4317 -0.0516
    8MOL   H426 7160   4.503   2.797   7.010 -1.1374 -1.2891  0.6125
    8MOL   H427 7161   4.401   2.942   7.010 -0.0926  0.0137  0.6359
    8MOL   H428 7162   4.549   2.994   7.228  0.6614  1.5747 -0.3547
    8MOL   H429 7163   4.618   3.018   7.061  3.6019 -1.7995 -1.3469
    8MOL   H430 7164   4.735   2.810   7.055 -1.2920  0.1059 -0.2096
    8MOL   H431 7165   4.676   2.764   7.221  1.8752 -1.2714  0.0043
    8MOL   H432 7166   4.796   2.949   7.320 -0.4768  0.6538 -0.8582
    8MOL   H433 7167   4.856   2.988   7.157 -0.4812  0.0508  0.3501
    8MOL   O434 7168   4.946   2.699   7.154 -0.0409 -0.0387  0.4186
    8MOL   C435 7169   5.029   2.589   7.185  0.0292  0.2095 -0.0531
    8MOL   C436 7170   4.939   2.500   7.275 -0.4950  0.7985  0.4014
    8MOL   C437 7171   5.012   2.370   7.315 -0.8030 -1.2077 -0.2804
    8MOL   C438 7172   4.921   2.255   7.350  0.3957  0.0582 -0.6561
    8MOL   C439 7173   5.000   2.126   7.371  0.1189 -0.4235  0.1294
    8MOL   C440 7174   4.918   2.009   7.415  0.2627 -0.3753  0.1984
    8MOL   C441 7175   4.825   1.966   7.315  0.5535  0.2094  0.4816
    8MOL   C442 7176   4.754   1.837   7.353  0.1162  0.0195 -0.0696
    8MOL   C443 7177   4.644   1.788   7.256 -0.9261  1.2766 -0.2104
    8MOL   C444 7178   4.608   1.645   7.300 -0.0816 -0.2631 -0.1040
    8MOL   O445 7179   4.500   1.594   7.218 -0.6371  0.5870 -0.0101
    8MOL   C446 7180   4.524   1.551   7.098 -0.0930 -0.0131  0.3268
    8MOL   O447 7181   4.636   1.538   7.042 -0.1281  0.0769  0.0453
    8MOL   C448 7182   4.391   1.499   7.034  0.6769  0.1317  0.0974
    8MOL   C449 7183   4.404   1.405   6.913 -0.3737 -0.0086  0.2742
    8MOL   C450 7184   4.434   1.265   6.968 -0.0237 -0.4230 -0.5261
    8MOL   C451 7185   4.475   1.156   6.871  0.5594  0.5076  0.6428
    8MOL   C452 7186   4.380   1.108   6.760 -0.0827  0.2420  0.1180
    8MOL   O453 7187   4.400   1.137   6.642  0.3589  0.0676  0.2509
    8MOL   H454 7188   5.047   2.535   7.091  0.7029  2.3193 -1.1738
    8MOL   H455 7189   5.120   2.615   7.238 -1.0325 -0.8043  2.3270
    8MOL   H456 7190   4.845   2.482   7.223  0.1766 -0.2522 -0.4640
    8MOL   H457 7191   4.903   2.552   7.364 -0.4355  1.0996  0.2488
    8MOL   H458 7192   5.078   2.349   7.230 -1.5034  0.6028 -1.2847
    8MOL   H459 7193   5.070   2.393   7.404 -0.0676 -0.1343 -1.0149
    8MOL   H460 7194   4.851   2.243   7.267  0.1241  0.1427 -0.4418
    8MOL   H461 7195   4.859   2.279   7.437  0.7112  1.0041 -0.6842
    8MOL   H462 7196   5.074   2.143   7.450  0.4763 -0.8475 -0.1127
    8MOL   H463 7197   5.059   2.098   7.284 -0.3740  0.6720 -0.5779
    8MOL   H464 7198   4.869   2.017   7.513 -0.0014 -1.7939  0.2001
    8MOL   H465 7199   4.981   1.922   7.433 -0.2676 -0.5651  1.1649
    8MOL   H466 7200   4.877   1.948   7.221 -0.1316 -1.1408  0.3405
    8MOL   H467 7201   4.772   2.051   7.273  0.8886  0.4619  0.5723
    8MOL   H468 7202   4.722   1.843   7.457 -0.9163  5.5908 -0.5691
    8MOL   H469 7203   4.830   1.760   7.366 -0.4989 -0.5603  0.0938
    8MOL   H470 7204   4.557   1.854   7.253 -0.6612  1.7117  1.4250
    8MOL   H471 7205   4.682   1.783   7.154 -2.3491 -0.5488 -0.6805
    8MOL   H472 7206   4.557   1.649   7.396 -0.5721 -2.5238 -0.2481
    8MOL   H473 7207   4.691   1.574   7.309  2.3371  2.2623 -1.5110
    8MOL   H474 7208   4.342   1.440   7.111  1.2385 -0.9700 -0.3720
    8MOL   H475 7209   4.336   1.585   6.996 -1.5629 -0.4717  1.8618
    8MOL   H476 7210   4.479   1.439   6.842  0.6378 -1.0634  0.8152
    8MOL   H477 7211   4.304   1.411   6.870 -0.1057  0.5085 -0.2772
    8MOL   H478 7212   4.366   1.231   7.046  0.9905  1.8185  1.3974
    8MOL   H479 7213   4.522   1.271   7.032 -1.3450 -1.4577  1.4318
    8MOL   H480 7214   4.505   1.074   6.936 -0.9680 -1.3755 -0.9480
    8MOL   H481 7215   4.570   1.182   6.826  0.6376 -2.6638 -1.1885
    8MOL   O482 7216   4.269   1.050   6.808  0.2047 -0.0717  0.5186
    8MOL   C483 7217   4.159   1.002   6.729  0.2427 -0.3737  0.0984
    8MOL   C484 7218   4.049   0.951   6.819 -0.1304  0.4521 -0.3879
    8MOL   C485 7219   4.090   0.826   6.910  0.7076 -0.3119  0.3451
    8MOL   C486 7220   3.982   0.764   6.997 -0.2371 -0.2291 -0.3493
    8MOL   C487 7221   4.017   0.631   7.074  0.3340 -0.2322  0.0805
    8MOL   C488 7222   4.040   0.505   6.988  0.1873 -0.0997 -1.2085
    8MOL   C489 7223   4.076   0.376   7.064  0.6786 -0.0961  0.4838
    8MOL   C490 7224   4.106   0.244   6.989  0.3478 -0.0020  0.1654
    8MOL   C491 7225   4.154   0.134   7.088  0.4626  0.4139  0.3194
    8MOL   C492 7226   4.155   7.758   7.034  0.3297 -0.3883  0.9772
    8MOL   O493 7227   4.064   7.668   7.106  0.0765 -0.3001 -0.3444
    8MOL   C494 7228   4.044   7.548   7.061  0.9689  0.4446  0.7657
    8MOL   O495 7229   4.125   7.481   6.995 -0.5985  0.0796 -0.0656
    8MOL   C496 7230   3.914   7.494   7.124 -0.2627 -0.3108  0.3386
    8MOL   C497 7231   3.940   7.393   7.237  0.2128  0.2523 -0.9782
    8MOL   C498 7232   3.973   7.455   7.372 -0.2771  0.8854  0.2077
    8MOL   C499 7233   4.000   7.353   7.485 -0.4881 -0.5433  0.0521
    8MOL   C500 7234   3.900   7.245   7.520 -0.2674  0.3400  0.2705
    8MOL   O501 7235   3.921   7.133   7.479  0.4502 -0.2611  0.0021
    8MOL   H502 7236   4.129   1.089   6.672 -0.2585 -0.2181  0.6000
    8MOL   H503 7237   4.193   0.921   6.663  0.3772 -1.0624  1.0017
    8MOL   H504 7238   3.965   0.926   6.755 -0.5682  0.7096  0.0800
    8MOL   H505 7239   4.016   1.030   6.887 -2.2687 -1.1925  0.5347
    8MOL   H506 7240   4.117   0.753   6.833 -1.1689 -1.8480  1.0850
    8MOL   H507 7241   4.179   0.844   6.969  1.6764  1.0533 -1.4699
    8MOL   H508 7242   3.893   0.744   6.936  0.4246  0.8962 -1.7180
    8MOL   H509 7243   3.944   0.838   7.067  0.9445 -1.0326  1.1826
    8MOL   H510 7244   3.942   0.610   7.150  0.1336  2.7452  0.7863
    8MOL   H511 7245   4.110   0.648   7.129  0.0709 -0.1354  0.4940
    8MOL   H512 7246   4.116   0.517   6.911  0.9959 -0.0294 -0.4117
    8MOL   H513 7247   3.941   0.483   6.947 -1.4101  2.1374  1.3361
    8MOL   H514 7248   3.993   0.362   7.134  0.3625 -1.6724 -0.1941
    8MOL   H515 7249   4.168   0.400   7.118  0.4226  0.3408  0.7231
    8MOL   H516 7250   4.181   0.258   6.912  1.7286  0.7091  1.5915
    8MOL   H517 7251   4.016   0.208   6.939  1.4216 -0.9073 -1.1615
    8MOL   H518 7252   4.259   0.150   7.114  0.7438  0.4632 -0.8193
    8MOL   H519 7253   4.090   0.132   7.176  2.7221 -2.2192  1.9728
    8MOL   H520 7254   4.259   7.724   7.043  0.4946 -0.7870 -1.9291
    8MOL   H521 7255   4.131   0.004   6.928 -1.2943  2.3242  1.5784
    8MOL   H522 7256   3.845   7.571   7.158 -3.3124 -1.0131 -3.7788
    8MOL   H523 7257   3.854   7.460   7.039 -0.5141  0.3204  0.2609
    8MOL   H524 7258   4.017   7.325   7.199 -0.1807 -1.2156  0.7344
    8MOL   H525 7259   3.849   7.333   7.249  1.0606 -0.4520  2.6126
    8MOL   H526 7260   3.885   7.509   7.408 -1.3662 -2.0153  2.0994
    8MOL   H527 7261   4.054   7.528   7.371 -0.3007  0.9304  1.2049
    8MOL   H528 7262   4.054   7.391   7.572 -1.5875 -0.2364  0.5988
    8MOL   H529 7263   4.074   7.291   7.434 -2.1106 -2.7916  0.3509
    8MOL   O530 7264   3.796   7.292   7.577  0.5058  0.6667  0.2762
    8MOL   C531 7265   3.685   7.206   7.616  0.3113  0.8594  0.2303
    8MOL   C532 7266   3.577   7.188   7.498 -0.0386 -0.5562 -0.5524
    8MOL   C533 7267   3.445   7.131   7.546  0.0755  0.1873  0.4659
    8MOL   C534 7268   3.354   7.089   7.432 -0.3362  0.6204  0.5668
    8MOL   C535 7269   3.223   7.022   7.485  1.0474  0.4913 -0.1530
    8MOL   C536 7270   3.113   7.020   7.374 -0.3860 -0.5413 -0.0710
    8MOL   C537 7271   3.122   6.890   7.284  0.2065 -0.1798  0.9174
    8MOL   C538 7272   2.998   6.834   7.212 -0.1738  0.2178 -0.2660
    8MOL   C539 7273   3.033   6.712   7.120 -0.0850 -0.3156  0.0549
    8MOL   C540 7274   2.908   6.651   7.057  0.0961  0.2113 -0.2539
    8MOL   O541 7275   2.872   6.736   6.947 -0.2941 -0.2875 -0.1629
    8MOL   C542 7276   2.789   6.686   6.854 -0.2559  0.2958 -0.8456
    8MOL   O543 7277   2.756   6.565   6.849  0.5816  0.6802 -0.1124
    8MOL   C544 7278   2.741   6.777   6.740  0.2006 -0.6604  0.3343
    8MOL   C545 7279   2.815   6.905   6.707  0.2617  0.1005  0.1950
    8MOL   C546 7280   2.747   6.992   6.601 -0.1400  0.0253 -0.6192
    8MOL   C547 7281   2.753   6.937   6.457 -0.8369  0.1055 -0.0681
    8MOL   C548 7282   2.665   7.001   6.356  0.0747  0.3052  0.4315
    8MOL   O549 7283   2.599   6.930   6.276  0.0326  0.3092  0.0164
    8MOL   H550 7284   3.713   7.103   7.639  0.1439  1.5557  3.9040
    8MOL   H551 7285   3.626   7.256   7.693  0.3593  1.1016  0.1098
    8MOL   H552 7286   3.630   7.127   7.425 -0.2349  1.6897 -2.6486
    8MOL   H553 7287   3.556   7.288   7.458  3.6260  0.3846 -0.2775
    8MOL   H554 7288   3.465   7.042   7.605 -1.2109  1.2882  2.6263
    8MOL   H555 7289   3.390   7.197   7.613 -1.7399 -2.2464  1.4357
    8MOL   H556 7290   3.405   7.016   7.370  0.9799  0.4119  1.8667
    8MOL   H557 7291   3.341   7.181   7.374  1.9763 -0.6627 -2.1218
    8MOL   H558 7292   3.195   7.077   7.575 -0.3978  0.2178 -0.4187
    8MOL   H559 7293   3.232   6.923   7.529 -0.8510  1.2586  2.0295
    8MOL   H560 7294   3.108   7.110   7.313 -0.3714 -0.7266 -0.3438
    8MOL   H561 7295   3.016   7.016   7.423  0.7831 -1.8817  2.2462
    8MOL   H562 7296   3.161   6.805   7.340  1.6680  1.6755  2.8142
    8MOL   H563 7297   3.197   6.910   7.208 -1.0962 -0.4600 -0.4480
    8MOL   H564 7298   2.950   6.901   7.140  0.1222  0.0487 -0.6217
    8MOL   H565 7299   2.930   6.804   7.292  0.5431 -0.3821  0.1176
    8MOL   H566 7300   3.101   6.749   7.042  0.4987  0.7002  1.0286
    8MOL   H567 7301   3.081   6.649   7.195 -1.3463  0.3020  1.3874
    8MOL   H568 7302   2.828   6.646   7.131  0.7365 -1.1743  0.3632
    8MOL   H569 7303   2.932   6.548   7.033  0.2400  0.3534 -0.7289
    8MOL   H570 7304   2.747   6.716   6.650  5.0096  0.2133 -0.0804
    8MOL   H571 7305   2.634   6.796   6.745 -0.0423 -2.0554  0.5666
    8MOL   H572 7306   2.919   6.886   6.682 -0.0137 -1.6581  0.3287
    8MOL   H573 7307   2.810   6.980   6.786  2.4966  2.7207 -2.0243
    8MOL   H574 7308   2.785   7.094   6.595  0.2178 -0.0182  0.7882
    8MOL   H575 7309   2.647   7.011   6.642  0.8072  0.7383  1.4484
    8MOL   H576 7310   2.726   6.831   6.461  2.8755 -0.9259 -0.4901
    8MOL   H577 7311   2.855   6.949   6.421 -0.2611 -2.8262  0.4777
    8MOL   O578 7312   2.667   7.139   6.365  0.4172  0.0125  0.0626
    8MOL   C579 7313   2.580   7.215   6.283 -0.1098 -0.2415  0.0216
    8MOL   C580 7314   2.444   7.234   6.359 -0.0033  0.4354  0.7494
    8MOL   C581 7315   2.349   7.317   6.269  0.3875 -0.0867 -0.4137
    8MOL   C582 7316   2.206   7.332   6.327  0.0739 -0.6246  0.7003
    8MOL   C583 7317   2.111   7.405   6.225  0.7617 -0.2925  0.1141
    8MOL   C584 7318   1.973   7.438   6.289  0.1864  0.4783  0.1427
    8MOL   C585 7319   1.877   7.485   6.178  0.2030  0.2769 -0.3755
    8MOL   C586 7320   1.735   7.517   6.232  0.4427 -0.0092  0.0104
    8MOL   C587 7321   1.630   7.562   6.135 -0.0264  0.3084 -1.0439
    8MOL   C588 7322   1.488   7.568   6.196  0.4881  0.0467  0.2311
    8MOL   O589 7323   1.400   7.579   6.083 -0.3663 -0.4392 -0.1776
    8MOL   C590 7324   1.287   7.509   6.081  0.4287  0.4689  0.3647
    8MOL   O591 7325   1.236   7.448   6.172  0.1551 -0.1904 -0.0163
    8MOL   C592 7326   1.220   7.521   5.942 -0.1826 -0.0106 -0.4495
    8MOL   C593 7327   1.189   7.384   5.891  0.0145  0.7187  0.4367
    8MOL   C594 7328   1.172   7.393   5.741 -0.2386  0.2129  0.2319
    8MOL   C595 7329   1.106   7.266   5.676 -0.0523  0.5152  0.1929
    8MOL   C596 7330   1.195   7.149   5.659  0.7711 -0.0102 -0.4671
    8MOL   O597 7331   1.301   7.136   5.719  0.1731  0.6409 -0.3629
    8MOL   H598 7332   2.625   7.313   6.269 -1.1641  0.4150  1.1168
    8MOL   H599 7333   2.550   7.170   6.189 -0.7323 -2.5653  1.2777
    8MOL   H600 7334   2.452   7.282   6.456  3.1995  2.2523 -0.3626
    8MOL   H601 7335   2.390   7.140   6.371 -2.8337  1.6973 -1.4470
    8MOL   H602 7336   2.383   7.417   6.242 -1.7907  0.3375 -1.6906
    8MOL   H603 7337   2.352   7.278   6.168 -0.1818  1.3404 -0.9903
    8MOL   H604 7338   2.213   7.394   6.416 -1.4570 -1.3201  1.3321
    8MOL   H605 7339   2.162   7.236   6.354 -0.5568 -0.4639  0.2647
    8MOL   H606 7340   2.100   7.330   6.146  0.0625 -1.2112  1.0578
    8MOL   H607 7341   2.158   7.493   6.183  0.9703  1.0984  3.1019
    8MOL   H608 7342   1.981   7.511   6.369  0.2528 -1.4205  1.9212
    8MOL   H609 7343   1.928   7.347   6.329 -0.9693 -0.2183 -2.6001
    8MOL   H610 7344   1.863   7.404   6.106 -2.7677  0.8305 -0.5003
    8MOL   H611 7345   1.925   7.564   6.121  0.1607 -2.8916 -5.0598
    8MOL   H612 7346   1.751   7.591   6.310 -0.9160  0.7869 -0.4401
    8MOL   H613 7347   1.699   7.426   6.281 -1.0412  0.7312  0.3196
    8MOL   H614 7348   1.655   7.656   6.088  1.9641 -0.4480 -1.5389
    8MOL   H615 7349   1.622   7.481   6.061  0.8259 -0.4506 -0.3140
    8MOL   H616 7350   1.477   7.653   6.264 -0.9120  0.3575 -0.3729
    8MOL   H617 7351   1.472   7.480   6.258  3.8893  0.7336  2.2472
    8MOL   H618 7352   1.134   7.588   5.947  0.0400  0.2122  0.7913
    8MOL   H619 7353   1.291   7.573   5.879  1.2029  1.8490  2.5111
    8MOL   H620 7354   1.094   7.361   5.941  0.2296 -1.4623 -0.1280
    8MOL   H621 7355   1.261   7.311   5.925 -0.5990 -0.3528 -0.5555
    8MOL   H622 7356   1.266   7.414   5.690  0.5923  0.4005  1.7995
    8MOL   H623 7357   1.107   7.478   5.723  1.1453  1.0504 -0.9009
    8MOL   H624 7358   1.079   7.292   5.574  0.4503  0.6359  0.0868
    8MOL   H625 7359   1.027   7.226   5.738  1.1773  0.7128  1.9193
    8MOL   O626 7360   1.154   7.059   5.570 -0.4929 -0.4454 -0.5298
    8MOL   C627 7361   1.234   6.950   5.543 -0.3665  0.3674 -0.5258
    8MOL   C628 7362   1.192   6.888   5.408  0.1254 -0.1353  0.5677
    8MOL   C629 7363   1.264   6.765   5.368 -0.2230 -0.0976  0.2039
    8MOL   C630 7364   1.220   6.701   5.235 -0.0461 -0.0919 -0.1821
    8MOL   C631 7365   1.321   6.593   5.187 -0.3977  0.3030 -0.0312
    8MOL   C632 7366   1.314   6.564   5.035  0.0531 -0.7398 -0.5937
    8MOL   C633 7367   1.407   6.458   4.990  0.2485 -0.4205  0.2299
    8MOL   C634 7368   1.415   6.433   4.835 -0.6435 -0.5293 -0.1809
    8MOL   C635 7369   1.463   6.552   4.754 -0.8249 -0.0485 -0.1793
    8MOL   C636 7370   1.591   6.625   4.804 -0.0059  0.1471 -0.0602
    8MOL   O637 7371   1.642   6.718   4.716  0.5605 -0.2778 -0.6120
    8MOL   C638 7372   1.717   6.689   4.603  1.3375 -0.0203 -0.3382
    8MOL   O639 7373   1.747   6.577   4.572  0.0128 -0.5281  0.0331
    8MOL   C640 7374   1.771   6.810   4.525  1.0710 -0.4576  0.1509
    8MOL   C641 7375   1.661   6.905   4.472 -0.0303 -0.6108 -0.3794
    8MOL   C642 7376   1.727   7.025   4.402 -0.2698 -0.0861 -0.1043
    8MOL   C643 7377   1.613   7.120   4.355  0.4298 -0.0225  0.1170
    8MOL   C644 7378   1.674   7.237   4.293 -0.2336 -0.8294  0.4600
    8MOL   O645 7379   1.658   7.347   4.348 -0.1701  0.0434 -0.2565
    8MOL   H646 7380   1.338   6.980   5.533 -0.6113  1.3217 -0.2414
    8MOL   H647 7381   1.224   6.875   5.621 -0.1998 -1.5486 -2.2839
    8MOL   H648 7382   1.180   6.955   5.324 -2.2098 -1.9085 -0.5871
    8MOL   H649 7383   1.087   6.859   5.419 -0.2743 -0.2445 -3.1300
    8MOL   H650 7384   1.371   6.783   5.365 -0.2996  0.9905  2.4150
    8MOL   H651 7385   1.249   6.686   5.442  0.1916  0.5024  0.9391
    8MOL   H652 7386   1.229   6.785   5.166 -3.0022  0.3271 -0.0870
    8MOL   H653 7387   1.118   6.663   5.241 -0.1739 -0.4151 -3.2607
    8MOL   H654 7388   1.303   6.500   5.240  0.0399  0.7898  0.9796
    8MOL   H655 7389   1.424   6.617   5.215 -0.0207 -1.1877 -0.0896
    8MOL   H656 7390   1.321   6.658   4.980  0.6580  0.6400  1.7706
    8MOL   H657 7391   1.213   6.538   5.002 -0.9186  1.6728  0.3736
    8MOL   H658 7392   1.370   6.361   5.023  0.9034 -1.9437 -3.2796
    8MOL   H659 7393   1.505   6.471   5.035 -0.4614 -0.4811  1.8149
    8MOL   H660 7394   1.321   6.398   4.792 -0.2212  1.0044 -2.4523
    8MOL   H661 7395   1.493   6.356   4.833 -0.2502 -0.1931  1.5135
    8MOL   H662 7396   1.474   6.537   4.647  0.9477  1.8541 -0.2927
    8MOL   H663 7397   1.390   6.632   4.768 -0.9909 -0.5499  2.0650
    8MOL   H664 7398   1.664   6.546   4.824  0.8825  0.4182 -2.1586
    8MOL   H665 7399   1.562   6.678   4.894  2.0147  1.5799 -0.2298
    8MOL   H666 7400   1.834   6.873   4.587  2.4073 -2.0870  0.5000
    8MOL   H667 7401   1.829   6.775   4.440  0.1755 -0.9238 -0.2880
    8MOL   H668 7402   1.602   6.940   4.557  0.6521  0.2815 -0.2616
    8MOL   H669 7403   1.593   6.852   4.405 -0.5382  0.7600 -0.9726
    8MOL   H670 7404   1.786   6.984   4.320 -1.2514 -2.0914  0.1654
    8MOL   H671 7405   1.785   7.082   4.475 -0.5616 -2.0671  1.7375
    8MOL   H672 7406   1.550   7.145   4.440  0.8552 -0.6307  0.6221
    8MOL   H673 7407   1.556   7.073   4.275  0.8579 -0.3765  0.0141
    8MOL   O674 7408   1.727   7.217   4.173  0.1026  0.4917  0.1480
    8MOL   C675 7409   1.803   7.322   4.117  0.8069  0.3030  0.1659
    8MOL   C676 7410   1.804   7.314   3.964 -0.8809  0.5803  0.4430
    8MOL   C677 7411   1.915   7.403   3.890 -0.2247  0.2007 -0.5187
    8MOL   C678 7412   2.061   7.354   3.901 -0.3009  0.0488  0.4311
    8MOL   C679 7413   2.167   7.430   3.810  0.0898  0.1571  0.2619
    8MOL   C680 7414   2.312   7.368   3.803 -0.3097  0.5532  0.0722
    8MOL   C681 7415   2.409   7.464   3.721 -0.2512  0.7035  0.1521
    8MOL   C682 7416   2.548   7.407   3.701 -0.1702  0.1232 -0.2477
    8MOL   C683 7417   2.653   7.500   3.627 -0.0942  0.2245 -0.5087
    8MOL   C684 7418   2.631   7.507   3.473  0.0136 -0.3273  0.2814
    8MOL   O685 7419   2.558   7.627   3.440 -0.5786  0.4814 -0.9218
    8MOL   C686 7420   2.447   7.626   3.376  0.5047  0.1132 -0.1373
    8MOL   O687 7421   2.393   7.526   3.328 -0.3955 -0.4559 -0.9565
    8MOL   C688 7422   2.393   7.763   3.363 -0.7750 -0.5190 -0.5153
    8MOL   C689 7423   2.246   0.009   3.310  0.8558 -0.3403  0.5685
    8MOL   C690 7424   2.144   0.006   3.427  0.0313 -0.4606  0.2360
    8MOL   C691 7425   1.996   7.757   3.377 -0.0240  0.2713  0.3569
    8MOL   C692 7426   1.931   0.123   3.324 -0.3228 -0.3477 -0.2880
    8MOL   O693 7427   1.998   0.222   3.297 -0.2275  0.3881  0.1304
    8MOL   H694 7428   1.755   7.417   4.139  0.1979 -0.0720  0.4619
    8MOL   H695 7429   1.904   7.323   4.157  1.4581 -0.5197 -1.4084
    8MOL   H696 7430   1.712   7.346   3.916 -0.3803 -0.8828 -1.5512
    8MOL   H697 7431   1.806   7.210   3.931 -0.6707  0.3446  1.1733
    8MOL   H698 7432   1.883   7.414   3.786 -1.0691 -1.6181 -0.4769
    8MOL   H699 7433   1.914   7.506   3.925  0.2360  0.2541 -0.6635
    8MOL   H700 7434   2.066   7.246   3.893  2.0298  0.1694 -0.2510
    8MOL   H701 7435   2.085   7.375   4.005 -0.4918  0.9048  0.3055
    8MOL   H702 7436   2.183   7.531   3.849  1.1291 -0.7102  2.1631
    8MOL   H703 7437   2.128   7.435   3.709  0.9752 -0.6036 -0.1255
    8MOL   H704 7438   2.307   7.276   3.744 -0.1095  2.7529 -3.5232
    8MOL   H705 7439   2.361   7.344   3.897  1.4316 -2.6788 -1.5836
    8MOL   H706 7440   2.418   7.564   3.765 -0.9050  0.0297  1.8336
    8MOL   H707 7441   2.360   7.479   3.624  0.9764  0.6286 -0.4940
    8MOL   H708 7442   2.548   7.312   3.647 -1.5037  0.5335 -0.9955
    8MOL   H709 7443   2.588   7.380   3.798 -0.9685 -1.3135 -0.3032
    8MOL   H710 7444   2.646   7.601   3.669  2.1994 -0.7756  2.5187
    8MOL   H711 7445   2.752   7.457   3.646 -0.8703 -0.7198  1.5253
    8MOL   H712 7446   2.588   7.417   3.429  2.6104 -0.8987 -1.2148
    8MOL   H713 7447   2.727   7.523   3.422 -0.3607 -2.7538 -1.2544
    8MOL   H714 7448   2.400   0.026   3.468 -3.7612 -3.7894  0.6295
    8MOL   H715 7449   2.463   0.060   3.306  0.1627 -0.5781  0.5582
    8MOL   H716 7450   2.224   7.699   3.233 -1.3037 -0.3609  1.1874
    8MOL   H717 7451   2.243   0.103   3.255  1.0869 -1.6526 -1.7845
    8MOL   H718 7452   2.155   0.095   3.489 -2.3248 -0.3889  0.6075
    8MOL   H719 7453   2.171   7.697   3.502 -0.1429 -0.3107  0.4475
    8MOL   H720 7454   1.940   7.716   3.461  0.5714 -0.8966  0.2054
    8MOL   H721 7455   1.998   7.673   3.307  2.0584  3.0534 -3.1058
    8MOL   O722 7456   1.802   0.101   3.301 -0.3519  0.1730  0.0164
    8MOL   C723 7457   1.718   0.207   3.260  0.1095 -0.0176 -1.3776
    8MOL   C724 7458   1.580   0.153   3.306 -0.2100  0.1794 -0.3156
    8MOL   C725 7459   1.463   0.257   3.300  0.0929  0.5372  0.5114
    8MOL   C726 7460   1.337   0.199   3.365 -1.0061 -0.0704  0.9898
    8MOL   C727 7461   1.266   0.097   3.270 -0.0399  0.1958  0.1801
    8MOL   C728 7462   1.167   0.011   3.351  0.0801  0.1466  0.6778
    8MOL   C729 7463   1.110   7.662   3.260  0.2741 -0.3808 -0.1015
    8MOL   C730 7464   1.009   7.585   3.347  0.1308 -0.4438  0.3942
    8MOL   C731 7465   0.916   7.489   3.280  0.1379  0.2235 -0.7586
    8MOL   C732 7466   0.796   7.442   3.360 -0.0381 -0.4319 -0.5335
    8MOL   O733 7467   0.831   7.379   3.481  0.5197  0.2745  0.6975
    8MOL   C734 7468   0.746   7.301   3.544 -0.4483  0.0289 -0.2600
    8MOL   O735 7469   0.639   7.248   3.498  0.3823 -0.2695 -0.1953
    8MOL   C736 7470   0.782   7.285   3.692  0.3739  0.1931  0.8989
    8MOL   C737 7471   0.877   7.164   3.715  0.4237 -0.1698 -0.2940
    8MOL   C738 7472   0.810   7.023   3.698 -0.1067 -0.1208 -0.0089
    8MOL   C739 7473   0.874   6.907   3.779 -0.6181 -0.3867  0.3249
    8MOL   C740 7474   1.004   6.861   3.719 -0.8048  0.4053 -0.5708
    8MOL   O741 7475   1.053   6.914   3.623 -0.0398 -0.5869  0.1626
    8MOL   H742 7476   1.748   0.291   3.322 -1.7538  0.4235 -1.0498
    8MOL   H743 7477   1.738   0.226   3.154  0.4403 -0.2553 -1.3578
    8MOL   H744 7478   1.595   0.098   3.399 -0.3626  1.1976  0.3161
    8MOL   H745 7479   1.559   0.083   3.224  2.6366 -0.5471 -0.4593
    8MOL   H746 7480   1.492   0.349   3.351  0.6116  1.5151 -1.4996
    8MOL   H747 7481   1.438   0.288   3.199 -0.7333  2.2122  1.2209
    8MOL   H748 7482   1.268   0.282   3.375  0.0512  1.2087 -1.6199
    8MOL   H749 7483   1.362   0.175   3.468 -1.9836 -1.7685  0.8474
    8MOL   H750 7484   1.343   0.037   3.222 -0.9223 -0.2964 -0.6287
    8MOL   H751 7485   1.215   0.129   3.179  2.4688 -0.1217 -1.3788
    8MOL   H752 7486   1.090   0.073   3.396 -2.1127 -0.8063 -1.6443
    8MOL   H753 7487   1.220   7.732   3.436 -0.2720 -0.0802  0.7851
    8MOL   H754 7488   1.191   7.594   3.237 -0.0156 -1.1050  1.0090
    8MOL   H755 7489   1.065   7.701   3.168  0.8995  2.7602  0.8701
    8MOL   H756 7490   0.948   7.657   3.402 -3.0859 -0.4389 -2.9740
    8MOL   H757 7491   1.068   7.518   3.410 -0.0211 -1.9935 -1.0573
    8MOL   H758 7492   0.876   7.530   3.188  1.1221 -0.0487 -1.3117
    8MOL   H759 7493   0.970   7.399   3.249  1.3001  0.8376 -0.5636
    8MOL   H760 7494   0.732   7.380   3.297 -0.2249 -0.1421 -0.6261
    8MOL   H761 7495   0.726   7.522   3.383 -0.7396 -1.0950 -0.3375
    8MOL   H762 7496   0.817   7.378   3.735  0.6263  0.4196  0.2125
    8MOL   H763 7497   0.688   7.261   3.741 -0.1944 -0.8822 -0.6647
    8MOL   H764 7498   0.918   7.150   3.815  1.4469  1.7157 -0.4324
    8MOL   H765 7499   0.965   7.179   3.652 -0.1228  2.1400 -0.5609
    8MOL   H766 7500   0.797   6.997   3.593 -1.7755  2.3590 -0.4613
    8MOL   H767 7501   0.707   7.021   3.733 -1.0888  1.0802 -2.6683
    8MOL   H768 7502   0.806   6.823   3.794  1.0556 -1.2447  3.6497
    8MOL   H769 7503   0.900   6.946   3.878 -2.5407  1.2005  0.2309
    8MOL   O770 7504   1.047   6.760   3.785  0.1909  0.4543  0.5841
    8MOL   C771 7505   1.157   6.684   3.731  0.1916  0.3069  0.4185
    8MOL   C772 7506   1.121   6.539   3.725 -0.2374 -0.1040  0.0711
    8MOL   C773 7507   1.102   6.471   3.861 -0.0827  0.5628  0.0660
    8MOL   C774 7508   1.231   6.438   3.931  0.6978 -0.0270 -0.4965
    8MOL   C775 7509   1.288   6.293   3.892  1.0299  0.0342 -0.4974
    8MOL   C776 7510   1.410   6.254   3.978 -0.7913  0.9240 -0.0567
    8MOL   C777 7511   1.477   6.128   3.949 -0.1897  0.2490  0.4750
    8MOL   C778 7512   1.594   6.092   4.044 -0.6888 -0.0588 -0.3811
    8MOL   C779 7513   1.663   5.951   4.024  0.1907  0.3647 -0.8244
    8MOL   C780 7514   1.767   5.914   4.133  0.1241 -0.0081  0.2942
    8MOL   O781 7515   1.726   5.918   4.263  0.2827 -0.6535 -0.4839
    8MOL   C782 7516   1.826   5.916   4.357  0.1551 -0.5515 -0.6594
    8MOL   O783 7517   1.940   5.908   4.325  0.2870 -0.1202  0.7044
    8MOL   C784 7518   1.788   5.922   4.505 -0.1237 -0.0401 -0.3546
    8MOL   C785 7519   1.735   6.062   4.548  0.8007 -0.0222  0.2348
    8MOL   C786 7520   1.594   6.096   4.487 -0.5914  0.3664  0.0937
    8MOL   C787 7521   1.519   6.205   4.566  0.7624 -0.1554  0.1551
    8MOL   C788 7522   1.407   6.268   4.488 -0.0362 -0.2332  0.6435
    8MOL   O789 7523   1.293   6.219   4.480 -0.2747  0.6349 -0.4835
    8MOL   H790 7524   1.192   6.718   3.633 -2.2853  1.1450 -0.2027
    8MOL   H791 7525   1.237   6.715   3.798  1.5045 -1.2916 -0.3947
    8MOL   H792 7526   1.182   6.473   3.663 -0.5389 -1.1302  0.8550
    8MOL   H793 7527   1.023   6.528   3.680 -0.8179 -0.0376  1.2935
    8MOL   H794 7528   1.045   6.537   3.926  1.5461  0.5999  1.5139
    8MOL   H795 7529   1.045   6.379   3.854  0.2199  0.3120  0.7904
    8MOL   H796 7530   1.196   6.428   4.033 -0.5167  0.7017 -0.8373
    8MOL   H797 7531   1.302   6.521   3.926  1.8754 -1.1165 -2.7557
    8MOL   H798 7532   1.326   6.292   3.790 -1.7189 -0.9370 -1.5522
    8MOL   H799 7533   1.214   6.214   3.909  1.4034 -0.2583 -0.2129
    8MOL   H800 7534   1.397   6.260   4.086  4.4464 -2.5905  0.9313
    8MOL   H801 7535   1.479   6.337   3.965 -0.6205  0.7979  0.0595
    8MOL   H802 7536   1.507   6.128   3.844  0.4776 -2.9272  0.6262
    8MOL   H803 7537   1.400   6.051   3.950  0.7853 -0.8277 -2.6457
    8MOL   H804 7538   1.564   6.106   4.148  1.6796  0.1664  0.3120
    8MOL   H805 7539   1.677   6.160   4.026 -2.4462  2.4443  0.7038
    8MOL   H806 7540   1.588   5.872   4.032 -0.7246  1.2493 -0.6018
    8MOL   H807 7541   1.710   5.943   3.926 -1.4584  1.4911 -1.7380
    8MOL   H808 7542   1.858   5.971   4.111 -0.3087  0.3963 -0.4792
    8MOL   H809 7543   1.783   5.808   4.112  1.1601  0.4754 -1.4801
    8MOL   H810 7544   1.713   5.846   4.527  0.8331 -1.6317 -2.3807
    8MOL   H811 7545   1.883   5.898   4.553 -1.5031 -0.7409  2.1036
    8MOL   H812 7546   1.806   6.138   4.517  1.1736  0.5869  2.4427
    8MOL   H813 7547   1.735   6.056   4.657  0.3696 -1.1543  0.1728
    8MOL   H814 7548   1.528   6.010   4.482  1.5411 -1.4905  2.4712
    8MOL   H815 7549   1.601   6.126   4.382  3.7972  1.6829  0.6482
    8MOL   H816 7550   1.591   6.279   4.600  1.1206 -0.5488  0.2605
    8MOL   H817 7551   1.472   6.159   4.654 -2.8899  0.7415 -1.2448
    8MOL   O818 7552   1.438   6.384   4.430  0.1899 -0.1216 -0.1418
    8MOL   C819 7553   1.332   6.452   4.353 -0.0033 -0.0284 -0.2825
    8MOL   C820 7554   1.373   6.591   4.307 -0.4213 -0.0568 -0.0760
    8MOL   C821 7555   1.251   6.672   4.262 -0.3489 -0.0581  0.0014
    8MOL   C822 7556   1.275   6.815   4.222 -0.8388 -0.0909  0.1540
    8MOL   C823 7557   1.330   6.830   4.077 -0.5317  1.2276  0.8526
    8MOL   C824 7558   1.311   6.971   4.015  0.4434  0.4227 -0.1296
    8MOL   C825 7559   1.408   6.999   3.896  0.5151 -0.2250 -0.5784
    8MOL   C826 7560   1.410   7.134   3.833  0.7417 -0.2282 -0.4560
    8MOL   C827 7561   1.342   7.134   3.693 -0.3666  0.5294 -0.0733
    8MOL   C828 7562   1.309   7.272   3.639  0.3760 -0.6733 -0.2616
    8MOL   O829 7563   1.429   7.346   3.615  0.8295 -0.4519 -0.5854
    8MOL   C830 7564   1.436   7.472   3.628  0.3081 -0.0795  0.6387
    8MOL   O831 7565   1.353   7.549   3.670 -0.1706  0.1507 -0.6524
    8MOL   C832 7566   1.573   7.521   3.586  0.2270  0.2711  0.1943
    8MOL   C833 7567   1.612   7.511   3.438  0.4154 -0.1254  0.2885
    8MOL   C834 7568   1.500   7.512   3.333 -0.2308  0.6010 -0.8434
    8MOL   C835 7569   1.544   7.511   3.184 -0.7488 -0.6503 -0.0608
    8MOL   C836 7570   1.429   7.505   3.090  0.0235  0.6667  0.2378
    8MOL   O837 7571   1.394   7.601   3.026 -0.5197  0.0103 -0.1415
    8MOL   H838 7572   1.318   6.393   4.262 -2.1370  1.3779 -0.9103
    8MOL   H839 7573   1.232   6.459   4.397 -1.4659  0.3896 -3.5071
    8MOL   H840 7574   1.448   6.591   4.228 -0.0672 -1.5908  0.2349
    8MOL   H841 7575   1.419   6.635   4.395  0.4332  2.3522 -1.6882
    8MOL   H842 7576   1.185   6.627   4.189  1.7022 -0.3790 -1.7128
    8MOL   H843 7577   1.183   6.684   4.346  0.6463 -1.3754  1.0109
    8MOL   H844 7578   1.344   6.865   4.290 -1.7061  2.1899 -0.5924
    8MOL   H845 7579   1.181   6.869   4.229 -1.3212 -0.2679 -3.6674
    8MOL   H846 7580   1.282   6.756   4.013  1.7618  0.6516 -0.2472
    8MOL   H847 7581   1.435   6.803   4.084 -0.3055  2.1616  1.1226
    8MOL   H848 7582   1.326   7.051   4.088 -0.8355  0.8824 -0.3693
    8MOL   H849 7583   1.208   6.986   3.984  1.0965  0.2754 -2.4811
    8MOL   H850 7584   1.366   6.923   3.830  1.5195  1.1557 -2.8743
    8MOL   H851 7585   1.509   6.974   3.927  0.7499  0.3397 -0.8822
    8MOL   H852 7586   1.514   7.167   3.829  0.9629 -0.9830 -0.9468
    8MOL   H853 7587   1.357   7.209   3.893  1.3645  0.3952 -0.6781
    8MOL   H854 7588   1.402   7.092   3.612 -0.0635  1.6460 -0.4337
    8MOL   H855 7589   1.246   7.082   3.698  0.2182 -0.4383  1.5119
    8MOL   H856 7590   1.240   7.317   3.710  0.5282 -0.1742 -0.4313
    8MOL   H857 7591   1.255   7.270   3.545  0.7443 -1.0293 -0.4711
    8MOL   H858 7592   1.584   7.620   3.629  1.3214  0.0734  0.3731
    8MOL   H859 7593   1.629   7.447   3.644  0.3225  0.3777  0.2367
    8MOL   H860 7594   1.646   7.408   3.422 -0.1073 -0.1264 -0.8654
    8MOL   H861 7595   1.693   7.579   3.411  0.6242 -1.0807 -1.6038
    8MOL   H862 7596   1.445   7.603   3.359  0.2225  1.0297 -1.3429
    8MOL   H863 7597   1.440   7.424   3.355  1.5997 -0.6049 -0.5759
    8MOL   H864 7598   1.604   7.421   3.167 -0.6420 -0.1749 -2.3637
    8MOL   H865 7599   1.621   7.585   3.162  0.0266 -0.6447  2.5792
    8MOL   O866 7600   1.373   7.381   3.076  0.2558  0.0595  0.1801
    8MOL   C867 7601   1.249   7.364   3.010 -0.4439 -0.1620  0.3139
    8MOL   C868 7602   1.197   7.213   3.008  0.7403 -0.1470 -0.1537
    8MOL   C869 7603   1.271   7.111   2.916 -0.4431 -0.0436  0.4316
    8MOL   C870 7604   1.180   7.011   2.841  0.3578  1.2813 -0.2468
    8MOL   C871 7605   1.105   6.914   2.934  1.2120 -0.1908  0.8910
    8MOL   C872 7606   1.178   6.805   2.995 -0.0070 -0.5666 -0.3587
    8MOL   C873 7607   1.083   6.697   3.050  0.0653  0.1409 -0.0596
    8MOL   C874 7608   1.146   6.612   3.165  0.8773  0.1198  0.8212
    8MOL   C875 7609   1.036   6.536   3.242 -0.3414  0.2979  0.8837
    8MOL   C876 7610   1.098   6.454   3.365  0.0750 -0.1494 -0.3478
    8MOL   O877 7611   1.144   6.333   3.310 -0.7107 -0.2213  0.5140
    8MOL   C878 7612   1.242   6.264   3.374 -0.3412  0.4276  0.6623
    8MOL   O879 7613   1.291   6.293   3.483 -0.0146 -0.1457 -0.0850
    8MOL   C880 7614   1.260   6.131   3.310  0.3251  0.1898  0.9274
    8MOL   C881 7615   1.282   6.120   3.158 -0.3537  0.1826 -0.0244
    8MOL   C882 7616   1.430   6.136   3.117  1.0877 -0.0183  0.4004
    8MOL   C883 7617   1.444   6.159   2.965 -0.0012 -0.0873  0.1125
    8MOL   C884 7618   1.416   6.303   2.913 -0.0211  0.8799 -0.2427
    8MOL   O885 7619   1.300   6.347   2.895 -0.7809 -0.0500 -0.4245
    8MOL   H886 7620   1.175   7.426   3.062  1.3818  0.7643  1.8499
    8MOL   H887 7621   1.263   7.397   2.907  0.6106 -1.5120  0.0083
    8MOL   H888 7622   1.091   7.217   2.985  1.3040  1.5021 -2.6043
    8MOL   H889 7623   1.196   7.182   3.113 -0.7999  0.4554  0.0204
    8MOL   H890 7624   1.320   7.174   2.842 -0.4976 -1.5322 -0.9020
    8MOL   H891 7625   1.342   7.063   2.984  1.7453  2.1147 -0.2477
    8MOL   H892 7626   1.250   6.963   2.772 -0.8836 -0.8004 -0.1065
    8MOL   H893 7627   1.109   7.069   2.782 -1.4070  0.3222  0.9121
    8MOL   H894 7628   1.027   6.874   2.871  3.0622 -0.9557 -0.9504
    8MOL   H895 7629   1.050   6.971   3.009  1.7210  0.0917  1.0564
    8MOL   H896 7630   1.241   6.833   3.079 -0.0975 -1.0107 -0.1358
    8MOL   H897 7631   1.243   6.757   2.922  0.5283  1.3238 -1.1326
    8MOL   H898 7632   1.045   6.637   2.967  2.0813 -1.0819 -0.1215
    8MOL   H899 7633   0.994   6.744   3.093 -0.4140 -1.0282  0.2655
    8MOL   H900 7634   1.199   6.674   3.238 -1.5645  0.6343  2.1990
    8MOL   H901 7635   1.224   6.552   3.118  0.8835  0.2017  0.7246
    8MOL   H902 7636   0.963   6.605   3.281 -0.2345  0.1605  1.3239
    8MOL   H903 7637   0.970   6.476   3.179 -1.2766  2.5368 -0.3258
    8MOL   H904 7638   1.025   6.434   3.443  1.9498  1.0022  1.7820
    8MOL   H905 7639   1.174   6.510   3.419  0.2183 -0.0621 -0.6411
    8MOL   H906 7640   1.342   6.086   3.366 -0.3975 -2.4299 -0.0341
    8MOL   H907 7641   1.170   6.073   3.333  2.2261 -2.4990  1.8318
    8MOL   H908 7642   1.240   6.205   3.104  0.4654  0.8343  0.3540
    8MOL   H909 7643   1.244   6.024   3.123 -2.0867  0.6202  0.5961
    8MOL   H910 7644   1.504   6.066   3.157  1.5767 -0.1396 -0.6916
    8MOL   H911 7645   1.464   6.227   3.167 -1.0778  0.6443  0.6997
    8MOL   H912 7646   1.369   6.105   2.907  2.1001 -3.1139  0.1242
    8MOL   H913 7647   1.543   6.133   2.928  0.9414 -2.5227  4.0411
    8MOL   O914 7648   1.530   6.371   2.899 -0.6221 -0.1379  0.8437
    8MOL   C915 7649   1.528   6.515   2.897 -0.3122 -0.6573 -0.0998
    8MOL   C916 7650   1.639   6.567   2.997 -0.5028 -0.6008 -0.2190
    8MOL   C917 7651   1.624   6.531   3.146 -0.6339 -0.0986 -0.5948
    8MOL   C918 7652   1.705   6.409   3.181  0.1210 -0.6050  0.6311
    8MOL   C919 7653   1.679   6.362   3.328 -0.1063 -0.3287  0.7904
    8MOL   C920 7654   1.749   6.229   3.353  0.3573 -1.3840  0.6499
    8MOL   C921 7655   1.740   6.182   3.502  0.2341 -0.0025  0.2588
    8MOL   C922 7656   1.858   6.223   3.596 -0.5468  0.0238  0.0567
    8MOL   C923 7657   1.849   6.184   3.735  0.6580  0.0482 -0.4209
    8MOL   C924 7658   1.966   6.246   3.813  0.1392  0.6474 -0.3839
    8MOL   O925 7659   1.983   6.188   3.941  0.8028 -0.5068 -0.6429
    8MOL   C926 7660   2.104   6.173   3.997  0.1784 -1.2221  0.3009
    8MOL   O927 7661   2.207   6.174   3.933 -0.0191  0.3921 -0.2251
    8MOL   C928 7662   2.093   6.172   4.153  0.1589  0.0398 -0.1187
    8MOL   C929 7663   1.973   6.249   4.215  0.6574  0.0742 -0.3000
    8MOL   C930 7664   1.953   6.403   4.175  0.1167 -0.0225 -0.0005
    8MOL   C931 7665   1.861   6.488   4.277  0.3932  0.3791 -0.9844
    8MOL   C932 7666   1.712   6.448   4.277 -0.1256  0.4545 -0.2325
    8MOL   O933 7667   1.682   6.334   4.256 -0.1470  0.2131 -0.5767
    8MOL   H934 7668   1.557   6.551   2.799  0.3029  1.2751  0.7627
    8MOL   H935 7669   1.428   6.556   2.912  0.1448  0.2212  0.6343
    8MOL   H936 7670   1.632   6.676   3.001 -1.5217 -0.6645 -0.3651
    8MOL   H937 7671   1.740   6.540   2.964 -0.2654 -0.2160  0.1839
    8MOL   H938 7672   1.652   6.615   3.210 -1.8374 -0.1578  0.0239
    8MOL   H939 7673   1.520   6.518   3.175 -0.6318 -0.5219 -0.7798
    8MOL   H940 7674   1.812   6.424   3.162  0.1063  2.9162  2.7040
    8MOL   H941 7675   1.666   6.330   3.118  0.5395 -1.5442  1.5283
    8MOL   H942 7676   1.571   6.355   3.343 -0.4356  0.4058 -1.0731
    8MOL   H943 7677   1.724   6.437   3.393 -0.1071  2.1306 -1.9148
    8MOL   H944 7678   1.851   6.244   3.318  0.1456  2.4293  1.3574
    8MOL   H945 7679   1.693   6.156   3.295 -0.4587  0.7421 -1.3054
    8MOL   H946 7680   1.737   6.073   3.506 -1.1046  0.0410  0.6633
    8MOL   H947 7681   1.640   6.204   3.539  0.0710  0.0806 -0.2302
    8MOL   H948 7682   1.854   6.331   3.594  1.1308  0.0886 -1.4240
    8MOL   H949 7683   1.953   6.189   3.556 -1.7745 -4.1278  0.4034
    8MOL   H950 7684   1.750   6.212   3.772  0.4661 -0.4122 -0.5788
    8MOL   H951 7685   1.846   6.075   3.739 -1.3076  0.0347 -1.4431
    8MOL   H952 7686   1.965   6.355   3.821 -1.7869  0.6360 -0.3862
    8MOL   H953 7687   2.055   6.221   3.754  0.1275  0.8167 -0.4753
    8MOL   H954 7688   2.102   6.070   4.190  0.2432  0.1555  0.1797
    8MOL   H955 7689   2.184   6.212   4.197 -0.1568 -1.1680  1.7156
    8MOL   H956 7690   1.996   6.232   4.320  1.8408  2.7792 -0.0786
    8MOL   H957 7691   1.880   6.196   4.196  1.1847  0.4735 -4.5400
    8MOL   H958 7692   1.913   6.410   4.074  1.0247 -1.0107 -0.4446
    8MOL   H959 7693   2.052   6.448   4.174 -0.6071  1.6035 -1.8339
    8MOL   H960 7694   1.871   6.590   4.238  1.3282  0.7775  0.2556
    8MOL   H961 7695   1.897   6.496   4.380 -0.2788  0.0643 -0.7260
    8MOL   H962 7696   1.643   6.530   4.294  0.3039  0.7604  0.0308
    9MOL     O1 7697   1.982   7.506   5.411  0.2733 -0.5764  0.1330
    9MOL     C2 7698   1.944   7.425   5.521 -0.1226  0.4560 -0.5104
    9MOL     C3 7699   1.984   7.488   5.654 -0.4365  0.7012  0.2341
    9MOL     C4 7700   1.907   7.619   5.675 -0.7226 -0.9747  0.0268
    9MOL     C5 7701   1.977   7.716   5.783 -0.5664  0.1873  0.3754
    9MOL     C6 7702   2.101   0.021   5.729  0.9204 -0.1521  0.3081
    9MOL     C7 7703   2.147   0.139   5.817 -0.2158  0.7603 -0.2149
    9MOL     C8 7704   2.241   0.237   5.738 -0.1710 -0.1345 -0.8142
    9MOL     C9 7705   2.305   0.335   5.837 -0.3839  0.7769  0.0545
    9MOL    C10 7706   2.398   0.444   5.777  0.1348  0.4421  0.1855
    9MOL    C11 7707   2.429   0.553   5.884  0.4391 -0.3754  0.6733
    9MOL    O12 7708   2.503   0.656   5.831 -0.4880 -0.1342  0.0112
    9MOL    C13 7709   2.607   0.715   5.910 -0.3755 -0.8899 -0.1028
    9MOL    O14 7710   2.624   0.679   6.029  0.0777 -0.5753 -0.1134
    9MOL    C15 7711   2.687   0.830   5.843  0.1787  0.7202 -0.6822
    9MOL    C16 7712   2.595   0.956   5.817  0.2994 -0.1829  0.0889
    9MOL    C17 7713   2.532   1.030   5.934  0.8405 -0.1157  0.6938
    9MOL    C18 7714   2.622   1.124   6.015 -0.0938 -0.4730 -0.3280
    9MOL    C19 7715   2.720   1.059   6.115  0.0141 -1.2700  0.6670
    9MOL    O20 7716   2.693   1.030   6.228  0.3697  0.5960  0.1470
    9MOL    H21 7717   1.840   7.404   5.498  0.7389 -0.2239 -4.0605
    9MOL    H22 7718   1.998   7.330   5.522  1.6682  1.4497 -1.0366
    9MOL    H23 7719   2.088   7.511   5.634 -0.6461  2.2769  0.8879
    9MOL    H24 7720   1.975   7.419   5.738 -0.0311 -0.3250 -0.5608
    9MOL    H25 7721   1.885   7.664   5.579 -1.4283  0.0727  0.6693
    9MOL    H26 7722   1.810   7.583   5.709 -0.9653 -1.7521 -1.4514
    9MOL    H27 7723   1.996   7.665   5.877  0.0312  3.1531  1.9074
    9MOL    H28 7724   1.901   0.026   5.804  0.9884  1.2113  2.4973
    9MOL    H29 7725   2.097   0.056   5.626  2.8916 -2.5419 -0.6297
    9MOL    H30 7726   2.184   7.716   5.722  1.6775  0.8438 -0.7272
    9MOL    H31 7727   2.188   0.116   5.916  0.7543 -1.9425 -1.1923
    9MOL    H32 7728   2.052   0.188   5.832  1.0301  2.7419  1.4779
    9MOL    H33 7729   2.189   0.297   5.664 -1.3674  0.8066  0.7547
    9MOL    H34 7730   2.320   0.184   5.685  0.8313 -0.1688  0.6928
    9MOL    H35 7731   2.363   0.284   5.914 -0.6524  1.5831  0.7924
    9MOL    H36 7732   2.232   0.392   5.893 -1.4394 -0.5838  0.0802
    9MOL    H37 7733   2.495   0.403   5.751 -0.6744 -1.1858 -0.3643
    9MOL    H38 7734   2.361   0.490   5.686  1.4050  0.9774 -0.0652
    9MOL    H39 7735   2.485   0.501   5.962 -0.2402 -0.0156  1.4088
    9MOL    H40 7736   2.337   0.590   5.930  0.3458 -1.1207  1.1031
    9MOL    H41 7737   2.770   0.856   5.908 -1.9544 -1.0622  2.9112
    9MOL    H42 7738   2.733   0.791   5.753 -2.6622  0.6472 -2.1712
    9MOL    H43 7739   2.518   0.920   5.749 -0.1017 -0.0661  0.4735
    9MOL    H44 7740   2.649   1.027   5.754  1.3559  0.9862  2.2204
    9MOL    H45 7741   2.486   0.964   6.007  0.2546 -1.0357 -0.4943
    9MOL    H46 7742   2.450   1.092   5.897  0.1207  1.1725  4.2636
    9MOL    H47 7743   2.563   1.184   6.085  0.1125 -0.6345 -0.0183
    9MOL    H48 7744   2.672   1.194   5.948  1.4614  0.2756  1.5626
    9MOL    H49 7745   2.062   7.463   5.385 -0.1296 -0.6729 -0.9626
    9MOL    O50 7746   2.841   1.054   6.064 -0.2492 -0.2496 -0.0686
    9MOL    C51 7747   2.938   0.978   6.129 -0.2564 -0.0762 -0.3201
    9MOL    C52 7748   3.078   0.993   6.068  0.3090 -0.3348  0.3253
    9MOL    C53 7749   3.181   0.934   6.163  0.7023 -0.4619  0.4015
    9MOL    C54 7750   3.316   0.919   6.103  0.7904  0.3787  0.8419
    9MOL    C55 7751   3.388   1.046   6.082 -0.6604 -0.0733  0.4145
    9MOL    C56 7752   3.538   1.034   6.042 -0.4700  0.0771 -0.7222
    9MOL    C57 7753   3.596   1.181   6.036 -0.0451  0.4575  0.3316
    9MOL    C58 7754   3.749   1.180   6.005 -0.1386 -0.0004 -0.1873
    9MOL    C59 7755   3.793   1.128   5.867  0.5847 -0.0980  0.7858
    9MOL    C60 7756   3.947   1.120   5.851  0.2711 -0.6917  0.0719
    9MOL    O61 7757   3.972   1.148   5.717  0.0508  0.2342 -0.8589
    9MOL    C62 7758   3.965   1.057   5.621  0.2055 -0.2763 -0.4144
    9MOL    O63 7759   3.927   0.942   5.640  1.0160 -1.0699 -0.4373
    9MOL    C64 7760   3.991   1.108   5.476 -0.1638 -0.1470  0.0335
    9MOL    C65 7761   3.980   0.998   5.371 -0.0975  0.1720  0.6076
    9MOL    C66 7762   4.001   1.045   5.224  0.8040  0.1203  0.5249
    9MOL    C67 7763   3.974   0.931   5.124 -0.3891 -0.1570  0.0899
    9MOL    C68 7764   3.994   0.981   4.980 -0.1306 -0.3855  0.4933
    9MOL    O69 7765   4.107   0.986   4.936 -0.3643 -0.1047  0.1320
    9MOL    H70 7766   2.932   1.012   6.232  0.9724 -0.5118 -0.1043
    9MOL    H71 7767   2.905   0.874   6.128  0.4797 -0.3107 -1.8378
    9MOL    H72 7768   3.092   1.098   6.043  0.0852 -0.9652 -2.6690
    9MOL    H73 7769   3.074   0.935   5.976  1.0313  0.6935 -0.3676
    9MOL    H74 7770   3.181   0.993   6.255  0.6523 -1.1131  0.8208
    9MOL    H75 7771   3.146   0.838   6.199  2.3921 -0.9539  0.7459
    9MOL    H76 7772   3.291   0.873   6.007  3.0866  3.0650 -1.1326
    9MOL    H77 7773   3.371   0.848   6.164  1.4747  0.3639  0.2162
    9MOL    H78 7774   3.379   1.115   6.166 -0.3653 -0.5063  0.8003
    9MOL    H79 7775   3.343   1.106   6.002  0.4394  0.8612  0.4934
    9MOL    H80 7776   3.551   0.984   5.946 -2.2896 -1.5805 -0.1220
    9MOL    H81 7777   3.581   0.966   6.116  1.0662 -0.1149 -1.7753
    9MOL    H82 7778   3.582   1.223   6.136  3.2141 -0.2879  1.1620
    9MOL    H83 7779   3.541   1.242   5.964 -0.6841 -1.8963 -1.2103
    9MOL    H84 7780   3.804   1.117   6.075 -1.4778 -1.0635 -0.0667
    9MOL    H85 7781   3.776   1.285   6.008 -0.2146  0.0153 -0.0573
    9MOL    H86 7782   3.746   1.035   5.833 -1.1028  0.9007  0.2947
    9MOL    H87 7783   3.754   1.204   5.798  0.7812 -1.6356 -1.0684
    9MOL    H88 7784   3.982   1.020   5.879 -1.0946 -0.9924  0.7444
    9MOL    H89 7785   3.984   1.193   5.924 -1.2982  1.5392 -1.3082
    9MOL    H90 7786   3.922   1.182   5.436 -2.3342 -0.9489  2.1900
    9MOL    H91 7787   4.089   1.155   5.479 -0.9747  1.6499 -1.1975
    9MOL    H92 7788   3.887   0.943   5.388 -0.5091 -0.0628 -2.0848
    9MOL    H93 7789   4.063   0.929   5.388  0.3249  0.4335 -0.3880
    9MOL    H94 7790   4.103   1.081   5.210  0.3883  1.1057  0.0388
    9MOL    H95 7791   3.944   1.136   5.208  1.3210  0.0554 -1.8576
    9MOL    H96 7792   3.871   0.898   5.126  0.0976 -1.6179  1.4837
    9MOL    H97 7793   4.045   0.850   5.141 -0.7804 -1.0825 -2.3851
    9MOL    O98 7794   3.883   1.022   4.916  0.0467 -0.1608  0.0921
    9MOL    C99 7795   3.894   1.048   4.770 -0.4304  0.0984  0.2212
    9MOL   C100 7796   3.778   1.134   4.732  0.2970 -0.0081 -0.1290
    9MOL   C101 7797   3.770   1.272   4.796 -0.5614  0.3208 -0.1801
    9MOL   C102 7798   3.845   1.378   4.715  0.0658 -0.0331  0.5184
    9MOL   C103 7799   3.810   1.524   4.753 -0.5085  0.2221 -0.6400
    9MOL   C104 7800   3.902   1.634   4.711  0.2011 -0.9915 -0.8053
    9MOL   C105 7801   3.862   1.761   4.797  0.1363  0.0061 -0.1782
    9MOL   C106 7802   3.934   1.889   4.765 -0.3709 -0.4867  0.4433
    9MOL   C107 7803   4.085   1.891   4.817  0.3640 -0.4430 -0.4214
    9MOL   C108 7804   4.104   1.976   4.944  0.4758 -0.0279 -0.5890
    9MOL   O109 7805   4.046   1.906   5.055 -0.3241  0.1803  0.5540
    9MOL   C110 7806   3.958   1.970   5.135  0.6288  0.1218  0.0060
    9MOL   O111 7807   3.922   2.088   5.130  0.1664  0.4608 -0.0561
    9MOL   C112 7808   3.901   1.875   5.248  0.0790 -0.6620  0.2582
    9MOL   C113 7809   3.816   1.933   5.354 -0.1341 -0.0202 -0.5195
    9MOL   C114 7810   3.809   1.845   5.480  0.0563 -0.5464  0.2152
    9MOL   C115 7811   3.729   1.900   5.596 -0.2138  0.5428  0.7666
    9MOL   C116 7812   3.774   2.042   5.645 -0.2077  0.4668  0.2345
    9MOL   O117 7813   3.859   2.061   5.726 -0.5087 -0.2936  0.1460
    9MOL   H118 7814   3.994   1.088   4.754  0.1234 -1.0947  0.6125
    9MOL   H119 7815   3.890   0.957   4.710  2.2155  0.5603 -0.7182
    9MOL   H120 7816   3.686   1.080   4.756 -0.1902  0.3912 -1.0404
    9MOL   H121 7817   3.769   1.158   4.626  0.7908  0.0315 -0.1634
    9MOL   H122 7818   3.665   1.300   4.791 -0.1399  2.3094  1.2507
    9MOL   H123 7819   3.806   1.279   4.898  2.7223  1.8425 -1.3630
    9MOL   H124 7820   3.824   1.371   4.608 -0.6855  2.6233  0.4712
    9MOL   H125 7821   3.954   1.375   4.722  0.0175 -1.3302  0.9510
    9MOL   H126 7822   3.802   1.525   4.861 -0.6793 -1.1517 -0.6399
    9MOL   H127 7823   3.716   1.563   4.715 -0.9921 -0.0825  0.2346
    9MOL   H128 7824   3.890   1.652   4.604  1.6065 -0.7485 -0.9391
    9MOL   H129 7825   4.005   1.598   4.720  0.2164 -0.1706  3.2482
    9MOL   H130 7826   3.864   1.739   4.904 -2.2090 -0.1954 -0.1386
    9MOL   H131 7827   3.755   1.774   4.778 -0.6427 -1.4815  2.8582
    9MOL   H132 7828   3.881   1.963   4.825  0.8131 -0.7561  1.8507
    9MOL   H133 7829   3.920   1.917   4.660 -2.4911 -0.7903  0.6397
    9MOL   H134 7830   4.128   1.791   4.814 -0.6798 -1.1286  3.7364
    9MOL   H135 7831   4.148   1.941   4.744  0.3987  2.7924  1.7262
    9MOL   H136 7832   4.065   2.078   4.940 -0.3372 -0.2614  1.0157
    9MOL   H137 7833   4.210   1.979   4.970  0.2215 -1.2577  0.6022
    9MOL   H138 7834   3.847   1.789   5.207  0.2848 -0.3639 -0.6524
    9MOL   H139 7835   3.991   1.842   5.300  1.9989  1.5992 -1.5539
    9MOL   H140 7836   3.714   1.943   5.318  0.7307 -1.5846 -3.5167
    9MOL   H141 7837   3.859   2.032   5.374 -1.2272  0.0645  1.4772
    9MOL   H142 7838   3.908   1.835   5.524 -0.5707 -1.4522  1.4382
    9MOL   H143 7839   3.759   1.754   5.446 -1.0264 -0.9543  2.7476
    9MOL   H144 7840   3.737   1.828   5.678 -0.0770  0.1248  0.3834
    9MOL   H145 7841   3.626   1.891   5.561  0.1661  0.4049 -0.3124
    9MOL   O146 7842   3.708   2.140   5.575  0.3128  0.5813  0.2596
    9MOL   C147 7843   3.703   2.273   5.624  0.0293  0.9070  0.5216
    9MOL   C148 7844   3.642   2.385   5.521  0.4505  0.2297 -0.1375
    9MOL   C149 7845   3.683   2.353   5.378 -0.0666 -0.0825  0.4100
    9MOL   C150 7846   3.831   2.333   5.353  0.0528  0.9208 -0.2497
    9MOL   C151 7847   3.924   2.450   5.398 -0.3855 -0.3663 -0.0419
    9MOL   C152 7848   3.892   2.584   5.337  0.6940  0.9688 -0.0805
    9MOL   C153 7849   4.006   2.677   5.365 -0.4574  0.1950 -0.4899
    9MOL   C154 7850   4.001   2.751   5.500  1.1362  0.7513  0.4015
    9MOL   C155 7851   4.088   2.876   5.516 -0.0279 -0.1781 -0.0732
    9MOL   C156 7852   4.117   2.903   5.665 -0.0100 -0.0465  0.0978
    9MOL   O157 7853   4.000   2.912   5.744  0.6149 -0.3794 -0.2003
    9MOL   C158 7854   3.933   3.030   5.753 -0.8538  0.1512 -0.2500
    9MOL   O159 7855   3.966   3.137   5.692 -0.1815 -0.5416  0.2588
    9MOL   C160 7856   3.809   3.027   5.847 -0.3056 -0.3441  0.4675
    9MOL   C161 7857   3.696   2.931   5.797 -0.1607  0.1965  0.8383
    9MOL   C162 7858   3.569   2.956   5.873 -0.7436 -0.4980  0.4082
    9MOL   C163 7859   3.482   2.829   5.895 -0.3175 -0.1194 -0.2490
    9MOL   C164 7860   3.442   2.755   5.766 -0.3442 -0.3190 -0.0351
    9MOL   O165 7861   3.479   2.639   5.749 -0.9405 -0.0661  0.8623
    9MOL   H166 7862   3.638   2.260   5.711 -0.9009  1.3201 -0.1031
    9MOL   H167 7863   3.800   2.304   5.662 -0.2171  0.0869  1.8717
    9MOL   H168 7864   3.681   2.486   5.538  0.6880 -0.0651  1.1263
    9MOL   H169 7865   3.533   2.392   5.527  0.5370  0.6375  1.3157
    9MOL   H170 7866   3.626   2.265   5.348  2.2098 -1.6918  0.6293
    9MOL   H171 7867   3.645   2.436   5.320 -2.0418  0.8218  2.9256
    9MOL   H172 7868   3.848   2.317   5.247 -1.5562 -0.8704 -0.2527
    9MOL   H173 7869   3.858   2.240   5.404 -1.4708  2.4542  3.5373
    9MOL   H174 7870   4.027   2.420   5.380  0.2943  1.6702  0.4005
    9MOL   H175 7871   3.920   2.468   5.506  0.6799 -3.5077  0.5673
    9MOL   H176 7872   3.794   2.620   5.369  1.0763  0.4477  1.6760
    9MOL   H177 7873   3.878   2.566   5.230 -2.7113  2.0481  0.1134
    9MOL   H178 7874   3.994   2.756   5.291  0.3246  2.1753  1.4757
    9MOL   H179 7875   4.098   2.625   5.337 -0.1051  0.0330  0.9386
    9MOL   H180 7876   4.026   2.685   5.583  2.1989  1.1305  0.3925
    9MOL   H181 7877   3.899   2.781   5.526  0.3268  0.2115 -2.0114
    9MOL   H182 7878   4.185   2.872   5.466  0.4036 -0.2175  0.7571
    9MOL   H183 7879   4.039   2.959   5.466  0.2756 -0.0795 -0.2066
    9MOL   H184 7880   4.182   2.990   5.673  0.8113 -0.6581  0.2463
    9MOL   H185 7881   4.174   2.822   5.713 -0.3618 -0.1990  0.2611
    9MOL   H186 7882   3.847   3.006   5.946  0.1282 -0.8038  0.2064
    9MOL   H187 7883   3.782   3.131   5.864 -0.9170 -0.3221 -0.5760
    9MOL   H188 7884   3.735   2.831   5.816  2.6728  0.3982 -3.2393
    9MOL   H189 7885   3.682   2.950   5.690  0.5659 -1.7425  0.3657
    9MOL   H190 7886   3.508   3.024   5.812  0.5861  1.1577  0.8985
    9MOL   H191 7887   3.586   2.998   5.972  0.5865 -2.4998  1.0495
    9MOL   H192 7888   3.388   2.840   5.950  0.5055  2.6450  0.7047
    9MOL   H193 7889   3.518   2.759   5.970  1.3120 -0.9579 -1.8109
    9MOL   O194 7890   3.368   2.826   5.680 -0.8465  0.0197 -0.0972
    9MOL   C195 7891   3.360   2.776   5.545  0.7582  0.0487 -0.2615
    9MOL   C196 7892   3.482   2.813   5.460  0.4172 -0.6478 -0.0439
    9MOL   C197 7893   3.511   2.967   5.448 -0.0005 -0.2667  0.2224
    9MOL   C198 7894   3.650   3.006   5.394  0.1421  0.5087 -0.1622
    9MOL   C199 7895   3.686   3.151   5.386  0.1483 -0.3155 -0.3569
    9MOL   C200 7896   3.830   3.181   5.337 -0.3185 -0.5608  0.2381
    9MOL   C201 7897   3.866   3.167   5.192  0.4001  0.3509  0.3478
    9MOL   C202 7898   4.007   3.213   5.160 -0.4088 -0.2058 -0.0486
    9MOL   C203 7899   4.053   3.214   5.014  0.9974  0.0159  0.0803
    9MOL   C204 7900   4.196   3.272   5.001  0.6990 -0.0805 -0.4186
    9MOL   O205 7901   4.248   3.235   4.879  0.1643  0.0858 -0.1240
    9MOL   C206 7902   4.367   3.282   4.839  0.7223  0.1297 -0.6765
    9MOL   O207 7903   4.442   3.328   4.920  0.1915  0.5715 -0.7526
    9MOL   C208 7904   4.409   3.263   4.693  0.2253  0.0649 -0.0502
    9MOL   C209 7905   4.480   3.125   4.671  0.1132 -0.4157 -0.6765
    9MOL   C210 7906   4.403   2.996   4.699  0.2932 -0.1561 -0.5596
    9MOL   C211 7907   4.503   2.880   4.683  0.1444 -0.4812 -0.7579
    9MOL   C212 7908   4.455   2.753   4.746  0.5722 -0.3118  0.4718
    9MOL   O213 7909   4.336   2.729   4.752  0.0422 -0.1673  0.4424
    9MOL   H214 7910   3.347   2.669   5.539  1.7016  0.0310 -2.3588
    9MOL   H215 7911   3.273   2.832   5.510 -0.2666  0.4485  2.7620
    9MOL   H216 7912   3.472   2.779   5.357 -2.0528  1.9768 -0.7635
    9MOL   H217 7913   3.570   2.761   5.495 -0.1983 -1.8811 -0.3129
    9MOL   H218 7914   3.428   3.018   5.399  0.1662 -3.3891 -3.6338
    9MOL   H219 7915   3.506   3.004   5.550 -1.0574 -0.4866  0.2542
    9MOL   H220 7916   3.664   2.964   5.294  1.1715  0.2251  0.0981
    9MOL   H221 7917   3.733   2.966   5.451  0.9391  1.3838 -0.6874
    9MOL   H222 7918   3.677   3.199   5.484  0.3567 -2.2878  0.6423
    9MOL   H223 7919   3.615   3.197   5.317 -0.3063  0.1586  0.4221
    9MOL   H224 7920   3.898   3.118   5.395  0.3696 -0.7349 -0.7587
    9MOL   H225 7921   3.850   3.285   5.362  0.4159 -0.2363 -1.6453
    9MOL   H226 7922   3.802   3.235   5.136  1.6159  0.9469 -0.3441
    9MOL   H227 7923   3.844   3.067   5.154  0.9170  0.0643  0.7822
    9MOL   H228 7924   4.075   3.147   5.215  1.0310  1.0491 -0.2647
    9MOL   H229 7925   4.016   3.314   5.202  1.3139 -1.0924  1.8206
    9MOL   H230 7926   4.045   3.115   4.969  4.4793 -0.8795  1.3094
    9MOL   H231 7927   3.979   3.276   4.962 -1.3209 -1.3892  1.6437
    9MOL   H232 7928   4.269   3.230   5.070  0.3484 -0.4236 -0.2537
    9MOL   H233 7929   4.201   3.380   5.012 -1.8396 -0.0002  0.3604
    9MOL   H234 7930   4.322   3.266   4.628 -2.1403  3.2114  3.0735
    9MOL   H235 7931   4.465   3.351   4.663 -0.1879 -0.0969 -1.2927
    9MOL   H236 7932   4.578   3.126   4.721  0.0619  0.7981 -0.5778
    9MOL   H237 7933   4.497   3.117   4.564  2.7782  0.1672 -0.3333
    9MOL   H238 7934   4.321   2.987   4.628 -2.7737 -1.0093  2.9234
    9MOL   H239 7935   4.358   2.996   4.798  1.6561 -1.7304  0.0835
    9MOL   H240 7936   4.595   2.918   4.729 -0.2985 -2.8800  2.3231
    9MOL   H241 7937   4.538   2.854   4.583  4.0447  1.5289 -0.0088
    9MOL   O242 7938   4.553   2.678   4.798 -0.3773 -0.2625  0.0728
    9MOL   C243 7939   4.520   2.551   4.859 -0.4233 -0.1842 -0.0682
    9MOL   C244 7940   4.658   2.481   4.856  0.1068 -0.2495  0.0244
    9MOL   C245 7941   4.661   2.343   4.923 -0.7369  0.1212 -0.0855
    9MOL   C246 7942   4.640   2.222   4.828 -0.7258 -0.1752  0.0339
    9MOL   C247 7943   4.695   2.091   4.888 -0.1269 -0.0011 -0.0792
    9MOL   C248 7944   4.623   2.041   5.004  0.2582  0.1839 -0.4017
    9MOL   C249 7945   4.684   1.919   5.061  0.6020  0.0608  0.1286
    9MOL   C250 7946   4.608   1.857   5.177  0.0104  0.3743 -0.2111
    9MOL   C251 7947   4.478   1.779   5.134  0.1007  0.8900  0.2728
    9MOL   C252 7948   4.404   1.723   5.251 -0.2438  0.6051  0.1934
    9MOL   O253 7949   4.309   1.818   5.295 -0.5388  0.1922  0.5042
    9MOL   C254 7950   4.344   1.895   5.408  0.3087  0.2387  0.7780
    9MOL   O255 7951   4.444   1.875   5.478 -0.6658  0.0974 -0.7116
    9MOL   C256 7952   4.236   1.993   5.432 -0.0712  0.6751 -0.5327
    9MOL   C257 7953   4.268   2.142   5.401  0.2357  0.4340 -0.6604
    9MOL   C258 7954   4.273   2.163   5.247  0.0006  0.4325  0.4535
    9MOL   C259 7955   4.277   2.315   5.215  0.7045 -0.8100  0.9029
    9MOL   C260 7956   4.226   2.351   5.076 -0.3731 -0.3619 -0.3705
    9MOL   O261 7957   4.228   2.273   4.982 -0.3427  0.0991  0.0196
    9MOL   H262 7958   4.495   2.562   4.964 -0.2110  1.0252 -0.1292
    9MOL   H263 7959   4.457   2.487   4.799 -0.7792  0.2498 -0.1621
    9MOL   H264 7960   4.730   2.534   4.918 -1.3983 -0.6219  2.1322
    9MOL   H265 7961   4.681   2.467   4.750  1.6777 -1.2173  0.4711
    9MOL   H266 7962   4.751   2.333   4.985 -2.1711 -0.3599  1.9691
    9MOL   H267 7963   4.596   2.339   5.010  2.5941  0.4883  2.5632
    9MOL   H268 7964   4.708   2.241   4.745 -0.5425  1.4600  0.5373
    9MOL   H269 7965   4.536   2.218   4.795 -1.2561  2.0711  1.2985
    9MOL   H270 7966   4.801   2.105   4.908 -0.2441 -0.7763  1.1757
    9MOL   H271 7967   4.688   2.016   4.809  0.7100  0.6964 -0.8294
    9MOL   H272 7968   4.518   2.028   4.979  0.9432 -1.6564 -2.4985
    9MOL   H273 7969   4.619   2.120   5.079 -0.3352 -2.7832  2.8294
    9MOL   H274 7970   4.780   1.943   5.108 -0.1688 -0.2886  1.9325
    9MOL   H275 7971   4.698   1.844   4.984 -0.6413 -0.0615  0.0190
    9MOL   H276 7972   4.589   1.930   5.256  2.3712  0.6956  0.0745
    9MOL   H277 7973   4.678   1.784   5.217 -0.9303 -1.0329 -1.0966
    9MOL   H278 7974   4.414   1.836   5.067 -1.0438 -1.7766 -0.9196
    9MOL   H279 7975   4.523   1.704   5.069 -0.4258  0.3868  0.4856
    9MOL   H280 7976   4.458   1.681   5.336  0.1746  1.5940  0.4173
    9MOL   H281 7977   4.357   1.636   5.206  2.8397 -1.2001  0.3216
    9MOL   H282 7978   4.145   1.949   5.391  0.6636 -1.6391  0.2502
    9MOL   H283 7979   4.231   1.987   5.541  2.5419 -3.3105 -0.5204
    9MOL   H284 7980   4.368   2.165   5.438 -0.1584 -1.2266  1.4963
    9MOL   H285 7981   4.185   2.193   5.450 -0.3275  0.0555 -1.2141
    9MOL   H286 7982   4.189   2.115   5.195  1.1730  1.0012 -2.0479
    9MOL   H287 7983   4.357   2.108   5.205 -1.1859 -0.0102 -1.4029
    9MOL   H288 7984   4.371   2.364   5.241  0.1255  0.6355  0.3287
    9MOL   H289 7985   4.197   2.351   5.279  2.0022  3.4014  0.3387
    9MOL   O290 7986   4.192   2.476   5.074  0.1664  0.6409 -0.2959
    9MOL   C291 7987   4.143   2.533   4.953  0.2366  0.2228  0.2983
    9MOL   C292 7988   4.081   2.671   4.979 -0.3188 -0.0261  0.0354
    9MOL   C293 7989   4.028   2.722   4.848 -0.4196  0.8340 -0.1556
    9MOL   C294 7990   3.945   2.850   4.868 -0.3194 -1.0992  0.5455
    9MOL   C295 7991   3.796   2.830   4.896 -0.6686  0.3519  0.3715
    9MOL   C296 7992   3.711   2.949   4.849 -0.0089  0.3716 -0.5780
    9MOL   C297 7993   3.556   2.940   4.852  0.4351 -0.0720  0.0991
    9MOL   C298 7994   3.488   2.930   4.995 -1.1163 -0.4934 -0.5131
    9MOL   C299 7995   3.339   2.902   4.985  0.1670 -0.2071 -0.3179
    9MOL   C300 7996   3.270   2.881   5.124 -0.2916  0.6829  0.2792
    9MOL   O301 7997   3.133   2.853   5.110  0.1801 -0.2708 -0.0137
    9MOL   C302 7998   3.052   2.856   5.213  1.0707 -0.1196  0.2658
    9MOL   O303 7999   3.095   2.863   5.329  0.1674 -0.0629  0.0866
    9MOL   C304 8000   2.903   2.826   5.187  0.3227 -0.6402 -0.2169
    9MOL   C305 8001   2.822   2.935   5.116 -0.1361 -0.5826 -0.1641
    9MOL   C306 8002   2.668   2.930   5.149  0.5583  0.7915  0.1715
    9MOL   C307 8003   2.615   2.786   5.142  0.5433  0.6991  0.8364
    9MOL   C308 8004   2.462   2.790   5.129 -0.0021  0.1839 -0.6094
    9MOL   O309 8005   2.394   2.752   5.227 -0.1137  0.4976 -0.2154
    9MOL   H310 8006   4.213   2.534   4.870  1.6364  0.7495  1.4496
    9MOL   H311 8007   4.058   2.474   4.922  0.2627 -0.7391  1.9719
    9MOL   H312 8008   4.156   2.741   5.014 -0.1664  1.5583 -3.2516
    9MOL   H313 8009   3.997   2.660   5.048 -1.0077 -0.2061 -0.8201
    9MOL   H314 8010   4.103   2.731   4.770  0.2109 -1.1354  0.1815
    9MOL   H315 8011   3.968   2.642   4.805 -1.6824  1.3410  0.6315
    9MOL   H316 8012   3.956   2.897   4.770  0.1937  1.3137  1.7377
    9MOL   H317 8013   3.995   2.918   4.936 -1.3676  0.2040  0.0176
    9MOL   H318 8014   3.779   2.810   5.002 -0.0483 -0.4376  0.3244
    9MOL   H319 8015   3.758   2.738   4.851 -0.8128 -0.1866  1.5674
    9MOL   H320 8016   3.733   2.975   4.745 -2.4121 -0.5458 -1.3580
    9MOL   H321 8017   3.739   3.049   4.882  1.2836  0.0720 -0.7419
    9MOL   H322 8018   3.535   2.855   4.787 -0.9700  0.9682 -0.8346
    9MOL   H323 8019   3.501   3.021   4.804 -0.6856  0.2267  1.8206
    9MOL   H324 8020   3.501   3.028   5.042 -0.1220  0.3765 -2.5212
    9MOL   H325 8021   3.538   2.852   5.051 -3.3458 -1.8646 -0.3682
    9MOL   H326 8022   3.292   2.988   4.937  0.5724  0.2241  0.0348
    9MOL   H327 8023   3.321   2.818   4.919 -2.8208  0.7243 -0.7604
    9MOL   H328 8024   3.302   2.963   5.189  0.3048  2.4982 -2.2336
    9MOL   H329 8025   3.321   2.796   5.169  3.3266  2.2054 -0.7190
    9MOL   H330 8026   2.888   2.735   5.130 -1.0121  0.6379 -1.9803
    9MOL   H331 8027   2.854   2.813   5.284 -1.3322  0.1156 -0.9323
    9MOL   H332 8028   2.831   2.920   5.008 -1.3373 -0.0729 -0.3402
    9MOL   H333 8029   2.852   3.039   5.131  0.8213 -0.5858 -1.9104
    9MOL   H334 8030   2.603   2.996   5.092  0.7090  1.4075  0.7105
    9MOL   H335 8031   2.660   2.978   5.246  3.2487  0.6949  0.4953
    9MOL   H336 8032   2.625   2.716   5.224 -0.5170 -0.1859  0.2363
    9MOL   H337 8033   2.661   2.733   5.059 -0.3940 -2.5832  2.3429
    9MOL   O338 8034   2.414   2.832   5.012  0.3608 -0.4731  0.1848
    9MOL   C339 8035   2.274   2.834   4.985  0.1668 -1.0127 -0.4131
    9MOL   C340 8036   2.235   2.716   4.901 -0.3930  0.3416 -0.6050
    9MOL   C341 8037   2.273   2.573   4.952 -0.1471  0.2260 -0.1293
    9MOL   C342 8038   2.221   2.473   4.850 -0.0715 -0.1279 -0.0573
    9MOL   C343 8039   2.282   2.333   4.885  0.1722 -0.1771 -0.0049
    9MOL   C344 8040   2.424   2.317   4.844  0.3241  0.1904 -0.3294
    9MOL   C345 8041   2.498   2.196   4.902 -0.5856  0.2527  0.3830
    9MOL   C346 8042   2.649   2.224   4.936  0.2242 -0.2092  0.5770
    9MOL   C347 8043   2.736   2.216   4.811  0.5588  0.0053 -0.1177
    9MOL   C348 8044   2.888   2.220   4.835 -0.1074  0.4255 -0.6597
    9MOL   O349 8045   2.923   2.349   4.848 -0.2125 -0.2982  0.0375
    9MOL   C350 8046   3.043   2.379   4.913  0.5866  0.2302  0.4791
    9MOL   O351 8047   3.120   2.297   4.968  0.3006 -0.3009 -0.4957
    9MOL   C352 8048   3.063   2.528   4.908  0.3995  0.9997  0.1352
    9MOL   C353 8049   3.010   2.602   4.788 -0.5889  1.1272  0.1754
    9MOL   C354 8050   3.036   2.756   4.811 -0.0204  0.0125  0.6004
    9MOL   C355 8051   3.000   2.830   4.688 -0.0645 -0.1363  0.6026
    9MOL   C356 8052   3.133   2.880   4.627  0.4481 -0.5312  0.2325
    9MOL   O357 8053   3.179   2.989   4.673 -0.5716  0.4588  0.5720
    9MOL   H358 8054   2.213   2.852   5.074 -0.9962  0.3096 -1.4554
    9MOL   H359 8055   2.261   2.925   4.926  2.0698  0.1558  0.8903
    9MOL   H360 8056   2.265   2.733   4.798  0.2922  0.0516 -0.4603
    9MOL   H361 8057   2.127   2.730   4.895 -0.3617  0.0555 -1.8907
    9MOL   H362 8058   2.380   2.581   4.966 -0.1492  0.0194  0.0128
    9MOL   H363 8059   2.235   2.547   5.051  2.2206 -1.3355  0.4085
    9MOL   H364 8060   2.231   2.493   4.744  0.5936  0.8158  0.1756
    9MOL   H365 8061   2.113   2.471   4.860  0.0456  2.1046  2.2074
    9MOL   H366 8062   2.234   2.259   4.820 -1.1408 -0.1293  0.8921
    9MOL   H367 8063   2.275   2.305   4.990 -0.9424  1.3764  0.3499
    9MOL   H368 8064   2.476   2.405   4.883  0.7383  0.1455 -0.7705
    9MOL   H369 8065   2.432   2.334   4.736 -2.3011  2.2126 -0.2575
    9MOL   H370 8066   2.469   2.120   4.829  1.1608 -0.1358  0.0783
    9MOL   H371 8067   2.452   2.167   4.997  2.0823 -0.5826  1.4537
    9MOL   H372 8068   2.685   2.162   5.017  0.5525  1.0788  1.4396
    9MOL   H373 8069   2.676   2.323   4.973  1.5714 -0.4727  0.3353
    9MOL   H374 8070   2.720   2.118   4.768  0.6265  0.0977 -0.3543
    9MOL   H375 8071   2.703   2.287   4.735 -1.9617 -0.8291  0.1327
    9MOL   H376 8072   2.928   2.172   4.746  0.8584 -0.5053  0.2605
    9MOL   H377 8073   2.916   2.160   4.922 -1.9163  0.2536 -0.1769
    9MOL   H378 8074   3.015   2.553   5.003 -0.0967 -0.3338  0.2573
    9MOL   H379 8075   3.167   2.546   4.933  1.1240  0.1676 -2.1422
    9MOL   H380 8076   2.902   2.585   4.784 -0.4957  0.7556 -0.9861
    9MOL   H381 8077   3.066   2.571   4.700 -1.2470  0.9610 -0.1920
    9MOL   H382 8078   3.137   2.777   4.847  0.6484 -2.2454  0.1832
    9MOL   H383 8079   2.967   2.790   4.888 -0.8648  0.9122 -0.5548
    9MOL   H384 8080   2.921   2.903   4.705 -0.5947 -1.0886  2.3187
    9MOL   H385 8081   2.946   2.764   4.620  0.4066  0.5603 -0.4770
    9MOL   O386 8082   3.194   2.787   4.543  0.7027  0.1167  0.4360
    9MOL   C387 8083   3.316   2.814   4.478 -0.2801 -0.4249  0.4143
    9MOL   C388 8084   3.309   2.926   4.372 -0.2841 -0.3702  1.1777
    9MOL   C389 8085   3.449   2.976   4.339  0.1367 -0.0369  0.6063
    9MOL   C390 8086   3.456   3.098   4.250 -0.3324 -0.3324  0.2804
    9MOL   C391 8087   3.595   3.159   4.233  0.1839 -0.0677  0.1024
    9MOL   C392 8088   3.593   3.262   4.115  0.5671  0.4772 -0.5416
    9MOL   C393 8089   3.735   3.297   4.064  0.1078  0.6090  0.3105
    9MOL   C394 8090   3.721   3.401   3.953  0.8562 -0.3964  0.1851
    9MOL   C395 8091   3.852   3.459   3.885 -0.0589 -0.3451 -0.2644
    9MOL   C396 8092   3.832   3.581   3.790 -1.2251  0.5281  0.5676
    9MOL   O397 8093   3.813   3.691   3.882  0.1919 -0.0998  0.2610
    9MOL   C398 8094   3.908   3.778   3.909 -0.3047 -0.4090 -0.3094
    9MOL   O399 8095   4.019   3.793   3.851  0.0046  0.1710  0.1683
    9MOL   C400 8096   3.868   3.862   4.026 -0.1535 -0.2182 -0.0873
    9MOL   C401 8097   3.873   3.789   4.163  0.0042  0.3667 -0.2804
    9MOL   C402 8098   3.771   3.846   4.261 -0.1915 -0.3489  0.3828
    9MOL   C403 8099   3.751   3.773   4.396  0.8171  0.1531  0.9618
    9MOL   C404 8100   3.641   3.828   4.482 -0.1744  0.2675 -0.7045
    9MOL   O405 8101   3.570   3.924   4.455 -0.6559 -0.3983 -0.0539
    9MOL   H406 8102   3.390   2.835   4.556 -0.8504 -0.7949  1.0563
    9MOL   H407 8103   3.366   2.731   4.427 -1.8547 -0.0993 -1.7124
    9MOL   H408 8104   3.247   3.010   4.402  2.3705  2.3800 -0.6802
    9MOL   H409 8105   3.264   2.881   4.283  1.8335 -1.1794  0.4570
    9MOL   H410 8106   3.502   2.997   4.433  1.3172  1.9688 -0.4754
    9MOL   H411 8107   3.497   2.896   4.282 -2.0344 -0.6307 -0.4068
    9MOL   H412 8108   3.387   3.174   4.287 -0.1684  0.5794 -1.2364
    9MOL   H413 8109   3.423   3.061   4.152 -1.2522 -1.7358  1.1005
    9MOL   H414 8110   3.672   3.083   4.219 -0.1010 -0.3777  0.2153
    9MOL   H415 8111   3.619   3.199   4.332 -0.5811 -2.5161  1.3317
    9MOL   H416 8112   3.533   3.350   4.141  1.8032  1.4546 -0.9498
    9MOL   H417 8113   3.535   3.209   4.039 -1.0003  0.6930  0.4717
    9MOL   H418 8114   3.790   3.217   4.014  1.6207  1.4151  0.6719
    9MOL   H419 8115   3.803   3.323   4.145 -0.1238 -0.9656  1.0281
    9MOL   H420 8116   3.668   3.489   3.990  0.5342 -0.2582 -0.5862
    9MOL   H421 8117   3.664   3.374   3.864  1.8685  0.3902 -0.7373
    9MOL   H422 8118   3.934   3.476   3.955 -0.6506  0.9640  0.1216
    9MOL   H423 8119   3.886   3.386   3.811 -0.3911 -0.1043 -0.6481
    9MOL   H424 8120   3.742   3.579   3.728 -1.1205 -1.1862  0.4490
    9MOL   H425 8121   3.925   3.591   3.735 -1.4849 -0.3651 -0.0474
    9MOL   H426 8122   3.943   3.941   4.027  0.5199 -0.8424 -0.1830
    9MOL   H427 8123   3.770   3.905   4.011  0.0133 -0.7203 -3.0709
    9MOL   H428 8124   3.974   3.799   4.202 -0.2497  0.9401  0.2267
    9MOL   H429 8125   3.860   3.681   4.154 -1.6896  0.5569 -0.4367
    9MOL   H430 8126   3.673   3.845   4.213 -0.9477  2.3596  1.7408
    9MOL   H431 8127   3.795   3.951   4.279 -0.3395  0.5914 -4.3064
    9MOL   H432 8128   3.845   3.758   4.449  0.5143 -1.9732  0.9259
    9MOL   H433 8129   3.729   3.670   4.368 -0.5367  0.7123 -0.0754
    9MOL   O434 8130   3.634   3.763   4.600  0.4198 -0.6122 -0.5036
    9MOL   C435 8131   3.539   3.782   4.703  0.1136  0.1607  0.4847
    9MOL   C436 8132   3.605   3.883   4.810 -0.0807  0.6368  0.0795
    9MOL   C437 8133   3.505   3.916   4.927  0.0004  0.0989 -1.0204
    9MOL   C438 8134   3.571   3.917   5.065 -0.0865  0.5120  0.2534
    9MOL   C439 8135   3.462   3.925   5.172 -0.3460 -0.2630  0.2370
    9MOL   C440 8136   3.513   3.929   5.312  0.8475 -0.0385 -0.2314
    9MOL   C441 8137   3.397   3.929   5.415  0.3174 -0.5797  0.4009
    9MOL   C442 8138   3.444   3.977   5.556 -0.0882  0.4331  0.2644
    9MOL   C443 8139   3.336   3.969   5.665 -0.1882  0.5270  0.4990
    9MOL   C444 8140   3.385   4.018   5.796  0.1523  0.5077  0.3515
    9MOL   O445 8141   3.484   3.935   5.854 -0.2115  0.5270  0.2238
    9MOL   C446 8142   3.456   3.850   5.958  0.5362  0.1084  0.4612
    9MOL   O447 8143   3.353   3.843   6.016 -0.2785 -0.2129  0.2135
    9MOL   C448 8144   3.573   3.768   6.003  0.2570 -0.4292  0.5402
    9MOL   C449 8145   3.664   3.845   6.100  0.9355  0.0453 -0.3295
    9MOL   C450 8146   3.771   3.744   6.147  0.5451  0.1831 -0.5601
    9MOL   C451 8147   3.876   3.794   6.246 -0.4577 -0.1506 -0.2229
    9MOL   C452 8148   3.983   3.886   6.187 -0.4256  0.1173  0.6033
    9MOL   O453 8149   4.024   3.865   6.073  0.5089 -0.3390  0.2285
    9MOL   H454 8150   3.452   3.823   4.653 -0.7528 -1.7354  0.3918
    9MOL   H455 8151   3.506   3.687   4.745 -0.3793 -0.2113 -0.7218
    9MOL   H456 8152   3.621   3.979   4.761 -2.7116  0.6715 -0.7959
    9MOL   H457 8153   3.703   3.843   4.837 -0.6392 -0.1115  1.0442
    9MOL   H458 8154   3.455   4.009   4.899 -1.3229 -0.0281  0.8962
    9MOL   H459 8155   3.438   3.831   4.929 -0.5390  0.5348 -0.5970
    9MOL   H460 8156   3.629   4.008   5.079  0.7128  0.4976 -2.6771
    9MOL   H461 8157   3.639   3.834   5.083  0.1739  1.1795  2.4349
    9MOL   H462 8158   3.384   3.851   5.154  0.4296 -0.5054 -2.3816
    9MOL   H463 8159   3.408   4.019   5.161  0.3600  0.1755  0.5035
    9MOL   H464 8160   3.590   4.004   5.324 -0.4253  1.5831 -1.9864
    9MOL   H465 8161   3.574   3.841   5.335  0.8787  0.4313  1.5523
    9MOL   H466 8162   3.354   3.829   5.426  0.9048 -1.0883 -1.7162
    9MOL   H467 8163   3.317   3.997   5.387  1.8292  0.9804 -0.1675
    9MOL   H468 8164   3.488   4.077   5.559 -0.0475  0.4764 -1.1982
    9MOL   H469 8165   3.534   3.921   5.580 -0.0086  0.5450  0.2294
    9MOL   H470 8166   3.252   4.028   5.629  0.3624  0.7728 -0.4027
    9MOL   H471 8167   3.289   3.871   5.679 -2.8325  1.6415 -0.2092
    9MOL   H472 8168   3.299   4.016   5.863 -0.4479 -1.0388 -0.4404
    9MOL   H473 8169   3.422   4.120   5.791 -0.6467  0.9113  2.2599
    9MOL   H474 8170   3.541   3.671   6.041  1.1845 -0.3163  1.6419
    9MOL   H475 8171   3.637   3.742   5.919 -0.2547  1.1325 -0.3580
    9MOL   H476 8172   3.612   3.893   6.183 -0.6615 -0.7847 -0.8291
    9MOL   H477 8173   3.710   3.925   6.042 -2.0882  3.0077  1.1883
    9MOL   H478 8174   3.818   3.698   6.061  1.9830 -0.3630  0.4966
    9MOL   H479 8175   3.721   3.662   6.198  0.9491  0.3639  0.1415
    9MOL   H480 8176   3.935   3.715   6.293  0.6776  0.4425 -0.6255
    9MOL   H481 8177   3.824   3.833   6.334 -1.3263 -1.0339 -0.3404
    9MOL   O482 8178   4.014   3.993   6.262  0.1947 -0.1852  0.2446
    9MOL   C483 8179   4.116   4.084   6.216 -0.2862  0.5468  0.6019
    9MOL   C484 8180   4.260   4.060   6.271 -0.5125  0.2046 -1.1972
    9MOL   C485 8181   4.281   4.065   6.423  0.0658 -0.2043  0.0019
    9MOL   C486 8182   4.423   4.019   6.453  0.4006 -0.4603  0.0354
    9MOL   C487 8183   4.465   4.054   6.595  0.2558 -0.5190 -0.1377
    9MOL   C488 8184   4.614   4.012   6.597  0.3082  0.2532 -0.3299
    9MOL   C489 8185   4.689   4.076   6.712 -0.4325  0.1663 -0.1324
    9MOL   C490 8186   4.830   4.039   6.735 -0.2213  0.2027 -0.3536
    9MOL   C491 8187   4.879   4.097   6.866  0.3131 -0.6978 -0.6359
    9MOL   C492 8188   5.024   4.085   6.882  0.3017 -0.3470  0.9155
    9MOL   O493 8189   5.068   4.123   7.012 -0.0103 -0.0963 -0.2910
    9MOL   C494 8190   5.178   4.067   7.067  0.3500 -0.1802  0.4762
    9MOL   O495 8191   5.249   3.982   7.012  0.0109  0.1908 -0.0332
    9MOL   C496 8192   5.203   4.109   7.208 -0.0929 -0.1042 -0.1642
    9MOL   C497 8193   5.286   4.236   7.217  0.8062 -0.3108  0.0563
    9MOL   C498 8194   5.284   4.314   7.350  0.9230  0.6035  0.4618
    9MOL   C499 8195   5.375   4.246   7.448 -0.4495 -0.5160 -0.4041
    9MOL   C500 8196   5.531   4.267   7.425 -0.0653  0.0956  0.4939
    9MOL   O501 8197   5.581   4.376   7.417  0.6672 -0.4671 -0.2248
    9MOL   H502 8198   4.116   4.071   6.108 -1.4601  0.5012  0.6006
    9MOL   H503 8199   4.076   4.181   6.247  0.8435  1.0600  0.4555
    9MOL   H504 8200   4.329   4.132   6.227 -0.6910  1.1326  0.0181
    9MOL   H505 8201   4.303   3.967   6.235  3.0852  1.4468 -0.3366
    9MOL   H506 8202   4.262   4.166   6.460 -0.0279  0.0185 -0.6520
    9MOL   H507 8203   4.216   3.991   6.471 -1.0697  1.1816  0.6382
    9MOL   H508 8204   4.490   4.073   6.386 -0.0638 -0.0136 -0.0662
    9MOL   H509 8205   4.433   3.913   6.428  0.7458 -0.6636  1.0292
    9MOL   H510 8206   4.420   3.999   6.677  1.4231 -0.0645  0.8278
    9MOL   H511 8207   4.461   4.162   6.608  0.9573 -0.6960  1.5649
    9MOL   H512 8208   4.677   4.035   6.510  0.3923  0.2243 -0.2762
    9MOL   H513 8209   4.608   3.904   6.606  0.6791  0.2866  0.3044
    9MOL   H514 8210   4.634   4.052   6.803 -1.3968  2.2194 -0.1277
    9MOL   H515 8211   4.675   4.184   6.711  2.3860  0.5677 -1.3276
    9MOL   H516 8212   4.882   4.078   6.648 -0.0289 -0.2243 -0.4280
    9MOL   H517 8213   4.855   3.933   6.729  0.3065  0.2367  0.8768
    9MOL   H518 8214   4.858   4.204   6.868 -0.5362 -0.8547 -0.9537
    9MOL   H519 8215   4.842   4.036   6.948  1.7105 -0.8169 -0.0731
    9MOL   H520 8216   5.085   4.146   6.816  1.7066 -0.9517  1.6334
    9MOL   H521 8217   5.047   3.979   6.869  0.2626 -0.2561  0.0986
    9MOL   H522 8218   5.109   4.123   7.263 -0.6443  0.8355 -1.3325
    9MOL   H523 8219   5.248   4.020   7.252 -4.9771 -1.9634  1.4392
    9MOL   H524 8220   5.239   4.303   7.145 -0.2736  0.3962  1.4144
    9MOL   H525 8221   5.390   4.227   7.186  1.1240  2.0645  0.3662
    9MOL   H526 8222   5.188   4.300   7.399  1.5609 -3.1516  0.7769
    9MOL   H527 8223   5.309   4.419   7.332 -2.2141  1.1044 -1.2669
    9MOL   H528 8224   5.355   4.139   7.454  1.7867 -0.9262 -0.0191
    9MOL   H529 8225   5.334   4.282   7.543  0.8307  1.0844 -0.4367
    9MOL   O530 8226   5.590   4.152   7.414 -0.6634  0.1127 -0.2029
    9MOL   C531 8227   5.729   4.136   7.395 -0.0453  0.5624 -0.2084
    9MOL   C532 8228   5.747   4.077   7.256  0.6102 -0.7718  0.5558
    9MOL   C533 8229   5.688   3.940   7.230 -0.6680 -0.4035 -0.2807
    9MOL   C534 8230   5.746   3.895   7.095 -0.5854 -0.6761 -0.3551
    9MOL   C535 8231   5.703   3.757   7.035  0.0154 -1.0995 -0.2511
    9MOL   C536 8232   5.552   3.748   7.017 -0.3654 -0.1103  0.6398
    9MOL   C537 8233   5.503   3.629   6.937 -0.1359 -0.3909  0.2619
    9MOL   C538 8234   5.351   3.630   6.929 -0.3286  0.2644 -0.5519
    9MOL   C539 8235   5.305   3.514   6.841  0.3552  0.0857 -0.0665
    9MOL   C540 8236   5.149   3.510   6.835 -0.2155 -0.3714  0.2477
    9MOL   O541 8237   5.096   3.410   6.927  0.0991  0.8371  0.1256
    9MOL   C542 8238   4.976   3.423   6.975  0.4534  0.3432 -0.0183
    9MOL   O543 8239   4.897   3.513   6.942  0.3985  0.3401  0.1645
    9MOL   C544 8240   4.953   3.321   7.084  0.4902  0.4038 -0.4116
    9MOL   C545 8241   4.811   3.326   7.155 -0.7853 -0.1531  0.0137
    9MOL   C546 8242   4.808   3.397   7.291 -1.7691  0.6209  0.1678
    9MOL   C547 8243   4.675   3.436   7.359  0.2968 -0.4356  0.1524
    9MOL   C548 8244   4.569   3.331   7.361 -0.1014 -0.3655 -0.3892
    9MOL   O549 8245   4.524   3.298   7.468 -0.5738  0.3840  0.1238
    9MOL   H550 8246   5.779   4.230   7.418 -1.0392  0.7136  1.4567
    9MOL   H551 8247   5.767   4.058   7.461  0.4659 -0.1371 -1.3337
    9MOL   H552 8248   5.852   4.049   7.253  1.1530  1.0910  1.5670
    9MOL   H553 8249   5.720   4.147   7.176 -2.0426  1.9076  3.6567
    9MOL   H554 8250   5.718   3.870   7.308 -1.3779 -1.2595 -0.7648
    9MOL   H555 8251   5.579   3.935   7.228 -0.7439  0.4541  1.2849
    9MOL   H556 8252   5.854   3.889   7.113 -0.6807 -1.5101 -0.0688
    9MOL   H557 8253   5.740   3.970   7.015 -2.1693 -0.4295 -0.0192
    9MOL   H558 8254   5.749   3.683   7.101 -0.4517 -2.5067 -1.4569
    9MOL   H559 8255   5.742   3.735   6.936  0.8214  0.6679 -0.3445
    9MOL   H560 8256   5.522   3.841   6.969 -0.2517 -0.9901 -1.1933
    9MOL   H561 8257   5.503   3.742   7.114 -0.2887 -0.1227  0.6785
    9MOL   H562 8258   5.539   3.534   6.978  1.0824 -0.3729 -0.7360
    9MOL   H563 8259   5.543   3.630   6.836 -2.1968  0.7517 -0.5719
    9MOL   H564 8260   5.324   3.731   6.896 -0.7850 -0.3265 -2.0640
    9MOL   H565 8261   5.309   3.613   7.027 -3.2373  0.1194 -1.7825
    9MOL   H566 8262   5.323   3.544   6.737  0.4765 -0.5271 -0.2235
    9MOL   H567 8263   5.344   3.414   6.860  1.2600  0.2125 -1.1680
    9MOL   H568 8264   5.111   3.470   6.741  1.8601 -1.1512 -0.2860
    9MOL   H569 8265   5.114   3.611   6.857  0.1797 -0.6590  2.2907
    9MOL   H570 8266   4.961   3.227   7.029 -0.4070  0.8864 -1.3843
    9MOL   H571 8267   5.038   3.342   7.149 -0.1124  0.1182  0.4707
    9MOL   H572 8268   4.768   3.229   7.180 -2.5404  1.2951  3.0261
    9MOL   H573 8269   4.735   3.374   7.094 -0.9840  0.0668  0.4254
    9MOL   H574 8270   4.861   3.489   7.267  2.3604 -2.3472 -2.7597
    9MOL   H575 8271   4.869   3.347   7.366 -0.4005  0.2874 -1.1283
    9MOL   H576 8272   4.642   3.518   7.295  0.1141 -0.0966  0.6760
    9MOL   H577 8273   4.692   3.481   7.457  1.0489  0.2124 -0.2659
    9MOL   O578 8274   4.519   3.298   7.236 -0.0060  0.1156 -0.5346
    9MOL   C579 8275   4.400   3.229   7.235 -0.6171  0.6793 -0.4717
    9MOL   C580 8276   4.340   3.219   7.102 -0.5356 -0.0378  0.6394
    9MOL   C581 8277   4.317   3.350   7.026 -0.2531 -0.8252 -0.2645
    9MOL   C582 8278   4.241   3.325   6.896  0.6071  0.0558 -0.2903
    9MOL   C583 8279   4.335   3.275   6.787 -0.0070 -0.5583 -0.0443
    9MOL   C584 8280   4.260   3.220   6.669  0.3484  0.1028 -0.6427
    9MOL   C585 8281   4.343   3.186   6.543 -0.4547 -0.3591  0.2865
    9MOL   C586 8282   4.396   3.040   6.558  0.0705 -0.1635 -0.0433
    9MOL   C587 8283   4.470   2.993   6.424 -0.4188  0.1083 -0.3506
    9MOL   C588 8284   4.473   2.843   6.420  0.2713 -0.1002  0.2301
    9MOL   O589 8285   4.544   2.790   6.526  0.0612  0.7176 -0.4391
    9MOL   C590 8286   4.665   2.732   6.499  0.5026 -0.4548  0.3442
    9MOL   O591 8287   4.710   2.724   6.386 -0.2600 -0.2324  0.7225
    9MOL   C592 8288   4.746   2.686   6.623 -0.7325 -0.2964  0.3395
    9MOL   C593 8289   4.666   2.617   6.731  0.1224 -0.7333  1.0395
    9MOL   C594 8290   4.626   2.473   6.687  0.0212 -1.1546 -0.3051
    9MOL   C595 8291   4.557   2.392   6.803 -0.6989  0.9055  0.0241
    9MOL   C596 8292   4.668   2.362   6.907  0.4999 -0.0563 -0.4377
    9MOL   O597 8293   4.676   2.417   7.018 -0.2334 -0.2657 -0.1702
    9MOL   H598 8294   4.412   3.133   7.285  0.3138  0.7731 -0.5033
    9MOL   H599 8295   4.340   3.288   7.305 -1.5883 -0.1192 -0.6295
    9MOL   H600 8296   4.242   3.173   7.116 -0.7200 -0.9342 -3.0338
    9MOL   H601 8297   4.397   3.153   7.036 -0.6487  0.7780 -0.2863
    9MOL   H602 8298   4.258   3.412   7.093  2.0703  0.5662  0.5789
    9MOL   H603 8299   4.412   3.399   7.001 -0.7902 -0.4552 -1.6243
    9MOL   H604 8300   4.196   3.422   6.874  2.3569  0.9951  0.2155
    9MOL   H605 8301   4.161   3.252   6.910  0.7328 -0.5019 -2.3492
    9MOL   H606 8302   4.398   3.194   6.826 -0.3225 -0.0888  1.4507
    9MOL   H607 8303   4.404   3.350   6.750 -1.0747 -0.0941 -1.1082
    9MOL   H608 8304   4.183   3.292   6.642 -0.6508  0.1594  2.2040
    9MOL   H609 8305   4.207   3.127   6.684  3.0135 -1.1643  1.3689
    9MOL   H610 8306   4.422   3.259   6.528  0.0855 -1.4634 -2.5010
    9MOL   H611 8307   4.272   3.177   6.461 -0.0538  0.1184 -0.1117
    9MOL   H612 8308   4.312   2.972   6.573 -0.4312  0.3940 -0.2512
    9MOL   H613 8309   4.460   3.035   6.645 -2.1105  0.4936  1.6462
    9MOL   H614 8310   4.421   3.028   6.334  0.7260 -2.1376 -1.8940
    9MOL   H615 8311   4.567   3.040   6.412 -1.4838  2.3569 -0.4743
    9MOL   H616 8312   4.521   2.819   6.326 -1.4159  0.4500 -0.7953
    9MOL   H617 8313   4.374   2.796   6.426  0.0166  0.2903 -0.9259
    9MOL   H618 8314   4.830   2.626   6.588  0.4624  0.6126  1.5647
    9MOL   H619 8315   4.800   2.766   6.673 -1.3089  0.1564  0.2480
    9MOL   H620 8316   4.580   2.681   6.752 -0.9520 -1.5901 -0.5875
    9MOL   H621 8317   4.730   2.608   6.818  0.3974 -0.5132  0.8597
    9MOL   H622 8318   4.717   2.422   6.655  1.0746  1.4166 -1.4586
    9MOL   H623 8319   4.557   2.483   6.603 -2.0104  1.3066  1.5726
    9MOL   H624 8320   4.530   2.300   6.751 -2.0707  0.9840  0.5742
    9MOL   H625 8321   4.472   2.441   6.851  1.3623  3.3343  1.3128
    9MOL   O626 8322   4.748   2.260   6.857  0.0275  0.3498 -0.4245
    9MOL   C627 8323   4.848   2.197   6.945  0.2935 -0.2398 -0.3511
    9MOL   C628 8324   4.977   2.270   6.949  0.2040  0.0029 -0.0909
    9MOL   C629 8325   5.040   2.292   6.812  0.2639  0.3158 -0.1873
    9MOL   C630 8326   5.176   2.374   6.818  0.5310 -0.7221  0.3059
    9MOL   C631 8327   5.153   2.524   6.820  0.3241 -0.2301 -0.3169
    9MOL   C632 8328   5.280   2.589   6.872  0.8717 -0.1144  0.0370
    9MOL   C633 8329   5.381   2.622   6.760  0.3607 -0.6086 -0.0630
    9MOL   C634 8330   5.495   2.713   6.801  0.1984  0.2840  0.3874
    9MOL   C635 8331   5.584   2.768   6.688 -0.5042  0.2180  0.2365
    9MOL   C636 8332   5.675   2.880   6.733 -0.1199  0.7334  0.0894
    9MOL   O637 8333   5.770   2.912   6.635 -0.1431  0.0143 -0.1683
    9MOL   C638 8334   5.893   2.936   6.665  0.3822  0.3249  0.6767
    9MOL   O639 8335   5.941   2.935   6.781  0.4094  0.1454  0.3142
    9MOL   C640 8336   5.985   2.963   6.550 -0.4343  0.2450  0.1156
    9MOL   C641 8337   5.972   3.105   6.499 -0.0820 -0.1432  0.0884
    9MOL   C642 8338   6.080   3.190   6.578 -0.9415 -0.0625  0.6399
    9MOL   C643 8339   6.097   3.335   6.533 -0.7791 -0.1042 -0.2436
    9MOL   C644 8340   6.183   3.427   6.623 -0.2857 -0.7527  0.5476
    9MOL   O645 8341   6.273   3.499   6.576  0.4177 -0.5589 -0.1239
    9MOL   H646 8342   4.803   2.181   7.043 -1.4946 -1.0220 -1.2653
    9MOL   H647 8343   4.865   2.102   6.893 -3.2214 -0.4354 -1.3256
    9MOL   H648 8344   5.050   2.224   7.017 -0.2614 -0.6431 -0.0232
    9MOL   H649 8345   4.949   2.367   6.990 -0.6530  0.0593 -0.8135
    9MOL   H650 8346   5.075   2.202   6.761  1.6060  0.4090  0.5485
    9MOL   H651 8347   4.980   2.353   6.745  1.5535 -0.5063 -2.1407
    9MOL   H652 8348   5.239   2.352   6.731 -0.2537  0.6112 -0.6118
    9MOL   H653 8349   5.227   2.333   6.905  0.2533  0.4651  1.0365
    9MOL   H654 8350   5.067   2.540   6.885  0.4494  1.2999 -0.5135
    9MOL   H655 8351   5.122   2.564   6.724 -0.4630 -1.4727 -0.5894
    9MOL   H656 8352   5.332   2.535   6.951  2.1247 -1.2420 -1.5345
    9MOL   H657 8353   5.252   2.687   6.911 -0.8721  0.6054 -2.8150
    9MOL   H658 8354   5.331   2.680   6.683  1.2391 -1.5228 -1.3623
    9MOL   H659 8355   5.422   2.539   6.702 -0.5829 -0.3038 -1.1984
    9MOL   H660 8356   5.562   2.668   6.875 -0.9406 -1.0509  0.6204
    9MOL   H661 8357   5.452   2.798   6.854 -1.0861 -1.0562  1.5316
    9MOL   H662 8358   5.653   2.689   6.659 -0.7059 -0.7382  2.2693
    9MOL   H663 8359   5.523   2.793   6.601  2.8357 -1.8591 -2.8600
    9MOL   H664 8360   5.713   2.863   6.834  1.0261 -0.9002 -0.5845
    9MOL   H665 8361   5.610   2.965   6.752 -2.4087 -0.7057 -1.0815
    9MOL   H666 8362   6.085   2.955   6.592  0.2538 -1.1619 -1.6793
    9MOL   H667 8363   5.968   2.897   6.464 -0.5876 -0.5693  0.7562
    9MOL   H668 8364   5.870   3.145   6.501 -0.8270 -1.9834 -0.4328
    9MOL   H669 8365   5.995   3.110   6.392  1.1671  0.9285  0.3948
    9MOL   H670 8366   6.181   3.159   6.551 -0.0408  2.3579  1.0896
    9MOL   H671 8367   6.053   3.182   6.684 -0.4903  1.5782  0.8970
    9MOL   H672 8368   6.001   3.386   6.539 -0.2489  0.9857 -0.8499
    9MOL   H673 8369   6.123   3.324   6.427 -1.7144 -2.7431 -0.2420
    9MOL   O674 8370   6.133   3.433   6.745  0.4230  0.0331  0.5565
    9MOL   C675 8371   6.187   3.526   6.838  0.4091  0.3159 -0.4683
    9MOL   C676 8372   6.159   3.489   6.982  0.1885 -0.1889 -0.1683
    9MOL   C677 8373   6.012   3.475   7.019  0.8508 -0.7078  0.2479
    9MOL   C678 8374   5.986   3.403   7.155 -0.5033 -0.0222 -0.2555
    9MOL   C679 8375   5.856   3.441   7.225  0.1467  0.2855  0.2944
    9MOL   C680 8376   5.793   3.334   7.318 -0.1630 -0.4791  0.0851
    9MOL   C681 8377   5.684   3.399   7.407  0.6725 -0.0004 -0.2553
    9MOL   C682 8378   5.576   3.479   7.338 -0.6966  0.0495  0.8824
    9MOL   C683 8379   5.454   3.506   7.428  0.0972  0.7007  0.1080
    9MOL   C684 8380   5.343   3.588   7.358  0.8679  0.2276 -0.1522
    9MOL   O685 8381   5.241   3.630   7.442  0.6238 -0.0837  0.2741
    9MOL   C686 8382   5.121   3.677   7.401 -0.0516 -0.3720 -0.5268
    9MOL   O687 8383   5.101   3.706   7.286  0.2236  0.0330 -0.2454
    9MOL   C688 8384   5.023   3.702   7.514  0.3912  0.5004 -0.5437
    9MOL   C689 8385   4.882   3.759   7.469  0.4949 -0.1361  0.4063
    9MOL   C690 8386   4.840   3.894   7.525 -0.1279 -0.0910 -0.1402
    9MOL   C691 8387   4.909   4.010   7.451  0.1049 -0.1115 -0.3363
    9MOL   C692 8388   4.897   4.148   7.527 -0.2308  0.5002  0.0355
    9MOL   O693 8389   4.865   4.154   7.645 -0.2675  0.4079 -0.1654
    9MOL   H694 8390   6.294   3.541   6.822  0.0753  3.6312  0.2129
    9MOL   H695 8391   6.135   3.619   6.818 -0.1574 -0.0384 -0.6456
    9MOL   H696 8392   6.214   3.556   7.048 -1.3832  2.6027 -1.5852
    9MOL   H697 8393   6.200   3.390   7.001 -1.0564 -1.0969 -2.0705
    9MOL   H698 8394   5.980   3.577   7.043  2.1202  0.3587 -2.3647
    9MOL   H699 8395   5.946   3.430   6.945  0.4118  0.3567 -0.0132
    9MOL   H700 8396   6.064   3.420   7.229 -0.6206  1.2473 -0.4022
    9MOL   H701 8397   5.991   3.297   7.132  0.2982  0.0616 -0.4628
    9MOL   H702 8398   5.781   3.470   7.152 -1.1613  0.8956  1.8575
    9MOL   H703 8399   5.885   3.523   7.290 -1.7795  1.4882 -0.3473
    9MOL   H704 8400   5.859   3.280   7.387 -0.1021 -0.1273  0.3035
    9MOL   H705 8401   5.755   3.255   7.252 -0.5170 -0.3022  0.0765
    9MOL   H706 8402   5.728   3.462   7.484  0.8306  0.2101 -0.5169
    9MOL   H707 8403   5.643   3.314   7.462  0.3717 -0.1596 -0.7266
    9MOL   H708 8404   5.544   3.419   7.253  1.2125 -2.0018  1.5726
    9MOL   H709 8405   5.620   3.568   7.293 -0.5176  0.1023  1.1639
    9MOL   H710 8406   5.408   3.412   7.458  0.2028  0.7573  0.4510
    9MOL   H711 8407   5.486   3.566   7.514  1.8597 -0.3573  0.2037
    9MOL   H712 8408   5.299   3.517   7.287  0.0359  0.5463  0.0450
    9MOL   H713 8409   5.374   3.683   7.315  0.1224 -0.0787 -1.3899
    9MOL   H714 8410   5.016   3.604   7.562 -1.2372  0.8626 -0.0213
    9MOL   H715 8411   5.087   3.769   7.573  0.6445 -0.8469  0.7463
    9MOL   H716 8412   4.800   3.700   7.509  1.2702 -0.5497  1.4100
    9MOL   H717 8413   4.866   3.754   7.362 -0.5565  1.0650  0.4970
    9MOL   H718 8414   4.874   3.899   7.628 -0.6772  0.8088  0.0002
    9MOL   H719 8415   4.731   3.896   7.528 -0.3325 -3.3767 -2.4021
    9MOL   H720 8416   4.875   4.019   7.348  0.3750  2.7437 -0.2151
    9MOL   H721 8417   5.015   3.989   7.442 -0.1230 -1.2788 -0.3577
    9MOL   O722 8418   4.928   4.251   7.443  0.0817 -0.0451  0.4033
    9MOL   C723 8419   4.894   4.380   7.480  0.4758  0.5828  0.2132
    9MOL   C724 8420   4.858   4.452   7.351  0.2290 -0.1922 -0.1828
    9MOL   C725 8421   4.975   4.520   7.287  0.6038  0.3955 -0.2661
    9MOL   C726 8422   4.950   4.581   7.144 -0.6490  0.0899  0.3616
    9MOL   C727 8423   5.076   4.656   7.089 -0.0427  0.6466 -0.1050
    9MOL   C728 8424   5.102   4.667   6.932  0.5580  0.3190  0.4811
    9MOL   C729 8425   5.001   4.765   6.870 -0.1578 -0.4922  0.3687
    9MOL   C730 8426   5.053   4.809   6.733 -0.2005  0.2424  0.1129
    9MOL   C731 8427   4.941   4.876   6.647  0.2868  0.1219  0.6181
    9MOL   C732 8428   5.004   4.946   6.526  0.7404  0.0626  0.2989
    9MOL   O733 8429   5.095   5.043   6.571 -0.2238 -0.4864  0.1517
    9MOL   C734 8430   5.059   5.172   6.586  0.2631  1.1022  0.0331
    9MOL   O735 8431   4.950   5.217   6.553  0.2312 -0.1139  0.0214
    9MOL   C736 8432   5.172   5.263   6.622 -0.0652  1.1154 -0.0220
    9MOL   C737 8433   5.143   5.411   6.646 -0.5142  0.0629  0.0570
    9MOL   C738 8434   5.128   5.506   6.520 -0.8249 -0.3782  0.0971
    9MOL   C739 8435   5.022   5.626   6.557  0.1981  0.1633  0.6205
    9MOL   C740 8436   5.018   5.741   6.450  0.4984  0.1276  0.4215
    9MOL   O741 8437   4.978   5.857   6.481 -0.2143 -0.0649  0.3081
    9MOL   H742 8438   4.811   4.373   7.551  1.7416 -0.1180  1.6568
    9MOL   H743 8439   4.978   4.432   7.527  1.0854 -0.3573  0.1769
    9MOL   H744 8440   4.788   4.531   7.378 -3.8783 -3.0787 -1.8095
    9MOL   H745 8441   4.804   4.389   7.280 -0.7003 -0.5409  0.8054
    9MOL   H746 8442   5.029   4.593   7.348  1.3550  1.4023 -2.0869
    9MOL   H747 8443   5.053   4.446   7.274 -1.2641 -1.4601 -1.1355
    9MOL   H748 8444   4.871   4.655   7.155 -0.5844  0.1773  0.2510
    9MOL   H749 8445   4.921   4.510   7.066  0.6152  1.6871 -1.6526
    9MOL   H750 8446   5.167   4.614   7.132 -0.9101  0.8854  2.0287
    9MOL   H751 8447   5.087   4.752   7.139  0.2644  1.0731 -0.9858
    9MOL   H752 8448   5.084   4.568   6.888 -2.6690  0.2082  1.9199
    9MOL   H753 8449   5.207   4.687   6.910  0.4091  1.3637  0.6866
    9MOL   H754 8450   5.003   4.857   6.929  2.4450  0.1707 -0.6546
    9MOL   H755 8451   4.898   4.729   6.871  0.8626 -3.6095 -0.5175
    9MOL   H756 8452   5.090   4.723   6.678  1.9896  0.0479  1.8613
    9MOL   H757 8453   5.137   4.875   6.754 -0.6513  0.8543 -0.0023
    9MOL   H758 8454   4.877   4.795   6.612 -0.1648  0.9456 -0.5118
    9MOL   H759 8455   4.874   4.945   6.699 -1.6993 -1.1484 -0.1835
    9MOL   H760 8456   4.926   4.995   6.468 -1.4419 -0.0059  3.0359
    9MOL   H761 8457   5.050   4.868   6.466  1.3106  1.3040 -0.9023
    9MOL   H762 8458   5.220   5.212   6.705 -0.0477  2.2997  0.6903
    9MOL   H763 8459   5.251   5.262   6.547 -0.5634 -1.9314 -0.5745
    9MOL   H764 8460   5.219   5.449   6.714 -1.1554 -1.5580  1.7195
    9MOL   H765 8461   5.047   5.426   6.695 -0.6006  1.8155 -0.5865
    9MOL   H766 8462   5.100   5.433   6.444  1.8754 -1.9710  0.5769
    9MOL   H767 8463   5.219   5.557   6.489  0.1852 -2.7044 -0.8349
    9MOL   H768 8464   5.044   5.675   6.651 -0.5023 -2.7381  2.3667
    9MOL   H769 8465   4.921   5.586   6.567 -0.9038  1.4569 -3.7818
    9MOL   O770 8466   5.073   5.711   6.332  0.1728  0.3058  0.4735
    9MOL   C771 8467   5.107   5.803   6.231 -0.2677  0.5936  0.4542
    9MOL   C772 8468   5.118   5.726   6.089  0.1478  0.6314  0.1176
    9MOL   C773 8469   5.225   5.619   6.082  0.4303 -0.9582  0.4541
    9MOL   C774 8470   5.220   5.536   5.958 -0.4706 -0.1148 -0.3303
    9MOL   C775 8471   5.359   5.482   5.926 -0.0158  0.4011 -0.1028
    9MOL   C776 8472   5.373   5.390   5.800  0.3113  0.0707 -0.0668
    9MOL   C777 8473   5.516   5.330   5.789  0.6434  0.3863  0.2578
    9MOL   C778 8474   5.551   5.274   5.649  0.4367 -0.0921 -0.3314
    9MOL   C779 8475   5.687   5.210   5.657  0.4245  0.3355  0.8133
    9MOL   C780 8476   5.806   5.281   5.580 -0.2303  1.2400 -1.2230
    9MOL   O781 8477   5.862   5.398   5.625  0.6484  0.1098 -0.4804
    9MOL   C782 8478   5.809   5.517   5.596  0.5858  0.1058  0.0137
    9MOL   O783 8479   5.715   5.539   5.522 -0.3477 -0.0079 -0.4154
    9MOL   C784 8480   5.868   5.631   5.681 -1.2182  0.0548  0.4141
    9MOL   C785 8481   5.757   5.719   5.748 -0.6071 -0.4900  0.8175
    9MOL   C786 8482   5.819   5.837   5.834  0.0758 -0.0713  0.0806
    9MOL   C787 8483   5.707   5.915   5.898  0.0167 -0.2276 -0.5957
    9MOL   C788 8484   5.658   5.868   6.038 -0.2933 -0.3864  0.7123
    9MOL   O789 8485   5.563   5.794   6.048 -0.0027 -0.4351  0.3102
    9MOL   H790 8486   5.023   5.871   6.221  0.1638  0.6950 -3.1780
    9MOL   H791 8487   5.200   5.856   6.247  1.1781 -1.7795  0.1904
    9MOL   H792 8488   5.147   5.791   6.006  0.1156  0.1379 -0.2759
    9MOL   H793 8489   5.022   5.679   6.074  1.6195 -2.5551  0.3729
    9MOL   H794 8490   5.322   5.664   6.099 -0.1180  0.0364  0.9740
    9MOL   H795 8491   5.220   5.553   6.169 -2.0423 -1.7192 -0.2123
    9MOL   H796 8492   5.190   5.590   5.868  0.5935  0.4300 -0.3665
    9MOL   H797 8493   5.143   5.459   5.962  0.0058 -0.6076 -0.4661
    9MOL   H798 8494   5.382   5.426   6.016 -0.6188  1.9762  1.0458
    9MOL   H799 8495   5.426   5.567   5.914  0.3050 -0.1325 -2.4233
    9MOL   H800 8496   5.351   5.456   5.717 -0.4101 -1.8752 -1.4676
    9MOL   H801 8497   5.296   5.313   5.793 -2.8215  2.7721  2.4384
    9MOL   H802 8498   5.513   5.260   5.872  1.0177  1.8856  1.5754
    9MOL   H803 8499   5.587   5.411   5.807  1.3778 -0.3671  0.7584
    9MOL   H804 8500   5.539   5.349   5.570 -0.8831 -0.5355 -0.5625
    9MOL   H805 8501   5.472   5.203   5.623  1.1046 -1.0463  0.2219
    9MOL   H806 8502   5.716   5.184   5.759  1.0521 -2.6238 -0.0658
    9MOL   H807 8503   5.685   5.113   5.608 -1.8734  0.3812  0.7950
    9MOL   H808 8504   5.764   5.291   5.480 -0.9651  0.2018 -1.0329
    9MOL   H809 8505   5.886   5.207   5.576 -0.5311  0.5692  2.8167
    9MOL   H810 8506   5.934   5.588   5.756 -1.4225 -1.3431 -0.1970
    9MOL   H811 8507   5.937   5.690   5.620 -0.6768 -2.3158 -1.3297
    9MOL   H812 8508   5.702   5.649   5.811  0.1017  1.1677  3.3753
    9MOL   H813 8509   5.681   5.745   5.675 -0.0011 -1.6471 -0.2354
    9MOL   H814 8510   5.874   5.912   5.778 -0.8250  0.4729 -0.0796
    9MOL   H815 8511   5.888   5.793   5.907  1.6448  0.1184 -1.2708
    9MOL   H816 8512   5.619   5.920   5.834  0.9164  0.3945 -1.7917
    9MOL   H817 8513   5.749   6.015   5.909 -1.7757  0.4168  0.6206
    9MOL   O818 8514   5.740   5.904   6.140 -0.0034 -0.3689  0.2162
    9MOL   C819 8515   5.697   5.861   6.276  0.3277  0.2061 -0.1870
    9MOL   C820 8516   5.732   5.970   6.373 -0.8886  0.3294  0.0392
    9MOL   C821 8517   5.641   6.093   6.363  0.1697 -0.0501 -0.1886
    9MOL   C822 8518   5.657   6.204   6.473  0.7386 -0.5259 -0.4863
    9MOL   C823 8519   5.567   6.330   6.432 -0.2394  0.1836 -0.2934
    9MOL   C824 8520   5.568   6.447   6.541 -0.1338 -0.4342 -0.7361
    9MOL   C825 8521   5.464   6.557   6.504  0.1627 -0.8978 -0.7951
    9MOL   C826 8522   5.471   6.675   6.610  0.3988 -0.0184  0.4787
    9MOL   C827 8523   5.386   6.798   6.584  0.3473  0.0318 -0.0955
    9MOL   C828 8524   5.391   6.892   6.704 -0.1166 -0.0222  0.8779
    9MOL   O829 8525   5.519   6.960   6.713  0.7482 -0.5126 -0.1827
    9MOL   C830 8526   5.516   7.086   6.744 -0.5358  0.2418 -0.0292
    9MOL   O831 8527   5.422   7.153   6.781 -0.6438 -0.2303  1.0173
    9MOL   C832 8528   5.656   7.148   6.739  0.5635  0.8787  0.4642
    9MOL   C833 8529   5.653   7.304   6.725  0.0380  0.6898 -0.4369
    9MOL   C834 8530   5.799   7.357   6.727  0.6828  0.2925 -0.3737
    9MOL   C835 8531   5.789   7.508   6.703  0.5948  0.2886  0.0604
    9MOL   C836 8532   5.933   7.576   6.697  0.6902  0.1633  0.1939
    9MOL   O837 8533   6.000   7.606   6.795  0.2184 -0.3305  0.0936
    9MOL   H838 8534   5.591   5.836   6.283  0.3633 -0.1308 -0.7886
    9MOL   H839 8535   5.761   5.774   6.296 -0.0890 -0.3084 -1.0258
    9MOL   H840 8536   5.834   6.007   6.383 -0.3895 -1.4720  2.0463
    9MOL   H841 8537   5.715   5.921   6.469 -2.0913  0.8222  0.0850
    9MOL   H842 8538   5.652   6.137   6.264  0.1884  0.3150 -0.0235
    9MOL   H843 8539   5.537   6.061   6.370  0.0500  0.8142  2.6061
    9MOL   H844 8540   5.757   6.247   6.476  0.3579  0.3031  0.7658
    9MOL   H845 8541   5.627   6.176   6.574 -2.3148  2.1467 -0.5896
    9MOL   H846 8542   5.462   6.299   6.431 -0.7659  1.8633  0.3930
    9MOL   H847 8543   5.593   6.379   6.339 -1.2043  0.2031 -0.5539
    9MOL   H848 8544   5.666   6.492   6.553 -1.0278  1.1498  0.9002
    9MOL   H849 8545   5.548   6.410   6.641  0.8597  0.1471 -0.3220
    9MOL   H850 8546   5.365   6.515   6.488  0.3526 -1.8842  0.5771
    9MOL   H851 8547   5.497   6.596   6.408 -2.7247  0.5909 -1.2403
    9MOL   H852 8548   5.573   6.711   6.613  0.6819 -0.7425 -0.5662
    9MOL   H853 8549   5.449   6.648   6.714  0.9915  0.0732  0.6255
    9MOL   H854 8550   5.400   6.849   6.488  1.0324 -0.5075 -0.2835
    9MOL   H855 8551   5.284   6.761   6.577  0.3315 -0.0539  0.5679
    9MOL   H856 8552   5.375   6.830   6.791 -0.2490 -0.6931  0.3775
    9MOL   H857 8553   5.302   6.954   6.693 -0.7836 -0.5378  3.1407
    9MOL   H858 8554   5.710   7.121   6.829  1.1826  1.3029  0.2249
    9MOL   H859 8555   5.728   7.106   6.668 -0.3537  1.1262 -0.6157
    9MOL   H860 8556   5.596   7.348   6.808 -0.8923 -0.7981 -0.2669
    9MOL   H861 8557   5.602   7.326   6.632  0.1681 -1.7101 -1.0962
    9MOL   H862 8558   5.848   7.308   6.643  0.3284  1.5819 -1.3443
    9MOL   H863 8559   5.850   7.331   6.820 -0.5746  0.7913  0.4815
    9MOL   H864 8560   5.729   7.563   6.776 -0.9109  0.6549 -1.4327
    9MOL   H865 8561   5.739   7.521   6.607 -1.1916 -3.5860  0.3924
    9MOL   O866 8562   5.977   7.583   6.572  0.1831 -0.4215 -0.5199
    9MOL   C867 8563   6.102   7.643   6.550 -0.4559 -0.2447  0.3349
    9MOL   C868 8564   6.142   7.629   6.395 -0.2096  0.5143 -0.8198
    9MOL   C869 8565   6.139   7.489   6.337  0.0876 -0.1122  0.1026
    9MOL   C870 8566   6.148   7.484   6.182 -0.0232 -0.5066  0.4514
    9MOL   C871 8567   6.158   7.343   6.125 -0.8522  0.0252 -0.6671
    9MOL   C872 8568   6.139   7.331   5.975  0.4323  0.1898  0.0849
    9MOL   C873 8569   6.007   7.299   5.910 -0.4261  0.1290 -0.4639
    9MOL   C874 8570   6.003   7.320   5.761 -0.2913  0.7224 -0.2835
    9MOL   C875 8571   5.882   7.260   5.689 -0.4017 -0.1807 -0.6400
    9MOL   C876 8572   5.906   7.278   5.536  0.1235 -0.2655 -0.1724
    9MOL   O877 8573   6.024   7.207   5.497  0.7278 -0.1929 -0.3857
    9MOL   C878 8574   6.037   7.171   5.369  0.2691 -0.3553 -0.6566
    9MOL   O879 8575   5.953   7.190   5.284 -0.5268 -0.0658  0.5291
    9MOL   C880 8576   6.163   7.092   5.343  0.2535 -1.1562  0.0297
    9MOL   C881 8577   6.195   7.054   5.198 -1.0586 -0.0698 -0.8140
    9MOL   C882 8578   6.110   6.951   5.127 -0.2532 -0.0347  0.9668
    9MOL   C883 8579   6.090   6.810   5.181  0.1315  0.5501 -0.4426
    9MOL   C884 8580   6.203   6.729   5.214  0.3084  0.3977  0.0118
    9MOL   O885 8581   6.279   6.765   5.306  0.2373  0.7381  0.0349
    9MOL   H886 8582   6.101   7.746   6.586 -3.6153  0.1263 -0.6702
    9MOL   H887 8583   6.175   7.588   6.608 -0.6334 -1.4498 -0.5570
    9MOL   H888 8584   6.237   7.680   6.377 -1.3565  1.9884 -2.9663
    9MOL   H889 8585   6.068   7.684   6.338 -1.4283 -0.9087 -0.6398
    9MOL   H890 8586   6.216   7.425   6.379 -0.0405 -0.4449 -0.1672
    9MOL   H891 8587   6.047   7.438   6.362  0.5230 -0.4249  1.0712
    9MOL   H892 8588   6.238   7.532   6.143  1.8996 -4.2036  0.1049
    9MOL   H893 8589   6.067   7.545   6.141  0.8766  1.2475  1.2233
    9MOL   H894 8590   6.079   7.285   6.175 -1.9405 -0.6861 -3.1213
    9MOL   H895 8591   6.250   7.296   6.158 -0.3087  2.1201  0.8659
    9MOL   H896 8592   6.197   7.243   5.946  0.7187  0.3342  0.2237
    9MOL   H897 8593   6.187   7.419   5.933  2.7722 -1.4660 -0.8109
    9MOL   H898 8594   5.944   7.380   5.947 -1.6950 -1.1538  0.2173
    9MOL   H899 8595   5.967   7.202   5.939  0.1093 -0.3261 -1.2245
    9MOL   H900 8596   6.092   7.267   5.728 -0.7998 -1.0577  1.1335
    9MOL   H901 8597   6.036   7.416   5.722 -0.3992  0.7411 -0.3285
    9MOL   H902 8598   5.862   7.155   5.712 -0.4741  0.0816  0.4884
    9MOL   H903 8599   5.796   7.306   5.736  0.6979  1.0209  0.2251
    9MOL   H904 8600   5.908   7.379   5.494  0.9510  1.0610  2.9099
    9MOL   H905 8601   5.814   7.239   5.492  1.4554 -1.9494 -1.5138
    9MOL   H906 8602   6.243   7.162   5.367 -0.6040 -0.6323  1.4586
    9MOL   H907 8603   6.169   7.008   5.413 -0.2228 -1.1265  0.1065
    9MOL   H908 8604   6.298   7.023   5.215 -0.6096  2.3226  1.1658
    9MOL   H909 8605   6.196   7.145   5.137  2.3841  0.5551  0.0500
    9MOL   H910 8606   6.142   6.950   5.022 -1.4449  1.6169  0.5681
    9MOL   H911 8607   6.014   7.001   5.120 -0.3177 -0.4520 -1.5208
    9MOL   H912 8608   6.023   6.753   5.116  0.2656  0.5696 -0.6006
    9MOL   H913 8609   6.036   6.821   5.275 -0.3815 -2.7934 -0.2762
    9MOL   O914 8610   6.225   6.629   5.126 -0.5787 -0.2045  0.3214
    9MOL   C915 8611   6.338   6.544   5.152 -0.0113 -0.0992 -0.1136
    9MOL   C916 8612   6.474   6.567   5.087 -0.7190  0.4239  0.8087
    9MOL   C917 8613   6.585   6.477   5.146 -0.5390  0.2063 -0.2404
    9MOL   C918 8614   6.722   6.514   5.079 -0.1622 -0.0511 -0.1254
    9MOL   C919 8615   6.833   6.427   5.143 -0.5834 -0.5845  0.2484
    9MOL   C920 8616   6.963   6.467   5.077 -0.3365 -0.1033  0.2111
    9MOL   C921 8617   7.077   6.369   5.107 -0.3695  0.7662  0.3398
    9MOL   C922 8618   7.091   6.348   5.257 -0.7635  0.7857  0.0732
    9MOL   C923 8619   7.210   6.264   5.290  0.4456 -0.0222 -0.5619
    9MOL   C924 8620   7.255   6.260   5.443  0.2546 -0.2377  0.1531
    9MOL   O925 8621   7.288   6.390   5.487 -0.3944  0.2513  0.0396
    9MOL   C926 8622   7.418   6.422   5.463  0.2475 -0.1898 -0.0224
    9MOL   O927 8623   7.507   6.351   5.415  0.1789  0.2315 -0.5050
    9MOL   C928 8624   7.439   6.565   5.500 -0.2424 -0.5542 -0.3249
    9MOL   C929 8625   7.441   6.586   5.649  0.0220 -0.0992 -0.4940
    9MOL   C930 8626   7.577   6.576   5.715 -0.1062  0.7782  0.0811
    9MOL   C931 8627   7.571   6.647   5.855 -0.6552  0.3702 -0.3688
    9MOL   C932 8628   7.494   6.581   5.960  0.4398  0.6371  0.4355
    9MOL   O933 8629   7.500   6.619   6.074  0.7949 -0.3316 -0.4086
    9MOL   H934 8630   6.364   6.538   5.257 -0.8753  0.0245  0.1177
    9MOL   H935 8631   6.306   6.444   5.122 -0.9073 -0.5126  2.1144
    9MOL   H936 8632   6.502   6.672   5.072 -2.3762  0.3232 -3.6926
    9MOL   H937 8633   6.474   6.549   4.979  0.2612  0.0367  0.8712
    9MOL   H938 8634   6.588   6.499   5.252 -3.5479 -1.0724  0.1468
    9MOL   H939 8635   6.560   6.372   5.150  0.4047 -0.1429 -2.5713
    9MOL   H940 8636   6.748   6.620   5.088  2.0624 -0.7171  1.5831
    9MOL   H941 8637   6.718   6.497   4.971  1.8169 -1.5423  0.0110
    9MOL   H942 8638   6.810   6.322   5.128  0.7025 -0.7628 -0.6420
    9MOL   H943 8639   6.840   6.453   5.248  0.4623 -0.2525  0.1034
    9MOL   H944 8640   6.993   6.568   5.107 -2.0894  1.1603 -2.1576
    9MOL   H945 8641   6.952   6.470   4.969 -1.5861  0.6660  0.3529
    9MOL   H946 8642   7.168   6.415   5.067 -0.3876  1.8348  1.4755
    9MOL   H947 8643   7.053   6.269   5.072  0.5463  0.8661 -0.5733
    9MOL   H948 8644   7.010   6.300   5.313  0.8033 -0.0580  1.6700
    9MOL   H949 8645   7.112   6.445   5.300  2.0400  0.1608  0.1824
    9MOL   H950 8646   7.187   6.162   5.261 -1.4467  0.4329 -0.7314
    9MOL   H951 8647   7.295   6.292   5.227  1.6655  0.1958  1.1669
    9MOL   H952 8648   7.340   6.193   5.452  0.4186 -0.2062 -1.0657
    9MOL   H953 8649   7.176   6.224   5.508  0.0051 -2.5962 -1.3721
    9MOL   H954 8650   7.512   6.619   5.439  1.4371 -0.4783  1.7051
    9MOL   H955 8651   7.356   6.627   5.468  1.8733  2.5775  0.0437
    9MOL   H956 8652   7.374   6.526   5.709  1.6382 -2.8210 -1.2977
    9MOL   H957 8653   7.395   6.684   5.664  0.9705  0.3136 -0.2347
    9MOL   H958 8654   7.661   6.625   5.667  0.0945  0.3038 -0.0558
    9MOL   H959 8655   7.605   6.471   5.720 -0.8173  0.5861  0.1601
    9MOL   H960 8656   7.541   6.752   5.852  0.8694  0.8437  0.1824
    9MOL   H961 8657   7.673   6.659   5.891 -0.8869  2.4981 -0.3492
    9MOL   H962 8658   7.448   6.490   5.920  0.1207  0.6859  0.6858
   10MOL     O1 8659   1.678   4.477   2.591  0.2222  0.2356 -0.4754
   10MOL     C2 8660   1.687   4.357   2.667  0.0191 -0.8103 -0.5013
   10MOL     C3 8661   1.693   4.231   2.582  0.0081 -0.2037  0.9763
   10MOL     C4 8662   1.725   4.111   2.660 -0.6254  0.3191 -0.4795
   10MOL     C5 8663   1.713   3.986   2.584 -0.0251 -0.5648 -0.1127
   10MOL     C6 8664   1.795   3.971   2.451  0.4482  0.1091 -0.1369
   10MOL     C7 8665   1.838   3.832   2.417 -0.3177 -0.1482  0.4421
   10MOL     C8 8666   1.872   3.812   2.266 -0.8474  0.1913  0.0063
   10MOL     C9 8667   1.983   3.901   2.219 -0.3161  0.2777  0.6933
   10MOL    C10 8668   2.033   3.872   2.078 -0.5151 -0.2920  0.0761
   10MOL    C11 8669   2.173   3.937   2.054 -0.0202 -0.1733  0.2394
   10MOL    O12 8670   2.212   3.920   1.919  0.0280 -0.3642 -0.0365
   10MOL    C13 8671   2.181   4.019   1.819 -0.6901 -0.6938 -0.4645
   10MOL    O14 8672   2.124   4.127   1.842  0.1207  0.0926  0.1691
   10MOL    C15 8673   2.237   3.988   1.674 -0.3320 -0.5687  0.5503
   10MOL    C16 8674   2.159   3.882   1.597 -0.3656 -0.1960  0.1158
   10MOL    C17 8675   2.204   3.738   1.630  0.4724  1.2055  0.3746
   10MOL    C18 8676   2.118   3.623   1.561 -0.5657  0.1232  0.0418
   10MOL    C19 8677   2.184   3.530   1.463 -0.3511  0.1795  0.5027
   10MOL    O20 8678   2.306   3.504   1.455 -0.1907 -0.2701  0.3604
   10MOL    H21 8679   1.752   4.359   2.755 -1.2808  1.5958  0.4557
   10MOL    H22 8680   1.593   4.354   2.722  1.1076 -1.6348  1.3859
   10MOL    H23 8681   1.777   4.250   2.515 -1.2690  1.6047 -0.1585
   10MOL    H24 8682   1.597   4.218   2.532  1.3665 -0.3288 -1.6932
   10MOL    H25 8683   1.821   4.107   2.711  0.5443 -1.3180 -2.6915
   10MOL    H26 8684   1.659   4.096   2.745 -2.7323 -0.5326 -2.1937
   10MOL    H27 8685   1.611   3.958   2.559 -0.3579  0.3043  0.2987
   10MOL    H28 8686   1.740   3.904   2.650 -1.0495 -1.2280 -0.5027
   10MOL    H29 8687   1.884   4.030   2.471  0.6737 -0.3188  0.1219
   10MOL    H30 8688   1.730   4.015   2.376  0.1736  1.6006  0.9387
   10MOL    H31 8689   1.751   3.767   2.429  0.8516 -1.6919  0.6677
   10MOL    H32 8690   1.922   3.804   2.481 -1.6555 -0.2620  2.1933
   10MOL    H33 8691   1.780   3.824   2.209 -1.2184 -1.8057  0.1200
   10MOL    H34 8692   1.888   3.705   2.251  0.4556  0.6499 -2.0217
   10MOL    H35 8693   2.077   3.908   2.275 -0.2283  0.6598  0.4977
   10MOL    H36 8694   1.947   4.003   2.219 -2.3112 -0.4165 -0.0309
   10MOL    H37 8695   2.050   3.767   2.053  0.2099  0.0376 -0.8547
   10MOL    H38 8696   1.952   3.905   2.013  0.7731  0.8913 -0.9508
   10MOL    H39 8697   2.237   3.868   2.109 -2.4058 -2.7475 -0.0975
   10MOL    H40 8698   2.174   4.042   2.083 -0.6717 -0.5169  1.5992
   10MOL    H41 8699   2.229   4.078   1.614  1.4712 -1.0142 -0.3996
   10MOL    H42 8700   2.344   3.967   1.684 -0.7999 -2.5073  1.9037
   10MOL    H43 8701   2.165   3.892   1.489 -0.0456 -1.9269 -0.0461
   10MOL    H44 8702   2.055   3.902   1.623 -0.0838  0.5961  0.6644
   10MOL    H45 8703   2.186   3.721   1.736 -1.9655  0.0550 -0.2007
   10MOL    H46 8704   2.308   3.730   1.599 -0.3514 -1.3894 -1.8941
   10MOL    H47 8705   2.035   3.673   1.512 -1.5487  1.5372  3.0211
   10MOL    H48 8706   2.077   3.556   1.636 -0.3826 -1.1448 -0.9898
   10MOL    H49 8707   1.597   4.522   2.611  1.3156  2.0232  0.0288
   10MOL    O50 8708   2.086   3.472   1.399 -0.0742  0.0086  0.3309
   10MOL    C51 8709   2.112   3.373   1.301  0.1754  0.1064  1.2565
   10MOL    C52 8710   2.020   3.255   1.317  0.2479 -0.2487 -0.0684
   10MOL    C53 8711   2.049   3.137   1.217 -0.0225 -0.5114 -0.1970
   10MOL    C54 8712   1.994   2.995   1.247 -0.8229 -0.3172  0.3042
   10MOL    C55 8713   2.021   2.950   1.391  0.6508  0.3402 -0.7775
   10MOL    C56 8714   1.972   2.798   1.411  0.3733 -0.3780  0.1219
   10MOL    C57 8715   1.928   2.767   1.558 -0.0579  0.0276  0.5433
   10MOL    C58 8716   1.879   2.624   1.574  0.2648 -0.2392  0.3373
   10MOL    C59 8717   1.836   2.599   1.720  0.4831  0.5032  0.2865
   10MOL    C60 8718   1.786   2.451   1.736  0.5360 -0.2918 -0.0433
   10MOL    O61 8719   1.650   2.446   1.703 -0.4088  0.0757 -0.1793
   10MOL    C62 8720   1.552   2.465   1.784  0.0741 -0.7614  0.2209
   10MOL    O63 8721   1.560   2.529   1.891  0.2939  0.2618  0.4368
   10MOL    C64 8722   1.419   2.425   1.731  0.9712  0.1239 -0.3845
   10MOL    C65 8723   1.288   2.431   1.822  0.1473 -0.1854  0.2568
   10MOL    C66 8724   1.268   2.310   1.912 -0.2632 -0.0422 -0.0891
   10MOL    C67 8725   1.235   2.183   1.834 -0.2347 -0.2327  0.1815
   10MOL    C68 8726   1.113   2.184   1.744  0.8180  0.2743  0.1670
   10MOL    O69 8727   0.998   2.145   1.779  0.5331 -0.0412  0.0046
   10MOL    H70 8728   2.097   3.431   1.211  3.6790 -0.0503  0.4939
   10MOL    H71 8729   2.212   3.329   1.303 -0.4714 -1.7125 -2.5437
   10MOL    H72 8730   1.912   3.273   1.316  0.4637  1.2145  1.0811
   10MOL    H73 8731   2.040   3.224   1.419  1.0278  0.3283 -0.0382
   10MOL    H74 8732   2.019   3.171   1.117  0.0476  0.0098 -0.0439
   10MOL    H75 8733   2.158   3.134   1.205  0.1210 -1.7161  1.2780
   10MOL    H76 8734   2.044   2.921   1.185 -1.4148 -2.0297  1.8065
   10MOL    H77 8735   1.889   2.990   1.215 -1.5019  2.4436  1.9268
   10MOL    H78 8736   1.973   3.011   1.467  0.4945  0.2932 -0.8376
   10MOL    H79 8737   2.126   2.944   1.419 -0.2529  0.3346  2.9335
   10MOL    H80 8738   2.054   2.734   1.378  1.3872  1.0763 -0.2427
   10MOL    H81 8739   1.896   2.770   1.339 -0.9927 -4.2335  2.9606
   10MOL    H82 8740   1.847   2.839   1.574 -2.1007 -2.0221 -0.2445
   10MOL    H83 8741   1.999   2.793   1.637 -1.7240  0.0524  2.0891
   10MOL    H84 8742   1.940   2.541   1.541 -0.1601 -0.2787 -0.3666
   10MOL    H85 8743   1.797   2.599   1.506  0.6568  0.8090 -0.5513
   10MOL    H86 8744   1.921   2.612   1.787 -0.8360 -1.5491  2.4422
   10MOL    H87 8745   1.756   2.662   1.758 -1.7542 -1.8615 -0.3831
   10MOL    H88 8746   1.794   2.418   1.839  0.6242 -0.0929  0.0140
   10MOL    H89 8747   1.840   2.377   1.676 -0.2157 -0.9475  0.0870
   10MOL    H90 8748   1.386   2.499   1.658  1.9325  1.8949  0.9635
   10MOL    H91 8749   1.419   2.327   1.683 -1.2088  0.1041 -0.4141
   10MOL    H92 8750   1.200   2.449   1.760  0.9148 -1.5066 -1.2432
   10MOL    H93 8751   1.296   2.507   1.899 -4.0841  0.9534 -0.2853
   10MOL    H94 8752   1.183   2.338   1.976 -0.1649 -2.0622  0.9528
   10MOL    H95 8753   1.355   2.301   1.976  0.1470  2.1454 -0.3017
   10MOL    H96 8754   1.210   2.112   1.913  0.0607  0.3805  0.8415
   10MOL    H97 8755   1.325   2.146   1.784 -1.7238 -4.4830  0.4577
   10MOL    O98 8756   1.148   2.239   1.618 -0.7520 -0.7828 -0.1260
   10MOL    C99 8757   1.041   2.259   1.530  0.2187  0.6912  0.0497
   10MOL   C100 8758   1.101   2.370   1.438 -0.3535 -0.4758  0.1175
   10MOL   C101 8759   1.001   2.428   1.338 -0.2333  0.2773  0.2759
   10MOL   C102 8760   1.064   2.522   1.239 -0.0241 -0.0247  0.2307
   10MOL   C103 8761   0.958   2.596   1.142 -0.8031 -0.1410  0.0444
   10MOL   C104 8762   0.855   2.513   1.066  0.4428 -0.0700  0.5581
   10MOL   C105 8763   0.913   2.437   0.948  0.0254  0.0015 -0.2697
   10MOL   C106 8764   0.815   2.351   0.865  0.4992  0.0768 -0.4393
   10MOL   C107 8765   0.892   2.271   0.761  0.3660  0.1105 -0.1995
   10MOL   C108 8766   0.801   2.154   0.717 -0.5292 -0.0919 -0.2540
   10MOL   O109 8767   0.691   2.189   0.646 -0.5088  0.4041  0.0686
   10MOL   C110 8768   0.569   2.139   0.673 -0.7415  0.0827  0.1233
   10MOL   O111 8769   0.544   2.038   0.737 -0.4799 -0.0960  0.2238
   10MOL   C112 8770   0.455   2.221   0.610 -0.4462 -0.1245 -0.0793
   10MOL   C113 8771   0.418   2.335   0.707  0.6956  0.0596  0.1627
   10MOL   C114 8772   0.360   2.296   0.846 -0.1071 -0.2891 -0.3006
   10MOL   C115 8773   0.304   2.411   0.935 -0.3785 -0.1731 -0.0181
   10MOL   C116 8774   0.408   2.498   0.997  0.6471  0.4921  0.7449
   10MOL   O117 8775   0.519   2.459   0.981 -0.1346  0.2840  0.7314
   10MOL   H118 8776   1.024   2.164   1.480  1.2064 -0.4940  1.8994
   10MOL   H119 8777   0.952   2.299   1.579  0.2495 -0.7810  1.3205
   10MOL   H120 8778   1.181   2.321   1.382  0.6603  0.0626  1.0825
   10MOL   H121 8779   1.137   2.456   1.492  0.2344 -0.4937 -0.2421
   10MOL   H122 8780   0.936   2.349   1.299  1.3157 -0.3692 -1.0480
   10MOL   H123 8781   0.922   2.481   1.391  0.6493  2.6051 -0.6638
   10MOL   H124 8782   1.133   2.465   1.178 -0.4725 -2.2799  1.7785
   10MOL   H125 8783   1.133   2.591   1.288  0.9801 -1.6617  1.1621
   10MOL   H126 8784   1.005   2.654   1.062 -0.9365 -0.5186 -0.3122
   10MOL   H127 8785   0.908   2.666   1.209 -0.5916  1.8389 -1.7995
   10MOL   H128 8786   0.773   2.573   1.027 -0.5170 -0.8118  1.4000
   10MOL   H129 8787   0.789   2.451   1.126  1.7705  0.7828  2.9578
   10MOL   H130 8788   0.980   2.366   0.996  0.9787  0.6903 -0.5572
   10MOL   H131 8789   0.981   2.501   0.891  1.0648 -0.5328  0.3500
   10MOL   H132 8790   0.750   2.419   0.810 -0.5568 -1.6361 -1.3601
   10MOL   H133 8791   0.760   2.285   0.932  1.8409  1.1805  1.7756
   10MOL   H134 8792   0.925   2.342   0.684  4.2592 -2.0454 -0.6447
   10MOL   H135 8793   0.980   2.229   0.809 -1.6625 -2.1172  1.6680
   10MOL   H136 8794   0.766   2.093   0.800 -0.1152  0.5592  0.4064
   10MOL   H137 8795   0.859   2.085   0.656 -2.6675  0.2496 -2.7211
   10MOL   H138 8796   0.485   2.250   0.510  1.4444 -0.0687  0.4972
   10MOL   H139 8797   0.366   2.158   0.599 -0.0677 -1.0977  2.1318
   10MOL   H140 8798   0.344   2.398   0.658  0.1358  0.4104  1.4377
   10MOL   H141 8799   0.507   2.395   0.725  0.7213  0.2095 -0.4548
   10MOL   H142 8800   0.436   2.235   0.894 -1.2295 -0.8348  0.8233
   10MOL   H143 8801   0.274   2.232   0.823 -1.1168  0.3104  1.7280
   10MOL   H144 8802   0.261   2.357   1.020 -0.6657  1.0012  0.5976
   10MOL   H145 8803   0.231   2.467   0.876 -0.1195 -0.2719 -0.4354
   10MOL   O146 8804   0.369   2.603   1.064  0.0832 -0.4414 -0.1226
   10MOL   C147 8805   0.457   2.662   1.152 -0.1374 -0.0341  0.2553
   10MOL   C148 8806   0.443   2.602   1.295 -0.5271  0.3208 -0.2512
   10MOL   C149 8807   0.529   2.470   1.307 -0.5294  0.1819  0.0554
   10MOL   C150 8808   0.517   2.400   1.438  0.1816  0.9969  0.2496
   10MOL   C151 8809   0.616   2.276   1.450  0.0679 -0.3175  0.2263
   10MOL   C152 8810   0.582   2.197   1.580 -0.5346  0.2008  0.0524
   10MOL   C153 8811   0.682   2.091   1.629  0.5587  0.1994 -0.1116
   10MOL   C154 8812   0.644   2.034   1.769  0.2669  0.0948 -0.8644
   10MOL   C155 8813   0.730   1.912   1.807  0.3171  0.3118 -0.0824
   10MOL   C156 8814   0.729   1.865   1.952  0.7822 -0.0932  0.3870
   10MOL   O157 8815   0.766   1.968   2.048 -0.3323 -0.0927 -0.7490
   10MOL   C158 8816   0.787   1.932   2.175 -0.4100 -0.3080  0.6093
   10MOL   O159 8817   0.806   1.810   2.202 -0.1029 -0.7666  0.2114
   10MOL   C160 8818   0.784   2.042   2.272 -0.3134 -0.6400  0.5774
   10MOL   C161 8819   0.919   2.113   2.257  0.0455 -0.2478 -0.0676
   10MOL   C162 8820   1.045   2.032   2.266  0.3742  0.0820 -0.1902
   10MOL   C163 8821   1.163   2.132   2.273 -0.3388 -0.1689 -0.0305
   10MOL   C164 8822   1.295   2.053   2.254 -0.0850 -0.3454  0.4405
   10MOL   O165 8823   1.329   1.957   2.323 -0.4190 -0.4080 -0.0244
   10MOL   H166 8824   0.563   2.666   1.125 -0.6022  1.3398 -1.4328
   10MOL   H167 8825   0.424   2.766   1.150 -1.2498 -0.3999 -1.4734
   10MOL   H168 8826   0.338   2.583   1.320 -0.1960 -1.8522 -0.3852
   10MOL   H169 8827   0.465   2.683   1.364  0.1251 -1.8795  2.1858
   10MOL   H170 8828   0.505   2.398   1.229 -1.8662  0.5028  0.1455
   10MOL   H171 8829   0.631   2.496   1.279 -0.0237  2.8539  3.9670
   10MOL   H172 8830   0.417   2.358   1.445  0.7560 -0.3490  0.5128
   10MOL   H173 8831   0.513   2.471   1.521  3.1549  0.9993  0.4283
   10MOL   H174 8832   0.712   2.327   1.454 -0.2152  0.3899 -1.5037
   10MOL   H175 8833   0.617   2.207   1.365  1.4444  0.6497 -0.5708
   10MOL   H176 8834   0.491   2.140   1.561  1.1107 -2.2251 -0.7603
   10MOL   H177 8835   0.568   2.273   1.657  0.0742 -0.8518  1.2257
   10MOL   H178 8836   0.784   2.130   1.628  0.5412  0.2413 -0.2712
   10MOL   H179 8837   0.681   2.008   1.559 -1.7267 -0.8658  1.1340
   10MOL   H180 8838   0.538   2.014   1.780  0.5648 -1.6844 -1.1791
   10MOL   H181 8839   0.672   2.106   1.846  1.2002  1.4075 -2.3948
   10MOL   H182 8840   0.710   1.822   1.748  1.7702  1.0073 -1.6716
   10MOL   H183 8841   0.830   1.949   1.786  1.1022 -1.1968  0.8903
   10MOL   H184 8842   0.803   1.786   1.959 -0.1620 -1.0541 -0.2159
   10MOL   H185 8843   0.629   1.822   1.964  1.3086 -1.4254  0.0201
   10MOL   H186 8844   0.718   2.128   2.259 -0.6193 -0.8093  0.9807
   10MOL   H187 8845   0.773   1.997   2.371 -2.2896 -2.5078 -0.4489
   10MOL   H188 8846   0.919   2.180   2.342  0.8149  0.9344 -0.9840
   10MOL   H189 8847   0.917   2.172   2.165  0.0640 -1.8447 -1.1196
   10MOL   H190 8848   1.049   1.965   2.180  1.4904  1.5669 -1.3196
   10MOL   H191 8849   1.037   1.975   2.358  1.1298  2.2009  1.2336
   10MOL   H192 8850   1.165   2.189   2.366  1.6198  2.4413 -1.6223
   10MOL   H193 8851   1.160   2.214   2.201  1.4539  1.1861  1.4103
   10MOL   O194 8852   1.358   2.094   2.142 -0.8926 -0.3845  0.0340
   10MOL   C195 8853   1.479   2.035   2.116  0.2933  0.6271  0.5617
   10MOL   C196 8854   1.586   2.121   2.182 -0.4037  0.6372  0.1488
   10MOL   C197 8855   1.600   2.268   2.136  0.1265 -1.1484  0.2805
   10MOL   C198 8856   1.697   2.346   2.220 -0.1944 -0.0216 -0.1621
   10MOL   C199 8857   1.675   2.499   2.210 -0.9612 -0.2920 -0.5166
   10MOL   C200 8858   1.772   2.561   2.314  0.1074 -0.2992 -0.1632
   10MOL   C201 8859   1.780   2.715   2.333 -0.0166  0.3885  0.0569
   10MOL   C202 8860   1.860   2.741   2.450  0.2810 -0.1432  0.3881
   10MOL   C203 8861   1.893   2.887   2.471 -0.5044  0.0379  0.3819
   10MOL   C204 8862   2.030   2.915   2.542  0.1381 -0.1338 -0.4653
   10MOL   O205 8863   2.037   2.874   2.680 -0.4157 -0.7205  0.3335
   10MOL   C206 8864   1.989   2.957   2.771 -0.3706 -0.3661  0.0020
   10MOL   O207 8865   1.938   3.076   2.764  0.0420 -0.0863 -0.4898
   10MOL   C208 8866   2.016   2.905   2.915 -0.1195 -0.2025  0.3835
   10MOL   C209 8867   2.161   2.918   2.965  0.4959  0.2947 -0.3180
   10MOL   C210 8868   2.227   3.055   2.962  0.6926 -0.0578  0.3022
   10MOL   C211 8869   2.143   3.162   3.034 -0.0676 -0.4172 -0.0346
   10MOL   C212 8870   2.217   3.299   3.043  0.0602 -0.4696 -0.2890
   10MOL   O213 8871   2.311   3.330   2.964  0.0281  0.3404  1.0390
   10MOL   H214 8872   1.492   1.936   2.159 -0.8136 -0.0183 -0.5644
   10MOL   H215 8873   1.482   2.024   2.008 -0.6472 -0.0391  0.5973
   10MOL   H216 8874   1.687   2.082   2.167 -1.0033 -1.1444  0.6129
   10MOL   H217 8875   1.575   2.107   2.289 -0.7255 -2.3449 -0.2340
   10MOL   H218 8876   1.624   2.273   2.029 -1.2910  1.0145  0.0357
   10MOL   H219 8877   1.502   2.314   2.148  0.6527 -0.0103  0.2560
   10MOL   H220 8878   1.797   2.309   2.195 -1.2326 -2.7432 -0.5651
   10MOL   H221 8879   1.677   2.318   2.323 -1.0861  2.1777  0.2719
   10MOL   H222 8880   1.576   2.524   2.249  0.6281  2.1990  2.1211
   10MOL   H223 8881   1.678   2.546   2.112 -2.8954  1.0183  0.0183
   10MOL   H224 8882   1.872   2.546   2.272  0.8596 -0.3676  1.6046
   10MOL   H225 8883   1.759   2.519   2.414 -1.4289  1.0467  0.2152
   10MOL   H226 8884   1.683   2.764   2.338  0.7273  1.6953  2.6929
   10MOL   H227 8885   1.834   2.755   2.247 -0.4997  1.3434  0.1849
   10MOL   H228 8886   1.950   2.679   2.445  0.4389  0.1459 -0.4191
   10MOL   H229 8887   1.803   2.699   2.534  1.6716 -0.0744  1.3914
   10MOL   H230 8888   1.902   2.931   2.372 -0.7841 -0.3796  0.1708
   10MOL   H231 8889   1.807   2.930   2.523 -0.4474  0.0588  0.4603
   10MOL   H232 8890   2.044   3.023   2.544 -0.1472 -0.1030  1.5795
   10MOL   H233 8891   2.110   2.881   2.477  1.2731 -1.3215  1.5088
   10MOL   H234 8892   1.951   2.942   2.994  0.2459 -0.8859  1.0187
   10MOL   H235 8893   1.998   2.798   2.903 -3.2558  0.3315  0.0640
   10MOL   H236 8894   2.219   2.859   2.894 -0.2139  1.5372 -1.9673
   10MOL   H237 8895   2.172   2.873   3.063  0.3158 -1.6971 -1.1912
   10MOL   H238 8896   2.256   3.085   2.862 -3.6741 -0.1973 -1.1136
   10MOL   H239 8897   2.324   3.059   3.012  0.7007 -0.0273  0.2835
   10MOL   H240 8898   2.112   3.126   3.132 -1.3357 -0.7617 -0.5425
   10MOL   H241 8899   2.060   3.175   2.964  0.7423 -0.2964 -0.9847
   10MOL   O242 8900   2.166   3.374   3.139  0.1050 -0.5139  1.1345
   10MOL   C243 8901   2.225   3.503   3.162  0.0634 -0.3194  0.7543
   10MOL   C244 8902   2.323   3.507   3.280 -1.1031  0.0609  0.4954
   10MOL   C245 8903   2.462   3.458   3.242  0.3233  0.0805  0.0798
   10MOL   C246 8904   2.563   3.464   3.361 -0.0500  0.2673 -0.5494
   10MOL   C247 8905   2.702   3.400   3.308 -0.6501  0.0857 -0.5296
   10MOL   C248 8906   2.821   3.401   3.408  0.4542  0.5775  0.2380
   10MOL   C249 8907   2.792   3.350   3.545  0.1636 -0.0505  0.2853
   10MOL   C250 8908   2.800   3.198   3.552 -0.1861 -0.2830  0.0385
   10MOL   C251 8909   2.799   3.158   3.700 -0.1787  0.3316 -0.7987
   10MOL   C252 8910   2.764   3.010   3.711 -0.4389  0.0003  0.1997
   10MOL   O253 8911   2.864   2.926   3.652  0.2728  0.4075  0.1627
   10MOL   C254 8912   2.979   2.894   3.722  0.0436 -0.2592 -0.3323
   10MOL   O255 8913   3.013   2.944   3.830  0.0088  0.2938  0.8837
   10MOL   C256 8914   3.083   2.807   3.641 -0.1178 -0.2654 -0.3738
   10MOL   C257 8915   3.104   2.859   3.506 -0.3618 -1.1949 -0.3442
   10MOL   C258 8916   3.201   2.777   3.430 -0.4918  0.7582 -0.4035
   10MOL   C259 8917   3.249   2.841   3.296 -0.2306 -0.3683  0.2707
   10MOL   C260 8918   3.145   2.829   3.190  0.2330 -0.0454  0.4214
   10MOL   O261 8919   3.140   2.730   3.120 -0.3659  0.0244 -0.1238
   10MOL   H262 8920   2.272   3.544   3.073 -2.6511  0.9977 -0.1305
   10MOL   H263 8921   2.146   3.571   3.193 -0.6767 -0.7027 -0.2606
   10MOL   H264 8922   2.292   3.451   3.368  1.2139 -2.5144 -0.2797
   10MOL   H265 8923   2.329   3.611   3.312 -0.0558  0.2393 -0.2621
   10MOL   H266 8924   2.457   3.356   3.206 -1.8406  1.0464 -2.5088
   10MOL   H267 8925   2.504   3.521   3.163 -0.2145 -2.0828 -1.9702
   10MOL   H268 8926   2.541   3.405   3.451 -0.0598 -1.1389 -1.4610
   10MOL   H269 8927   2.567   3.561   3.410 -0.5618 -1.1073  2.3306
   10MOL   H270 8928   2.723   3.447   3.212  0.7705  1.8032  0.5882
   10MOL   H271 8929   2.679   3.302   3.265  1.6636 -1.9146  2.5927
   10MOL   H272 8930   2.861   3.502   3.403  0.4179  0.5705 -0.2385
   10MOL   H273 8931   2.904   3.351   3.358  1.4397  0.3323  2.0594
   10MOL   H274 8932   2.692   3.375   3.580  0.1695  0.3844  0.0025
   10MOL   H275 8933   2.866   3.404   3.605 -1.4243  2.6657 -0.1188
   10MOL   H276 8934   2.897   3.168   3.513 -0.4060  0.3599 -1.0196
   10MOL   H277 8935   2.722   3.153   3.490 -0.3608  1.5384 -1.0989
   10MOL   H278 8936   2.898   3.172   3.745 -1.9465 -0.8870  3.6716
   10MOL   H279 8937   2.728   3.214   3.759 -1.3439 -1.3276 -0.5931
   10MOL   H280 8938   2.672   2.985   3.659 -0.4260  0.2579  0.0570
   10MOL   H281 8939   2.750   2.983   3.816 -0.7926 -3.3558 -0.6379
   10MOL   H282 8940   3.178   2.821   3.691 -1.4216 -1.2112  2.4575
   10MOL   H283 8941   3.068   2.699   3.636  2.8931 -0.7859  1.0279
   10MOL   H284 8942   3.138   2.963   3.508 -1.5924 -0.7784 -0.7279
   10MOL   H285 8943   3.008   2.870   3.456  0.1535  0.5890 -0.9808
   10MOL   H286 8944   3.161   2.677   3.412 -2.5004  0.6539  4.0928
   10MOL   H287 8945   3.280   2.751   3.502 -0.5672  0.2392 -0.5010
   10MOL   H288 8946   3.341   2.791   3.265  0.9081  0.4663  2.1579
   10MOL   H289 8947   3.277   2.946   3.306  1.0565 -0.6805  0.1074
   10MOL   O290 8948   3.065   2.946   3.175  0.3291  0.5665 -0.2464
   10MOL   C291 8949   2.957   2.942   3.087  0.1844  0.2115  0.0973
   10MOL   C292 8950   2.887   3.080   3.070 -0.7040  0.0425  0.0691
   10MOL   C293 8951   2.736   3.088   3.042  0.2600  0.2824 -0.1117
   10MOL   C294 8952   2.695   2.989   2.927  0.0300  0.0047  0.4317
   10MOL   C295 8953   2.548   3.004   2.899 -0.1524 -0.5880 -0.3050
   10MOL   C296 8954   2.512   2.965   2.754 -0.7510  0.1824 -0.1703
   10MOL   C297 8955   2.580   2.837   2.703 -0.2697 -0.0851 -0.0862
   10MOL   C298 8956   2.512   2.798   2.569 -0.2712  0.1760 -0.1662
   10MOL   C299 8957   2.591   2.699   2.491 -0.2348  0.4952  0.8457
   10MOL   C300 8958   2.504   2.636   2.382  0.7276 -0.1230  0.5179
   10MOL   O301 8959   2.466   2.718   2.263  0.0373  0.0842  0.6416
   10MOL   C302 8960   2.573   2.744   2.180  0.1762 -0.1527  0.2414
   10MOL   O303 8961   2.683   2.699   2.178 -0.4266 -0.0655 -0.3251
   10MOL   C304 8962   2.532   2.849   2.066  0.5048  0.0101  0.1191
   10MOL   C305 8963   2.468   2.975   2.127  0.0313  0.1316 -0.8257
   10MOL   C306 8964   2.580   3.055   2.210 -0.1329  0.4803 -0.6634
   10MOL   C307 8965   2.525   3.178   2.291 -0.4716  1.0077  0.6489
   10MOL   C308 8966   2.421   3.161   2.402 -1.6164  0.4041  0.2030
   10MOL   O309 8967   2.350   3.065   2.409 -0.3306  0.0303  0.3268
   10MOL   H310 8968   2.982   2.914   2.984 -0.5790 -0.1479  0.0071
   10MOL   H311 8969   2.885   2.862   3.105  0.3065  0.5831  2.2968
   10MOL   H312 8970   2.947   3.133   2.995  0.5959  0.9944  1.7643
   10MOL   H313 8971   2.898   3.137   3.162 -1.7793  1.1563 -0.4770
   10MOL   H314 8972   2.676   3.058   3.128  1.8702 -0.6297  0.7266
   10MOL   H315 8973   2.712   3.191   3.018  3.3300  0.7099 -1.6191
   10MOL   H316 8974   2.713   2.883   2.946 -0.6767  0.0896  1.6408
   10MOL   H317 8975   2.752   3.005   2.836  2.6856 -1.7681  1.7027
   10MOL   H318 8976   2.522   3.109   2.911 -1.6246 -0.7401 -2.0038
   10MOL   H319 8977   2.485   2.952   2.972 -1.2065  0.6262 -0.3428
   10MOL   H320 8978   2.530   3.051   2.690  0.3230  1.0384  1.2362
   10MOL   H321 8979   2.404   2.957   2.748 -0.8449  2.2615 -1.6316
   10MOL   H322 8980   2.573   2.766   2.786  1.5878 -0.1285  0.0664
   10MOL   H323 8981   2.685   2.851   2.676 -0.3174 -0.2702 -0.3698
   10MOL   H324 8982   2.508   2.886   2.505 -0.0753 -0.1586 -0.6392
   10MOL   H325 8983   2.411   2.763   2.590 -0.1333  0.3442  0.8252
   10MOL   H326 8984   2.674   2.750   2.443  0.2249  1.0967  2.2643
   10MOL   H327 8985   2.619   2.618   2.559 -0.3021 -0.7388 -0.5837
   10MOL   H328 8986   2.413   2.599   2.429  0.7898 -1.8161 -0.6508
   10MOL   H329 8987   2.544   2.539   2.350  2.0414  0.5863 -0.0179
   10MOL   H330 8988   2.610   2.870   1.993  2.2495  2.1245  2.5111
   10MOL   H331 8989   2.460   2.787   2.013  1.8483 -0.2538 -1.4241
   10MOL   H332 8990   2.384   2.950   2.193  1.3594 -0.5603  0.6401
   10MOL   H333 8991   2.441   3.027   2.035  0.1894  0.3589 -0.7440
   10MOL   H334 8992   2.658   3.091   2.143  0.6587  0.7633  0.4161
   10MOL   H335 8993   2.626   2.988   2.282 -0.1534  0.8440 -0.3144
   10MOL   H336 8994   2.485   3.250   2.220 -0.3274  0.0195 -0.4383
   10MOL   H337 8995   2.612   3.219   2.344 -0.7238 -0.2431  2.0734
   10MOL   O338 8996   2.404   3.276   2.473 -0.3602 -0.3068  0.4985
   10MOL   C339 8997   2.298   3.287   2.558  0.0258 -0.8353 -0.6125
   10MOL   C340 8998   2.258   3.432   2.578 -0.1530 -0.8346  0.3761
   10MOL   C341 8999   2.132   3.440   2.667 -0.0221  0.1087  0.0699
   10MOL   C342 9000   2.064   3.578   2.683  0.7459 -0.0745  0.2014
   10MOL   C343 9001   2.132   3.658   2.804 -0.6205  0.0144  0.3340
   10MOL   C344 9002   2.062   3.791   2.840  0.4615 -0.0477 -0.2431
   10MOL   C345 9003   2.119   3.841   2.979 -0.1239  0.1777 -0.5386
   10MOL   C346 9004   2.069   3.988   3.014 -0.5286  0.9510  0.9871
   10MOL   C347 9005   2.118   4.029   3.148  0.1074 -0.1303 -0.8397
   10MOL   C348 9006   2.062   4.158   3.208  0.0586  0.0043 -0.7513
   10MOL   O349 9007   2.142   4.218   3.307 -0.1834  0.3877  0.1151
   10MOL   C350 9008   2.156   4.166   3.432 -0.5225  0.1023  0.5472
   10MOL   O351 9009   2.110   4.059   3.473  0.4911 -0.6256  0.4531
   10MOL   C352 9010   2.262   4.234   3.515 -0.4302 -0.3824  1.3581
   10MOL   C353 9011   2.406   4.256   3.456  0.1007  0.4844  0.1687
   10MOL   C354 9012   2.420   4.406   3.415 -0.1536 -0.5172 -0.1211
   10MOL   C355 9013   2.443   4.502   3.542  0.6590  0.2295 -0.2005
   10MOL   C356 9014   2.448   4.650   3.512 -0.1097 -0.2194  0.4513
   10MOL   O357 9015   2.550   4.713   3.527 -0.1060  0.2020  0.0703
   10MOL   H358 9016   2.216   3.219   2.534 -2.1149  0.9987  1.2473
   10MOL   H359 9017   2.329   3.251   2.655 -0.6536  0.4837  0.1167
   10MOL   H360 9018   2.231   3.483   2.486  0.3088  2.8675  2.1916
   10MOL   H361 9019   2.336   3.493   2.624 -0.7010  0.0698  0.1223
   10MOL   H362 9020   2.057   3.374   2.624 -1.7633  0.9501  1.7524
   10MOL   H363 9021   2.142   3.397   2.766 -1.1796  2.8895  1.4613
   10MOL   H364 9022   1.957   3.575   2.703  0.7923  0.2291  0.4937
   10MOL   H365 9023   2.083   3.633   2.591  0.2734 -1.1763 -0.5578
   10MOL   H366 9024   2.233   3.677   2.768 -0.9388  3.5894  1.0483
   10MOL   H367 9025   2.139   3.591   2.889 -1.6998 -1.1285 -0.4641
   10MOL   H368 9026   1.958   3.773   2.865  1.1265  1.2604  3.8347
   10MOL   H369 9027   2.074   3.857   2.754 -0.0558  0.0485 -0.2379
   10MOL   H370 9028   2.227   3.844   2.967 -0.0995 -2.2226 -1.1969
   10MOL   H371 9029   2.097   3.763   3.052  0.1200  0.1313 -0.5157
   10MOL   H372 9030   1.960   3.987   3.015 -0.6118 -1.9870 -2.0378
   10MOL   H373 9031   2.108   4.058   2.941 -1.8823 -1.3591 -2.0383
   10MOL   H374 9032   2.112   3.940   3.212 -3.0649 -0.5044 -1.5728
   10MOL   H375 9033   2.226   4.033   3.130  0.1433 -3.0114 -1.5587
   10MOL   H376 9034   1.966   4.128   3.253  1.3580 -1.0087  1.4520
   10MOL   H377 9035   2.029   4.236   3.140 -0.2549 -0.4044 -1.0720
   10MOL   H378 9036   2.211   4.326   3.544 -0.9875  0.1708 -1.2495
   10MOL   H379 9037   2.264   4.173   3.606 -3.3443 -0.9744  1.0529
   10MOL   H380 9038   2.409   4.199   3.363 -1.3220  0.0249  0.3984
   10MOL   H381 9039   2.486   4.218   3.519 -0.8534  0.0446  1.1336
   10MOL   H382 9040   2.331   4.431   3.358  0.1033 -1.1494 -0.8126
   10MOL   H383 9041   2.514   4.419   3.361  0.0364  3.0130  0.9537
   10MOL   H384 9042   2.523   4.466   3.607  1.9137  1.4998 -0.9964
   10MOL   H385 9043   2.358   4.503   3.611  1.3904  3.8838  0.7495
   10MOL   O386 9044   2.337   4.697   3.472  0.8557 -0.3430 -0.3810
   10MOL   C387 9045   2.318   4.831   3.442 -0.4750 -0.2396  0.5264
   10MOL   C388 9046   2.256   4.899   3.564 -0.3508 -0.3200 -0.2284
   10MOL   C389 9047   2.244   5.050   3.541  0.6921 -0.8296  0.0585
   10MOL   C390 9048   2.208   5.121   3.677  0.1481  0.5825  0.5732
   10MOL   C391 9049   2.224   5.271   3.654 -0.0334 -0.5095 -0.5126
   10MOL   C392 9050   2.374   5.321   3.647  0.0241 -0.5671  0.2597
   10MOL   C393 9051   2.379   5.481   3.627 -0.1174  0.3110  0.2287
   10MOL   C394 9052   2.521   5.525   3.574  0.0696 -0.0149  0.1573
   10MOL   C395 9053   2.545   5.681   3.582 -0.3961 -0.4424 -0.4296
   10MOL   C396 9054   2.688   5.716   3.531  0.2840 -0.8165 -0.1090
   10MOL   O397 9055   2.784   5.656   3.615 -0.1842 -0.7487  0.0303
   10MOL   C398 9056   2.830   5.718   3.714 -0.2514  0.9660 -0.6835
   10MOL   O399 9057   2.787   5.818   3.759  0.2094  0.3105 -0.1802
   10MOL   C400 9058   2.947   5.648   3.778  0.2823 -0.4874 -0.0161
   10MOL   C401 9059   2.931   5.594   3.918 -0.5243  0.5480 -0.6179
   10MOL   C402 9060   2.913   5.702   4.021 -0.3042  0.1325 -0.0984
   10MOL   C403 9061   2.894   5.644   4.163  0.0059  0.5807 -0.1317
   10MOL   C404 9062   2.767   5.561   4.178  0.8157 -0.5374 -0.6264
   10MOL   O405 9063   2.767   5.463   4.255  0.0994  0.2362  0.0942
   10MOL   H406 9064   2.412   4.871   3.405 -1.3467  1.7061  0.3305
   10MOL   H407 9065   2.250   4.838   3.358 -0.9874 -3.7701  0.5493
   10MOL   H408 9066   2.319   4.879   3.651  0.2714 -0.9240 -0.8005
   10MOL   H409 9067   2.157   4.865   3.594  0.4830 -1.1933  1.6488
   10MOL   H410 9068   2.337   5.095   3.506  0.4452  0.6277  1.2584
   10MOL   H411 9069   2.169   5.074   3.466  2.0386  1.0269 -0.7324
   10MOL   H412 9070   2.285   5.092   3.750 -0.6344  0.8381  1.5034
   10MOL   H413 9071   2.108   5.102   3.715  0.8261 -2.2150  1.1312
   10MOL   H414 9072   2.173   5.323   3.735  1.6857  0.7652 -0.2125
   10MOL   H415 9073   2.183   5.303   3.558 -0.2335  4.1757  1.0358
   10MOL   H416 9074   2.418   5.263   3.566 -0.9534  1.3294 -1.6735
   10MOL   H417 9075   2.426   5.291   3.738 -0.9683  1.6492  1.5934
   10MOL   H418 9076   2.359   5.522   3.727  2.7326 -0.6444  1.2464
   10MOL   H419 9077   2.305   5.515   3.555 -1.0719 -2.0011  0.0912
   10MOL   H420 9078   2.519   5.494   3.470  2.1133  0.1852  0.0276
   10MOL   H421 9079   2.603   5.467   3.617  1.0664  0.2033 -1.3997
   10MOL   H422 9080   2.466   5.733   3.529 -0.2796 -1.9181 -2.0940
   10MOL   H423 9081   2.539   5.720   3.683  1.7774  0.5361 -0.6281
   10MOL   H424 9082   2.699   5.824   3.523 -1.6450 -0.6200 -0.2015
   10MOL   H425 9083   2.709   5.673   3.433  1.3170 -2.3006  0.7438
   10MOL   H426 9084   2.968   5.558   3.720 -4.4075 -2.2205  0.7722
   10MOL   H427 9085   3.035   5.711   3.767 -0.0532  0.1207  0.6925
   10MOL   H428 9086   3.017   5.529   3.934 -1.0964  0.4046  2.0870
   10MOL   H429 9087   2.852   5.520   3.925 -1.3814  1.6772  2.4259
   10MOL   H430 9088   2.823   5.756   3.990 -0.0227 -0.3036 -1.7069
   10MOL   H431 9089   2.995   5.774   4.025 -1.3737  1.5354 -2.0865
   10MOL   H432 9090   2.893   5.731   4.229  3.5139 -1.7328  3.2132
   10MOL   H433 9091   2.981   5.583   4.189  0.5896  1.5951  0.3557
   10MOL   O434 9092   2.657   5.612   4.110  0.3673  0.4457 -0.2438
   10MOL   C435 9093   2.535   5.540   4.098 -0.0708 -0.4595  0.0147
   10MOL   C436 9094   2.540   5.470   3.965 -0.3103  0.0844 -0.2902
   10MOL   C437 9095   2.597   5.323   3.967  0.6627  0.8209  0.3112
   10MOL   C438 9096   2.532   5.226   4.066 -1.4273  0.6772  0.2753
   10MOL   C439 9097   2.402   5.164   4.015  0.9351  0.1393  0.5795
   10MOL   C440 9098   2.343   5.066   4.116 -0.1361 -0.1361 -0.2021
   10MOL   C441 9099   2.224   4.996   4.064 -0.2671 -0.2232  0.3912
   10MOL   C442 9100   2.242   4.850   4.020  0.2674 -0.1390  0.7280
   10MOL   C443 9101   2.240   4.744   4.134  0.3410  0.4867 -0.0265
   10MOL   C444 9102   2.197   4.610   4.094 -0.4868  0.3912  0.0796
   10MOL   O445 9103   2.278   4.551   3.989 -0.2911  0.0399 -0.0805
   10MOL   C446 9104   2.389   4.480   4.023 -0.0876 -0.6057  0.6740
   10MOL   O447 9105   2.432   4.472   4.134 -0.1516 -0.0650 -0.1235
   10MOL   C448 9106   2.448   4.409   3.896  0.0504 -0.4900  0.2385
   10MOL   C449 9107   2.480   4.255   3.923 -0.3032  0.5078 -0.1048
   10MOL   C450 9108   2.541   4.181   3.803  0.5440 -0.6263 -0.3376
   10MOL   C451 9109   2.620   4.065   3.843  0.2312  0.5129 -0.0210
   10MOL   C452 9110   2.773   4.099   3.820  0.0003  0.5041 -0.0986
   10MOL   O453 9111   2.835   4.068   3.723  0.1302  0.2280 -0.4962
   10MOL   H454 9112   2.535   5.468   4.180 -0.4336 -0.0774  0.3501
   10MOL   H455 9113   2.456   5.615   4.101 -0.2364 -0.5476 -1.5331
   10MOL   H456 9114   2.585   5.521   3.880 -1.6077  0.5083 -0.7437
   10MOL   H457 9115   2.435   5.459   3.938 -0.6231 -0.1295  0.9949
   10MOL   H458 9116   2.593   5.277   3.868  0.6853  1.1182  0.1705
   10MOL   H459 9117   2.703   5.325   3.993  0.8956 -0.5557 -0.4658
   10MOL   H460 9118   2.506   5.271   4.162 -0.0073  1.1662  0.4342
   10MOL   H461 9119   2.604   5.148   4.088  0.3730  2.0831 -0.5125
   10MOL   H462 9120   2.424   5.117   3.920  2.1453  0.6977  0.5686
   10MOL   H463 9121   2.323   5.238   4.001  0.5569 -0.4024 -0.1475
   10MOL   H464 9122   2.326   5.110   4.214 -0.0622 -0.8755  0.1435
   10MOL   H465 9123   2.419   4.990   4.133 -0.0914  0.5496  2.8044
   10MOL   H466 9124   2.181   5.056   3.984 -0.6372 -1.0130 -0.0047
   10MOL   H467 9125   2.142   5.000   4.136 -1.3371 -0.1627 -0.8158
   10MOL   H468 9126   2.337   4.842   3.967 -0.3560  1.1172 -0.6337
   10MOL   H469 9127   2.166   4.825   3.946 -0.1840  0.4366  0.9959
   10MOL   H470 9128   2.341   4.744   4.175 -0.3599  0.8204  1.7440
   10MOL   H471 9129   2.166   4.772   4.209 -0.3276  0.2765 -0.6058
   10MOL   H472 9130   2.092   4.616   4.067  0.0113 -0.4580 -2.1909
   10MOL   H473 9131   2.200   4.544   4.181  0.3860  0.7571  0.3324
   10MOL   H474 9132   2.371   4.417   3.820 -0.7700  0.1939  1.1296
   10MOL   H475 9133   2.535   4.462   3.857 -0.2708 -0.0589  0.1123
   10MOL   H476 9134   2.393   4.208   3.968 -0.2840  1.6377  1.1448
   10MOL   H477 9135   2.540   4.256   4.014 -3.7555 -0.0339  2.3040
   10MOL   H478 9136   2.598   4.254   3.745 -0.4577 -0.2227 -0.8208
   10MOL   H479 9137   2.459   4.152   3.737  1.7496  1.4959 -2.8758
   10MOL   H480 9138   2.598   3.986   3.772 -0.9874  1.8095 -1.1074
   10MOL   H481 9139   2.596   4.025   3.942  1.0559 -2.5612 -1.0034
   10MOL   O482 9140   2.825   4.174   3.922  0.7117  0.1905  0.4568
   10MOL   C483 9141   2.961   4.218   3.921  0.5344  0.3683 -0.2161
   10MOL   C484 9142   3.044   4.106   3.984  0.2915 -0.1780 -0.5309
   10MOL   C485 9143   3.037   4.094   4.142  0.2114 -0.8654  0.5811
   10MOL   C486 9144   3.150   3.999   4.200  0.3698 -0.1391 -0.3400
   10MOL   C487 9145   3.172   4.003   4.350  0.0069 -0.1212  0.0393
   10MOL   C488 9146   3.065   3.916   4.430 -0.3880 -0.2023  0.2160
   10MOL   C489 9147   3.127   3.891   4.569 -0.1947  0.3040 -0.0799
   10MOL   C490 9148   3.022   3.830   4.659  0.0463 -0.3963 -0.2553
   10MOL   C491 9149   3.093   3.798   4.793  0.1716  0.0763  0.4783
   10MOL   C492 9150   2.996   3.720   4.885 -0.9068  0.0966  0.0686
   10MOL   O493 9151   3.046   3.692   5.013 -0.5288  0.1605 -0.2348
   10MOL   C494 9152   2.977   3.734   5.125 -0.3131 -0.1275 -0.2504
   10MOL   O495 9153   2.865   3.779   5.123  0.2566  0.0387  0.2895
   10MOL   C496 9154   3.057   3.713   5.258  0.4681 -0.0285  0.5841
   10MOL   C497 9155   3.101   3.570   5.303  0.0599  0.4069 -0.6400
   10MOL   C498 9156   2.986   3.476   5.317  0.7020 -0.4473 -0.2147
   10MOL   C499 9157   3.018   3.345   5.379 -0.2152 -1.1726 -0.9047
   10MOL   C500 9158   3.104   3.266   5.282 -0.7010  0.3026 -0.3673
   10MOL   O501 9159   3.216   3.214   5.310 -0.3399  0.0533 -0.3597
   10MOL   H502 9160   2.996   4.246   3.821 -1.0663  0.1177 -0.8470
   10MOL   H503 9161   2.977   4.312   3.974  1.0878  1.2198 -1.8512
   10MOL   H504 9162   3.150   4.127   3.967  0.9019 -2.7006 -0.0429
   10MOL   H505 9163   3.035   4.011   3.933  1.0240 -1.0849  0.9880
   10MOL   H506 9164   3.054   4.193   4.186 -2.1502 -0.3797  0.5137
   10MOL   H507 9165   2.934   4.065   4.165 -0.2136 -1.6084 -2.0466
   10MOL   H508 9166   3.247   4.025   4.157 -0.2101  1.1550 -0.9090
   10MOL   H509 9167   3.127   3.898   4.168  0.9257 -0.3232 -0.1605
   10MOL   H510 9168   3.165   4.109   4.374  0.3998  0.3085 -1.6714
   10MOL   H511 9169   3.276   3.975   4.366 -0.5340 -2.2695 -0.1342
   10MOL   H512 9170   3.056   3.819   4.382  3.0708 -0.0570 -0.8970
   10MOL   H513 9171   2.970   3.970   4.424 -1.9748 -2.7649  1.7634
   10MOL   H514 9172   3.161   3.979   4.624  0.3916  0.4051 -0.5916
   10MOL   H515 9173   3.204   3.817   4.545 -0.9346 -0.4541 -0.1253
   10MOL   H516 9174   2.996   3.736   4.611  0.9680 -1.9190  2.1912
   10MOL   H517 9175   2.934   3.893   4.668  0.0334 -0.1949 -1.6737
   10MOL   H518 9176   3.178   3.729   4.788 -1.5080 -2.0516  0.4156
   10MOL   H519 9177   3.135   3.881   4.849  2.4508 -0.3585 -0.5308
   10MOL   H520 9178   2.958   3.629   4.838  1.0598  0.0137 -1.4348
   10MOL   H521 9179   2.914   3.792   4.878 -1.2979 -0.4709 -1.3737
   10MOL   H522 9180   3.128   3.794   5.272  1.4977 -1.1153  1.8345
   10MOL   H523 9181   2.996   3.750   5.341  1.0461 -0.1299  1.0522
   10MOL   H524 9182   3.159   3.583   5.395 -2.9667  2.2672  1.0897
   10MOL   H525 9183   3.159   3.525   5.222 -0.1239  0.4696 -0.8054
   10MOL   H526 9184   2.936   3.463   5.221 -0.9785  0.7069  0.4703
   10MOL   H527 9185   2.912   3.535   5.373 -0.3883  0.2642 -2.3279
   10MOL   H528 9186   2.928   3.293   5.413 -0.4106 -0.7245 -0.7386
   10MOL   H529 9187   3.075   3.364   5.470 -1.7905 -4.5856  0.9088
   10MOL   O530 9188   3.049   3.249   5.165  0.3990  0.4817 -0.1979
   10MOL   C531 9189   3.108   3.177   5.058 -0.1933  0.0875 -0.0825
   10MOL   C532 9190   3.176   3.278   4.956  0.2667  0.4422  0.6263
   10MOL   C533 9191   3.088   3.349   4.860  0.1122  0.6413  0.5201
   10MOL   C534 9192   3.149   3.443   4.749  0.4226  0.1573 -0.0347
   10MOL   C535 9193   3.259   3.383   4.663  0.4227 -0.3382 -0.3338
   10MOL   C536 9194   3.212   3.329   4.532 -0.7036  0.0200  0.3922
   10MOL   C537 9195   3.197   3.429   4.417 -0.7404 -0.3419 -0.3075
   10MOL   C538 9196   3.312   3.518   4.374  0.8891 -0.1791  0.3435
   10MOL   C539 9197   3.284   3.599   4.246  0.4800  0.4575 -0.2837
   10MOL   C540 9198   3.410   3.655   4.179  1.2119  0.2225 -0.1926
   10MOL   O541 9199   3.372   3.755   4.086 -0.1363 -0.3608 -0.0836
   10MOL   C542 9200   3.349   3.717   3.956  0.8323  0.2311 -0.1094
   10MOL   O543 9201   3.372   3.605   3.908 -0.1163 -0.2010 -0.3222
   10MOL   C544 9202   3.285   3.827   3.871  0.2650 -0.5352  0.1475
   10MOL   C545 9203   3.376   3.947   3.845 -0.9029  0.1521  0.2931
   10MOL   C546 9204   3.517   3.922   3.788 -0.5034  0.3924 -0.4104
   10MOL   C547 9205   3.509   3.846   3.651  0.1653 -0.2226 -0.5745
   10MOL   C548 9206   3.625   3.887   3.565  0.0450 -0.3030 -0.1325
   10MOL   O549 9207   3.743   3.853   3.600  0.0746 -0.7130  0.1994
   10MOL   H550 9208   3.168   3.097   5.101 -0.7427 -1.0187 -1.3157
   10MOL   H551 9209   3.030   3.119   5.008  0.0496 -1.0036  0.7954
   10MOL   H552 9210   3.248   3.215   4.904 -0.9074 -1.4453  1.2282
   10MOL   H553 9211   3.236   3.354   5.007  1.1403  0.6506 -0.7019
   10MOL   H554 9212   3.020   3.273   4.821  1.9827 -0.1827 -1.2436
   10MOL   H555 9213   3.039   3.413   4.934 -0.1579  1.0273  0.0147
   10MOL   H556 9214   3.201   3.529   4.792  0.5472  0.5630 -0.9823
   10MOL   H557 9215   3.074   3.479   4.679 -0.6123 -1.4870  0.1928
   10MOL   H558 9216   3.316   3.305   4.716 -0.0985  0.0349  0.7878
   10MOL   H559 9217   3.342   3.453   4.651 -0.5020  0.9465  0.7344
   10MOL   H560 9218   3.122   3.271   4.552  0.8435 -1.6804  2.6080
   10MOL   H561 9219   3.279   3.247   4.507  0.7455  1.3506 -0.2043
   10MOL   H562 9220   3.118   3.498   4.447 -1.0044 -0.5591 -0.4935
   10MOL   H563 9221   3.163   3.365   4.336  0.0017  0.3022 -1.1286
   10MOL   H564 9222   3.404   3.461   4.364  1.8155  1.3297  0.0654
   10MOL   H565 9223   3.329   3.589   4.455 -0.6285  0.0984  0.4460
   10MOL   H566 9224   3.229   3.547   4.168  0.8762 -0.9206  0.3477
   10MOL   H567 9225   3.222   3.684   4.276  1.3553  1.6993 -1.9076
   10MOL   H568 9226   3.466   3.576   4.129 -1.2542 -0.8536 -1.3367
   10MOL   H569 9227   3.467   3.701   4.260 -1.5378  1.4166  1.1170
   10MOL   H570 9228   3.270   3.796   3.768 -0.3024  0.5170 -0.1058
   10MOL   H571 9229   3.189   3.856   3.915  1.6528  1.8556  1.7351
   10MOL   H572 9230   3.397   4.001   3.938 -2.0944 -2.3129  2.0641
   10MOL   H573 9231   3.316   4.006   3.777 -1.3500  0.5626  1.0396
   10MOL   H574 9232   3.583   3.856   3.845 -0.2237 -0.3993 -1.6241
   10MOL   H575 9233   3.566   4.018   3.777  1.9462 -0.5139  2.0500
   10MOL   H576 9234   3.413   3.862   3.600 -1.5611 -2.8081  1.7056
   10MOL   H577 9235   3.509   3.740   3.677 -0.1629 -0.5357 -1.8227
   10MOL   O578 9236   3.587   3.965   3.468  0.4031 -0.4074 -0.1617
   10MOL   C579 9237   3.671   4.023   3.369  0.4292  0.1493 -0.2841
   10MOL   C580 9238   3.596   4.141   3.310 -0.4721 -0.1085  0.6360
   10MOL   C581 9239   3.641   4.193   3.172 -0.2771 -0.2271  0.2515
   10MOL   C582 9240   3.776   4.241   3.156  0.4337 -0.2598  0.2935
   10MOL   C583 9241   3.809   4.382   3.212  0.9442  0.3361  0.3377
   10MOL   C584 9242   3.951   4.427   3.182  0.8427 -0.3984  0.1974
   10MOL   C585 9243   4.005   4.442   3.042 -0.1129  0.6837  0.0484
   10MOL   C586 9244   4.149   4.494   3.039 -0.3047 -0.4999  0.2687
   10MOL   C587 9245   4.228   4.499   2.900 -0.4395  0.7939  0.2328
   10MOL   C588 9246   4.377   4.466   2.898  0.7447 -0.0017 -0.1432
   10MOL   O589 9247   4.448   4.567   2.976 -0.2547  0.2740  0.0203
   10MOL   C590 9248   4.524   4.655   2.912 -0.1360 -0.7146 -0.5130
   10MOL   O591 9249   4.564   4.653   2.798  0.4829 -0.3811 -0.3715
   10MOL   C592 9250   4.566   4.773   3.009  0.7842 -0.1706  0.1825
   10MOL   C593 9251   4.453   4.857   3.057  0.1147  0.0610 -0.5521
   10MOL   C594 9252   4.370   4.921   2.943 -0.0285 -0.2843 -0.2625
   10MOL   C595 9253   4.292   5.044   2.994  0.9278 -0.5503  0.2973
   10MOL   C596 9254   4.156   5.018   3.063  0.0084 -0.7528  0.4437
   10MOL   O597 9255   4.144   5.042   3.180  0.0987  0.3136  0.4437
   10MOL   H598 9256   3.764   4.058   3.413 -0.3812 -0.2326  1.7949
   10MOL   H599 9257   3.700   3.950   3.293 -0.5121 -1.0412  0.4866
   10MOL   H600 9258   3.600   4.225   3.379  1.3478  1.1543 -0.9553
   10MOL   H601 9259   3.493   4.105   3.305 -0.1262 -0.9756 -0.4153
   10MOL   H602 9260   3.641   4.100   3.115 -0.3950  0.1394 -0.3531
   10MOL   H603 9261   3.567   4.267   3.143 -1.0023 -1.2585 -0.5662
   10MOL   H604 9262   3.797   4.248   3.049  1.6867 -0.3542  0.5221
   10MOL   H605 9263   3.837   4.161   3.199 -0.0120 -1.4572 -1.2731
   10MOL   H606 9264   3.794   4.395   3.320 -1.1677 -0.1051  0.1166
   10MOL   H607 9265   3.740   4.454   3.167  0.8729 -0.6789 -1.1856
   10MOL   H608 9266   4.011   4.373   3.256  0.3581  0.2697  1.0863
   10MOL   H609 9267   3.956   4.531   3.214  1.3495 -0.5293  0.5641
   10MOL   H610 9268   3.940   4.500   2.977 -1.4446 -0.7068  0.1010
   10MOL   H611 9269   4.007   4.342   2.998 -1.3485  0.5726  0.2275
   10MOL   H612 9270   4.208   4.420   3.093  0.7983  1.4040  1.7628
   10MOL   H613 9271   4.146   4.583   3.101  0.9061  1.0185 -1.7892
   10MOL   H614 9272   4.188   4.424   2.832  0.2331  1.8094 -1.3066
   10MOL   H615 9273   4.218   4.597   2.854  2.2318  1.4874  0.9939
   10MOL   H616 9274   4.404   4.459   2.793 -2.6857  2.0757 -1.2449
   10MOL   H617 9275   4.402   4.366   2.934  0.6265  0.8763  2.4650
   10MOL   H618 9276   4.626   4.744   3.095  0.3851 -0.2316  0.4430
   10MOL   H619 9277   4.632   4.832   2.946 -0.7183  1.9148  0.5296
   10MOL   H620 9278   4.489   4.936   3.123  0.5207 -0.4855 -0.1087
   10MOL   H621 9279   4.395   4.799   3.129 -1.1160  3.1192  1.0327
   10MOL   H622 9280   4.295   4.852   2.906 -0.6020  0.4786 -0.5303
   10MOL   H623 9281   4.436   4.947   2.861 -1.9931 -0.5437 -1.9561
   10MOL   H624 9282   4.263   5.109   2.912  0.8224 -1.6138 -0.5039
   10MOL   H625 9283   4.351   5.094   3.072  1.1499  0.9199 -0.7942
   10MOL   O626 9284   4.055   4.970   2.974  0.1143 -0.1758 -0.1674
   10MOL   C627 9285   3.923   4.955   3.026 -0.2976  0.6943  0.5440
   10MOL   C628 9286   3.818   5.017   2.933  0.3056 -0.0774  0.0235
   10MOL   C629 9287   3.679   4.994   2.986  0.1705  0.0740 -0.7078
   10MOL   C630 9288   3.623   5.123   3.044  0.8548 -0.0002 -0.1244
   10MOL   C631 9289   3.469   5.100   3.052  0.0080  0.0042 -0.4807
   10MOL   C632 9290   3.397   5.237   3.086 -0.1237 -0.5045  0.0004
   10MOL   C633 9291   3.251   5.211   3.118 -0.5982 -0.5596  0.1180
   10MOL   C634 9292   3.179   5.343   3.135 -0.4183 -0.5840 -0.5847
   10MOL   C635 9293   3.041   5.336   3.192  0.3710  0.0917 -0.0941
   10MOL   C636 9294   2.976   5.483   3.202 -0.0900  0.2996 -0.2965
   10MOL   O637 9295   2.974   5.548   3.083 -0.2696  1.1334  0.0002
   10MOL   C638 9296   2.871   5.529   3.005  0.1424 -0.6556  0.3489
   10MOL   O639 9297   2.781   5.453   3.035 -0.0795 -0.1322  0.4020
   10MOL   C640 9298   2.885   5.610   2.877 -0.1530 -0.0943  0.2835
   10MOL   C641 9299   2.954   5.539   2.751  0.5795 -0.0365  0.2295
   10MOL   C642 9300   3.106   5.540   2.770  0.9549  0.4633  0.0495
   10MOL   C643 9301   3.178   5.498   2.637 -0.4546 -0.0666 -0.5276
   10MOL   C644 9302   3.328   5.492   2.652  0.4800 -0.1176  0.5043
   10MOL   O645 9303   3.401   5.587   2.661 -0.0705  0.1177  0.1843
   10MOL   H646 9304   3.900   4.851   3.052 -0.9248  0.8224  0.5118
   10MOL   H647 9305   3.912   5.006   3.121 -1.3780  0.5667  0.4921
   10MOL   H648 9306   3.815   4.963   2.838  1.3659  0.3398 -0.2584
   10MOL   H649 9307   3.850   5.119   2.914 -1.1934 -0.0187 -2.5281
   10MOL   H650 9308   3.614   4.957   2.907 -0.6108 -0.4994  0.1867
   10MOL   H651 9309   3.681   4.918   3.065 -2.3350  0.0452 -0.6495
   10MOL   H652 9310   3.657   5.205   2.982  0.0900 -1.5991 -2.7152
   10MOL   H653 9311   3.671   5.138   3.141  1.7464 -0.6813 -0.4481
   10MOL   H654 9312   3.442   5.036   3.137 -0.6086  1.7739  0.6823
   10MOL   H655 9313   3.431   5.048   2.964 -0.9389 -1.1398  0.5818
   10MOL   H656 9314   3.410   5.314   3.010 -1.9070  0.0436  0.2106
   10MOL   H657 9315   3.447   5.278   3.174 -0.8355 -0.2971  0.3129
   10MOL   H658 9316   3.253   5.156   3.212  2.6088 -1.8095 -0.6281
   10MOL   H659 9317   3.196   5.155   3.041 -1.4181 -0.5452  0.6839
   10MOL   H660 9318   3.174   5.389   3.036  2.0633 -0.1070 -0.5047
   10MOL   H661 9319   3.241   5.403   3.201  1.5351 -1.9295 -1.1409
   10MOL   H662 9320   2.985   5.267   3.130  1.8305 -1.7858  0.6369
   10MOL   H663 9321   3.064   5.296   3.291 -0.3975  0.7889  0.3761
   10MOL   H664 9322   3.038   5.545   3.268  0.3093  1.8450 -2.0764
   10MOL   H665 9323   2.887   5.485   3.265  0.0903  0.6279 -0.0468
   10MOL   H666 9324   2.786   5.628   2.834  1.0805  2.1151 -1.7490
   10MOL   H667 9325   2.923   5.707   2.909 -1.8395 -0.2649  2.9394
   10MOL   H668 9326   2.913   5.590   2.663  0.1850 -1.7948 -0.6301
   10MOL   H669 9327   2.928   5.435   2.728  2.4946 -0.7146  1.0329
   10MOL   H670 9328   3.115   5.467   2.851 -0.4007 -0.1150 -0.3156
   10MOL   H671 9329   3.149   5.634   2.804 -0.2819 -0.3545  4.1271
   10MOL   H672 9330   3.167   5.582   2.568 -2.1795  0.6722  0.6030
   10MOL   H673 9331   3.138   5.411   2.586 -0.1133 -1.0154  0.8094
   10MOL   O674 9332   3.366   5.367   2.649  0.6103  0.2717  0.9017
   10MOL   C675 9333   3.503   5.325   2.674 -0.2524 -0.2559  0.2470
   10MOL   C676 9334   3.507   5.167   2.679  0.1383 -0.3532 -0.0948
   10MOL   C677 9335   3.467   5.107   2.542  0.0211 -0.9983  0.5918
   10MOL   C678 9336   3.482   4.950   2.528 -0.4072 -0.2821 -0.1589
   10MOL   C679 9337   3.383   4.893   2.435 -0.2437  0.3143  0.0691
   10MOL   C680 9338   3.394   4.734   2.427 -0.3844  0.2491 -0.4102
   10MOL   C681 9339   3.532   4.674   2.384 -0.4145 -0.3249  0.1053
   10MOL   C682 9340   3.530   4.525   2.375 -0.1819  0.0742 -0.0343
   10MOL   C683 9341   3.660   4.472   2.321 -0.5373  0.8036  0.3627
   10MOL   C684 9342   3.664   4.322   2.323  0.2892 -0.2442 -0.2553
   10MOL   O685 9343   3.577   4.255   2.231 -0.5825  0.3317  0.0990
   10MOL   C686 9344   3.572   4.116   2.223 -0.7229  0.5317  0.1348
   10MOL   O687 9345   3.639   4.046   2.302  0.6711 -0.6544  0.6110
   10MOL   C688 9346   3.496   4.060   2.105  0.1583  0.1339 -0.2183
   10MOL   C689 9347   3.356   4.006   2.144 -0.6330  0.6038 -1.2859
   10MOL   C690 9348   3.358   3.859   2.197  0.3758  0.7007 -0.1506
   10MOL   C691 9349   3.217   3.806   2.242  0.2875 -0.4715  0.9411
   10MOL   C692 9350   3.113   3.785   2.136 -0.3267  0.1071 -0.0388
   10MOL   O693 9351   3.017   3.855   2.128  0.5129 -1.0032 -0.4622
   10MOL   H694 9352   3.575   5.364   2.602 -1.8873  3.0191  0.3015
   10MOL   H695 9353   3.543   5.366   2.767 -0.1134  1.2845 -0.4904
   10MOL   H696 9354   3.440   5.128   2.756 -1.1177  1.4116 -0.2744
   10MOL   H697 9355   3.603   5.131   2.715  0.8601  1.1826 -0.4696
   10MOL   H698 9356   3.370   5.148   2.515 -0.8687 -2.9329  0.7861
   10MOL   H699 9357   3.534   5.145   2.465 -0.0201 -0.9084  0.6007
   10MOL   H700 9358   3.466   4.905   2.626 -0.9589 -0.7068 -0.4392
   10MOL   H701 9359   3.584   4.917   2.507  0.1069 -0.9134  3.0341
   10MOL   H702 9360   3.409   4.930   2.335 -0.5130 -0.1603 -0.1768
   10MOL   H703 9361   3.278   4.919   2.443 -0.1871  0.4490  0.3918
   10MOL   H704 9362   3.315   4.707   2.357 -0.2112 -0.1227 -0.4613
   10MOL   H705 9363   3.378   4.683   2.522  0.4623  0.5648 -0.0869
   10MOL   H706 9364   3.594   4.694   2.472  1.0640  0.8645 -1.1656
   10MOL   H707 9365   3.572   4.720   2.293 -0.8715 -1.0585 -0.4786
   10MOL   H708 9366   3.449   4.489   2.312  2.0246 -3.1722 -1.1640
   10MOL   H709 9367   3.516   4.481   2.474  1.5358  0.5241  0.4285
   10MOL   H710 9368   3.681   4.508   2.220  2.3398  0.1253  0.6767
   10MOL   H711 9369   3.736   4.511   2.389 -1.0291  1.4596  0.5437
   10MOL   H712 9370   3.633   4.291   2.423 -0.9479  2.4098  0.2157
   10MOL   H713 9371   3.770   4.301   2.308  0.7064  0.4166  1.6503
   10MOL   H714 9372   3.486   4.148   2.041  0.4615 -0.5197 -1.1727
   10MOL   H715 9373   3.543   3.988   2.038 -0.6437  1.9380 -2.7960
   10MOL   H716 9374   3.291   3.994   2.057 -1.5696 -1.6618 -0.3204
   10MOL   H717 9375   3.314   4.080   2.213  0.5975  1.6563 -1.6386
   10MOL   H718 9376   3.430   3.852   2.279 -0.0084  2.7352  0.3967
   10MOL   H719 9377   3.394   3.798   2.114  1.8549  1.7081 -0.2770
   10MOL   H720 9378   3.171   3.887   2.297  2.1087  0.3576  1.3044
   10MOL   H721 9379   3.217   3.716   2.303 -0.3830 -2.7056 -2.2381
   10MOL   O722 9380   3.148   3.696   2.047  0.2769 -0.2471  0.6508
   10MOL   C723 9381   3.077   3.685   1.924  0.6891  0.0038 -0.2505
   10MOL   C724 9382   3.143   3.569   1.861  0.4809 -0.5141 -0.1699
   10MOL   C725 9383   3.071   3.513   1.738 -0.2692 -0.7308  0.0864
   10MOL   C726 9384   3.165   3.421   1.668 -0.4838  0.0035 -0.0013
   10MOL   C727 9385   3.103   3.375   1.537  0.2432  0.0465 -0.1287
   10MOL   C728 9386   3.202   3.295   1.448 -0.0487  0.0017  0.8136
   10MOL   C729 9387   3.149   3.243   1.314 -0.6810 -0.6288 -0.3546
   10MOL   C730 9388   3.254   3.158   1.234  0.4942 -1.0267 -0.3823
   10MOL   C731 9389   3.188   3.109   1.105 -0.5266 -0.0303  0.2738
   10MOL   C732 9390   3.148   3.223   1.016  0.4769 -0.8326  0.1342
   10MOL   O733 9391   3.096   3.169   0.896  0.0962 -0.3938  1.2655
   10MOL   C734 9392   3.025   3.244   0.822  0.1653 -0.5284  0.0874
   10MOL   O735 9393   3.014   3.369   0.831 -0.4162  0.3723 -0.4047
   10MOL   C736 9394   2.944   3.165   0.715  0.3306 -0.1765  0.3467
   10MOL   C737 9395   2.803   3.127   0.767  0.7083  0.1452  0.0910
   10MOL   C738 9396   2.724   3.030   0.678 -0.1503 -0.1771  0.0055
   10MOL   C739 9397   2.578   2.997   0.715 -0.4633 -0.3002 -0.4672
   10MOL   C740 9398   2.561   2.863   0.788 -0.9202  0.4036 -0.8607
   10MOL   O741 9399   2.550   2.766   0.719 -0.2328 -0.8473  0.1604
   10MOL   H742 9400   2.972   3.668   1.944  0.4089  1.9597  0.0117
   10MOL   H743 9401   3.099   3.775   1.865  1.0841 -0.6890 -1.1735
   10MOL   H744 9402   3.142   3.497   1.942 -0.9233  0.9468  1.1553
   10MOL   H745 9403   3.249   3.596   1.854  0.4522 -0.1190  0.7432
   10MOL   H746 9404   2.975   3.469   1.762  0.6540 -1.2267  3.0930
   10MOL   H747 9405   3.046   3.598   1.675  0.1500 -0.3106  0.4822
   10MOL   H748 9406   3.183   3.337   1.736  0.1254  1.2135  1.3555
   10MOL   H749 9407   3.252   3.481   1.644  0.3383 -0.9846  0.4485
   10MOL   H750 9408   3.058   3.455   1.477  0.4583  0.0754 -0.2513
   10MOL   H751 9409   3.016   3.314   1.560  0.1681  0.1473 -0.1460
   10MOL   H752 9410   3.244   3.209   1.501 -0.5506 -0.6548  0.1527
   10MOL   H753 9411   3.293   3.353   1.429  0.8831 -0.7464  2.8881
   10MOL   H754 9412   3.129   3.331   1.252  2.5152  0.8424  0.5660
   10MOL   H755 9413   3.049   3.200   1.321 -1.2201  0.5613 -0.6020
   10MOL   H756 9414   3.296   3.073   1.286 -1.2214 -0.9142  1.2301
   10MOL   H757 9415   3.345   3.214   1.212  0.7987 -1.1463  0.5909
   10MOL   H758 9416   3.262   3.053   1.048 -0.7925  1.1019 -1.2153
   10MOL   H759 9417   3.102   3.046   1.130  0.1880  0.0830  3.2139
   10MOL   H760 9418   3.229   3.295   1.000 -1.2702  0.9506 -0.9764
   10MOL   H761 9419   3.069   3.279   1.066 -0.0443 -1.4983  0.0532
   10MOL   H762 9420   2.935   3.226   0.625 -0.1160 -0.6135  0.0886
   10MOL   H763 9421   3.003   3.076   0.688 -1.5727 -1.4039  0.1127
   10MOL   H764 9422   2.750   3.222   0.778 -0.2827 -0.5630  1.7160
   10MOL   H765 9423   2.797   3.096   0.872  2.3922  0.0209  0.1547
   10MOL   H766 9424   2.779   2.936   0.674  1.6956  0.8628  0.7036
   10MOL   H767 9425   2.720   3.066   0.575  0.6286  0.3427  0.1560
   10MOL   H768 9426   2.523   2.993   0.622 -0.9042 -0.0391 -0.2198
   10MOL   H769 9427   2.533   3.077   0.774  1.0722  0.5987 -0.4951
   10MOL   O770 9428   2.562   2.863   0.923 -0.1155 -0.2453 -0.0809
   10MOL   C771 9429   2.538   2.746   1.001 -0.3689  0.4086 -0.0973
   10MOL   C772 9430   2.469   2.775   1.128 -0.2255  0.2147  0.9836
   10MOL   C773 9431   2.426   2.641   1.193  0.4844  0.0391 -0.0345
   10MOL   C774 9432   2.371   2.656   1.337 -0.9967  0.2290  0.2493
   10MOL   C775 9433   2.327   2.515   1.384 -0.6990 -0.2893  0.4695
   10MOL   C776 9434   2.270   2.501   1.520  0.0375 -0.9034  0.2783
   10MOL   C777 9435   2.340   2.577   1.635 -0.1661  0.3358 -0.0978
   10MOL   C778 9436   2.494   2.534   1.651 -0.7285 -0.7256 -0.4161
   10MOL   C779 9437   2.567   2.626   1.758  0.0370 -0.0555 -0.4151
   10MOL   C780 9438   2.596   2.771   1.704 -0.2987 -0.0026 -0.1154
   10MOL   O781 9439   2.483   2.852   1.679 -0.2903 -0.2388  0.5518
   10MOL   C782 9440   2.481   2.921   1.558  1.0003  0.5393  0.2659
   10MOL   O783 9441   2.567   2.916   1.471 -0.4998  0.7153 -0.1265
   10MOL   C784 9442   2.368   3.020   1.552  0.5669 -0.2410 -0.2098
   10MOL   C785 9443   2.418   3.156   1.603 -0.2433  0.9886  0.7873
   10MOL   C786 9444   2.435   3.167   1.762  0.1677 -0.0803  0.1025
   10MOL   C787 9445   2.473   3.314   1.803  0.0122  0.1201  1.0194
   10MOL   C788 9446   2.360   3.407   1.860 -0.2922 -0.7718  0.1012
   10MOL   O789 9447   2.330   3.511   1.801 -0.6110  0.0758  0.3410
   10MOL   H790 9448   2.481   2.665   0.956 -0.4368 -0.0365  0.7882
   10MOL   H791 9449   2.627   2.690   1.029 -1.4520 -0.1626  2.3153
   10MOL   H792 9450   2.388   2.844   1.103 -0.1467  0.1059  0.4130
   10MOL   H793 9451   2.529   2.838   1.194  1.3705 -0.7311  0.4870
   10MOL   H794 9452   2.345   2.604   1.130 -0.4522  1.2994  0.4073
   10MOL   H795 9453   2.508   2.570   1.184  1.2375  1.0582 -1.3787
   10MOL   H796 9454   2.275   2.706   1.346 -1.6406 -1.2152  1.7063
   10MOL   H797 9455   2.447   2.701   1.402 -0.5955 -0.0710 -0.0115
   10MOL   H798 9456   2.415   2.450   1.388  0.6381  1.5116  1.8465
   10MOL   H799 9457   2.257   2.484   1.307 -0.2927 -0.3789  0.1349
   10MOL   H800 9458   2.282   2.403   1.565  0.1733 -0.2210  1.7690
   10MOL   H801 9459   2.162   2.518   1.526  0.1266  0.3970 -1.3936
   10MOL   H802 9460   2.278   2.578   1.724  0.9323  1.4959  0.6776
   10MOL   H803 9461   2.337   2.681   1.599 -0.5024 -0.4716 -2.5143
   10MOL   H804 9462   2.541   2.547   1.553 -1.4675 -0.8510 -0.7884
   10MOL   H805 9463   2.502   2.427   1.674  0.4141 -1.3585 -3.4376
   10MOL   H806 9464   2.512   2.631   1.852  0.5777 -0.3726 -0.0744
   10MOL   H807 9465   2.661   2.578   1.784  0.3531  0.0601 -1.3332
   10MOL   H808 9466   2.669   2.764   1.623  0.8479 -0.7713  0.9567
   10MOL   H809 9467   2.659   2.816   1.781 -0.1743 -0.5733  0.1258
   10MOL   H810 9468   2.328   3.016   1.450  1.1059 -0.4804 -0.4135
   10MOL   H811 9469   2.288   2.982   1.616  1.7471  0.0357  1.4646
   10MOL   H812 9470   2.344   3.234   1.582 -0.6633  1.2714  3.1612
   10MOL   H813 9471   2.504   3.190   1.546 -1.5678 -0.3575 -2.1115
   10MOL   H814 9472   2.501   3.084   1.785 -0.9470 -0.6763  1.2416
   10MOL   H815 9473   2.343   3.148   1.818  1.0195  1.5874  2.1304
   10MOL   H816 9474   2.531   3.360   1.723 -0.9649 -1.7661 -0.8009
   10MOL   H817 9475   2.539   3.318   1.890  1.4464  0.6477 -0.0728
   10MOL   O818 9476   2.302   3.358   1.969 -0.1633 -0.1368  0.1344
   10MOL   C819 9477   2.184   3.421   2.021 -0.0510 -0.3567  0.2857
   10MOL   C820 9478   2.122   3.337   2.144 -0.2306  0.3693 -0.3268
   10MOL   C821 9479   1.972   3.371   2.163  0.4600  0.1036 -0.4659
   10MOL   C822 9480   1.898   3.323   2.292 -0.6452  0.8392 -0.3871
   10MOL   C823 9481   1.841   3.176   2.283  0.5798 -0.4754 -0.6337
   10MOL   C824 9482   1.713   3.159   2.199  0.2645  0.4649  0.3535
   10MOL   C825 9483   1.647   3.024   2.230  0.1350 -0.6057 -0.1124
   10MOL   C826 9484   1.539   2.990   2.132  0.7877 -0.2095 -0.4218
   10MOL   C827 9485   1.444   2.881   2.168  0.7578 -0.6266 -0.7213
   10MOL   C828 9486   1.352   2.850   2.047  0.0599 -0.6540 -0.4854
   10MOL   O829 9487   1.267   2.740   2.079  0.3852  0.0698 -0.5352
   10MOL   C830 9488   1.135   2.750   2.075 -0.8634 -0.4343  0.3919
   10MOL   O831 9489   1.073   2.853   2.043 -0.2470 -0.4760  0.1118
   10MOL   C832 9490   1.062   2.625   2.109  0.4834 -0.0567 -0.2950
   10MOL   C833 9491   1.113   2.553   2.230 -0.2665  0.2695  0.0031
   10MOL   C834 9492   1.070   2.617   2.363 -0.0283 -0.5070 -0.7276
   10MOL   C835 9493   1.134   2.542   2.485  0.5373  1.1123 -0.4812
   10MOL   C836 9494   1.288   2.575   2.487 -0.5769 -0.1131  0.0212
   10MOL   O837 9495   1.372   2.487   2.499  0.0546  0.6547  0.3641
   10MOL   H838 9496   2.202   3.525   2.047  1.8558 -0.4797 -0.5154
   10MOL   H839 9497   2.107   3.429   1.944  0.9786  0.7766 -0.6444
   10MOL   H840 9498   2.187   3.325   2.230 -1.7603  2.2192  1.1385
   10MOL   H841 9499   2.118   3.233   2.112 -0.5987  0.8612 -1.9447
   10MOL   H842 9500   1.961   3.480   2.162  0.3781  0.0929 -0.9496
   10MOL   H843 9501   1.915   3.347   2.073  0.5736  1.4034 -0.9084
   10MOL   H844 9502   1.810   3.379   2.324 -0.0988  1.2176  0.4754
   10MOL   H845 9503   1.965   3.321   2.377  1.1509  1.2664 -1.7568
   10MOL   H846 9504   1.805   3.148   2.382 -0.1097 -3.5841 -1.7017
   10MOL   H847 9505   1.912   3.098   2.253 -0.0806 -1.9600  1.5466
   10MOL   H848 9506   1.735   3.180   2.094 -3.3301  1.4870 -0.2600
   10MOL   H849 9507   1.637   3.230   2.231  1.4642  2.2336 -0.6205
   10MOL   H850 9508   1.598   3.021   2.328  1.1921 -1.4042  0.3917
   10MOL   H851 9509   1.718   2.943   2.242 -0.5365 -0.7950  3.2079
   10MOL   H852 9510   1.588   2.965   2.038  0.6805 -1.5647 -0.1191
   10MOL   H853 9511   1.479   3.080   2.120  0.2798  0.1246  3.8340
   10MOL   H854 9512   1.504   2.792   2.184 -1.4337 -1.7401  1.7621
   10MOL   H855 9513   1.389   2.903   2.260 -0.6211 -3.1571 -0.8903
   10MOL   H856 9514   1.405   2.813   1.959  1.1449 -2.1129  0.7362
   10MOL   H857 9515   1.294   2.934   2.010 -1.3422 -0.8011  1.3186
   10MOL   H858 9516   0.956   2.646   2.116  0.7490  1.1229  0.1946
   10MOL   H859 9517   1.080   2.554   2.028  1.0806  1.6227 -1.6751
   10MOL   H860 9518   1.221   2.538   2.224 -0.1639  1.3378 -0.7760
   10MOL   H861 9519   1.066   2.455   2.219 -1.7713  1.1964 -2.3264
   10MOL   H862 9520   0.961   2.616   2.361 -0.0796  1.1019  0.5940
   10MOL   H863 9521   1.116   2.715   2.352  1.4089 -1.1125 -0.2467
   10MOL   H864 9522   1.119   2.435   2.490 -0.1674  1.2324 -0.1197
   10MOL   H865 9523   1.098   2.580   2.580 -0.0687  1.9020 -1.0183
   10MOL   O866 9524   1.308   2.706   2.472 -0.2591  0.2717 -0.2126
   10MOL   C867 9525   1.443   2.756   2.498  0.2529  0.0853 -0.9342
   10MOL   C868 9526   1.433   2.810   2.644  0.5361  0.2443 -0.8322
   10MOL   C869 9527   1.553   2.880   2.713  0.0793 -0.1291  0.3696
   10MOL   C870 9528   1.512   2.938   2.848  0.3265  0.2199 -0.3318
   10MOL   C871 9529   1.632   3.003   2.922 -0.4162 -0.2728 -0.3225
   10MOL   C872 9530   1.586   3.053   3.066 -0.7837  0.4382  0.3978
   10MOL   C873 9531   1.693   3.124   3.149  0.1801  0.4640 -0.4658
   10MOL   C874 9532   1.733   3.265   3.101 -0.0783 -0.8496  0.0327
   10MOL   C875 9533   1.829   3.335   3.199 -0.0133 -0.1264  0.4051
   10MOL   C876 9534   1.825   3.483   3.181  0.4268 -0.1436 -0.2914
   10MOL   O877 9535   1.915   3.539   3.279 -0.1466 -0.1199  0.0033
   10MOL   C878 9536   1.915   3.670   3.312 -0.3069 -0.0417 -0.3912
   10MOL   O879 9537   1.843   3.752   3.257  0.5574 -0.1059 -0.5013
   10MOL   C880 9538   2.025   3.717   3.409 -0.2426  0.6329 -0.0705
   10MOL   C881 9539   2.018   3.666   3.552  0.2264 -0.2038 -0.3552
   10MOL   C882 9540   2.055   3.518   3.576  0.8971 -0.4619 -0.3621
   10MOL   C883 9541   1.995   3.467   3.705  0.7998 -0.6603 -0.6286
   10MOL   C884 9542   2.080   3.516   3.818  0.3858 -0.2519  1.1563
   10MOL   O885 9543   2.181   3.457   3.858  0.6064  0.7592 -0.4023
   10MOL   H886 9544   1.528   2.688   2.492 -0.4755 -0.8758 -0.4709
   10MOL   H887 9545   1.455   2.849   2.442 -0.2703  0.5125 -0.3460
   10MOL   H888 9546   1.403   2.728   2.709  0.5465  1.1958  0.3728
   10MOL   H889 9547   1.362   2.892   2.641  0.8010  0.5039  0.0620
   10MOL   H890 9548   1.634   2.807   2.726 -0.2803 -0.6420 -0.2156
   10MOL   H891 9549   1.594   2.955   2.645 -1.2920  0.2827 -0.0156
   10MOL   H892 9550   1.475   2.855   2.908 -0.0152 -0.2644 -1.2133
   10MOL   H893 9551   1.428   3.007   2.855  1.5120  1.7236 -0.4580
   10MOL   H894 9552   1.664   3.086   2.858  1.3975 -1.4535 -0.9687
   10MOL   H895 9553   1.716   2.934   2.931  1.3969  1.7806 -1.0590
   10MOL   H896 9554   1.563   2.964   3.125 -1.9378  0.9200  0.6945
   10MOL   H897 9555   1.503   3.122   3.051 -0.5938 -0.0261 -3.1631
   10MOL   H898 9556   1.776   3.055   3.165 -0.5114  0.5790  4.6893
   10MOL   H899 9557   1.654   3.128   3.251 -1.7774 -1.6345 -1.0891
   10MOL   H900 9558   1.641   3.321   3.119  0.4016 -0.4867  1.3929
   10MOL   H901 9559   1.758   3.260   2.995 -1.7563 -0.2721 -0.3942
   10MOL   H902 9560   1.813   3.302   3.301 -0.4247 -1.1359  0.0262
   10MOL   H903 9561   1.928   3.294   3.179 -0.0987  0.1072 -0.5292
   10MOL   H904 9562   1.731   3.530   3.210  0.7664  0.4817 -0.1974
   10MOL   H905 9563   1.866   3.519   3.087 -0.3727  3.0828  0.5305
   10MOL   H906 9564   2.114   3.680   3.359 -0.8892  0.0807 -0.8242
   10MOL   H907 9565   2.018   3.826   3.408 -0.6555  0.6052 -0.4595
   10MOL   H908 9566   1.914   3.675   3.585  0.7347  0.7174  1.0276
   10MOL   H909 9567   2.068   3.732   3.622 -1.6406  0.4535  0.3818
   10MOL   H910 9568   2.164   3.509   3.578  0.9988  0.9353  0.9994
   10MOL   H911 9569   2.009   3.459   3.496 -1.9081  1.0416  0.0975
   10MOL   H912 9570   1.997   3.358   3.709 -3.0518 -0.7687  0.6143
   10MOL   H913 9571   1.893   3.504   3.713  1.4560  0.9745  0.4033
   10MOL   O914 9572   2.034   3.630   3.873 -0.1385  0.2737 -0.4291
   10MOL   C915 9573   2.088   3.698   3.989 -0.2997  0.5014 -0.1571
   10MOL   C916 9574   2.177   3.819   3.949  0.0705 -0.2813 -0.1671
   10MOL   C917 9575   2.091   3.935   3.897  0.0571 -0.1245  0.3212
   10MOL   C918 9576   2.168   4.067   3.887 -0.6767  0.0799 -0.1932
   10MOL   C919 9577   2.090   4.197   3.858  0.3484 -0.7606  0.9100
   10MOL   C920 9578   1.991   4.225   3.973 -0.0351 -0.3079 -0.6265
   10MOL   C921 9579   1.924   4.360   3.960 -0.3419 -0.1698  0.1525
   10MOL   C922 9580   1.894   4.418   4.103  0.4808  0.4775 -0.0055
   10MOL   C923 9581   1.809   4.547   4.097  0.6577 -0.2887  0.1171
   10MOL   C924 9582   1.764   4.600   4.226  0.8370 -0.1658  0.1389
   10MOL   O925 9583   1.881   4.651   4.291  0.5169  0.1189  0.6350
   10MOL   C926 9584   1.883   4.663   4.430  0.2314 -0.0699  1.0416
   10MOL   O927 9585   1.784   4.623   4.498 -0.1084  0.2572  0.6226
   10MOL   C928 9586   2.016   4.726   4.485 -0.4834  0.6353  0.5912
   10MOL   C929 9587   1.998   4.781   4.631  0.8199 -0.5003 -0.8182
   10MOL   C930 9588   1.995   4.680   4.741  0.2191  0.1484  0.0321
   10MOL   C931 9589   2.037   4.731   4.881  0.7778 -0.0457  0.7464
   10MOL   C932 9590   2.188   4.710   4.907 -0.4943  0.6520  0.4740
   10MOL   O933 9591   2.275   4.752   4.828  0.1718  0.5004 -0.1379
   10MOL   H934 9592   2.005   3.727   4.052  1.9177  0.1356  3.0981
   10MOL   H935 9593   2.154   3.643   4.057 -0.7718  0.9757  0.6872
   10MOL   H936 9594   2.252   3.785   3.878  1.1676  0.0831  0.8075
   10MOL   H937 9595   2.227   3.842   4.042  0.6056 -0.9897 -0.2765
   10MOL   H938 9596   2.040   3.918   3.802 -0.8180  0.1085  0.7438
   10MOL   H939 9597   2.003   3.947   3.961  0.1723 -2.0380  0.8755
   10MOL   H940 9598   2.239   4.050   3.806 -0.0293 -2.7945  0.9456
   10MOL   H941 9599   2.215   4.081   3.984 -1.7862  0.7025  0.2719
   10MOL   H942 9600   2.045   4.182   3.760 -0.3007 -0.2146  1.1206
   10MOL   H943 9601   2.164   4.276   3.847  0.6023 -0.7914  2.2864
   10MOL   H944 9602   2.041   4.212   4.069 -0.6080 -0.8235 -0.3939
   10MOL   H945 9603   1.913   4.149   3.976 -0.1738 -0.2335 -2.3236
   10MOL   H946 9604   1.838   4.355   3.894  1.0466  1.9975 -1.9079
   10MOL   H947 9605   1.996   4.427   3.911 -0.1618 -0.8156 -0.4668
   10MOL   H948 9606   1.994   4.437   4.142 -0.0156  2.0468  0.5460
   10MOL   H949 9607   1.845   4.345   4.168 -1.2817  2.3153  0.8052
   10MOL   H950 9608   1.864   4.630   4.053 -0.2194  0.0610 -0.3237
   10MOL   H951 9609   1.721   4.545   4.032  0.4693 -0.0478  0.3610
   10MOL   H952 9610   1.718   4.518   4.281 -0.8253  0.6614  0.0214
   10MOL   H953 9611   1.693   4.683   4.220  0.0991 -0.9222 -2.0774
   10MOL   H954 9612   2.101   4.660   4.469 -0.6073  0.6921 -0.3451
   10MOL   H955 9613   2.049   4.808   4.421  0.0143 -0.0762 -0.0756
   10MOL   H956 9614   1.905   4.838   4.632  0.6991 -0.7055 -0.3628
   10MOL   H957 9615   2.076   4.856   4.639 -3.0010  3.5868  0.1898
   10MOL   H958 9616   2.068   4.603   4.714  0.3786  0.1547  0.4453
   10MOL   H959 9617   1.900   4.628   4.753 -0.1432  0.7627 -0.2096
   10MOL   H960 9618   1.988   4.669   4.956  2.3653 -3.3968 -0.8780
   10MOL   H961 9619   2.001   4.834   4.889 -1.1432 -0.5617 -0.8862
   10MOL   H962 9620   2.203   4.657   5.001 -1.7212  0.6484  0.6680
   11MOL     O1 9621   6.699   3.845   7.365 -0.3789  0.2854  0.4008
   11MOL     C2 9622   6.726   3.931   7.260  0.2024 -0.5000 -0.2172
   11MOL     C3 9623   6.674   4.070   7.297  0.3698  0.2449  0.0721
   11MOL     C4 9624   6.669   4.173   7.177 -1.8515  0.1326 -0.0803
   11MOL     C5 9625   6.811   4.214   7.119  0.9054  0.0675  0.2583
   11MOL     C6 9626   6.881   4.308   7.214  0.4673  0.1020 -0.6207
   11MOL     C7 9627   7.017   4.363   7.172 -0.8155 -0.7321  0.1414
   11MOL     C8 9628   7.053   4.498   7.246 -0.3686  0.2178  0.1818
   11MOL     C9 9629   7.201   4.538   7.214 -0.6757  0.2055 -0.5501
   11MOL    C10 9630   7.249   4.659   7.294  0.0204  0.0123 -0.3671
   11MOL    C11 9631   7.391   4.713   7.252  0.0620 -0.1430  0.4618
   11MOL    O12 9632   7.479   4.602   7.260 -0.1704  0.3940 -0.2399
   11MOL    C13 9633   7.617   4.621   7.253 -0.1570 -0.1344  0.5040
   11MOL    O14 9634   7.670   4.728   7.246 -0.3122  0.2078 -0.1306
   11MOL    C15 9635   7.695   4.491   7.251  0.4288  0.6584  0.6011
   11MOL    C16 9636   7.710   4.438   7.099 -0.4790 -0.4484  0.6446
   11MOL    C17 9637   0.023   4.306   7.102  0.1013  0.2574  0.2302
   11MOL    C18 9638   7.702   4.193   7.154 -0.2601 -0.6827 -0.1909
   11MOL    C19 9639   7.593   4.153   7.048 -0.4291  0.0219  0.0280
   11MOL    O20 9640   7.631   4.097   6.947  0.0791 -0.8096 -1.1377
   11MOL    H21 9641   6.835   3.926   7.250  0.1342  1.3747 -2.2410
   11MOL    H22 9642   6.685   3.899   7.165  1.6426 -0.1433 -0.9647
   11MOL    H23 9643   6.737   4.113   7.375  0.0112  0.8612  0.0264
   11MOL    H24 9644   6.569   4.072   7.329  0.2078  1.7280 -0.4757
   11MOL    H25 9645   6.607   4.135   7.096  0.2009 -1.7456 -0.8530
   11MOL    H26 9646   6.620   4.266   7.207  1.4831  2.1828 -0.7137
   11MOL    H27 9647   6.787   4.275   7.032 -0.3411 -0.3327  0.3163
   11MOL    H28 9648   6.876   4.133   7.085 -1.2575 -1.5388 -0.1582
   11MOL    H29 9649   6.891   4.244   7.301  1.5243  0.4034 -0.5124
   11MOL    H30 9650   6.826   4.395   7.250  1.7345  1.6710 -2.3782
   11MOL    H31 9651   7.018   4.382   7.065 -0.9238  0.0790  0.2806
   11MOL    H32 9652   7.093   4.286   7.183  1.0902  0.8761 -1.3852
   11MOL    H33 9653   7.038   4.478   7.352 -4.4505 -0.8244 -0.4860
   11MOL    H34 9654   6.984   4.573   7.208 -0.5085  0.7491  1.4381
   11MOL    H35 9655   7.210   4.547   7.106  0.4918  2.1002 -0.3155
   11MOL    H36 9656   7.272   4.457   7.232  1.5391  1.4251 -3.4277
   11MOL    H37 9657   7.177   4.740   7.304 -0.7914 -0.8647  1.0756
   11MOL    H38 9658   7.267   4.634   7.398  0.3915  0.8243 -0.2310
   11MOL    H39 9659   7.426   4.775   7.335 -0.2323 -0.1050  0.5596
   11MOL    H40 9660   7.390   4.777   7.164 -1.0606  0.8934  1.1988
   11MOL    H41 9661   0.030   4.506   7.291  1.0455 -1.0482 -0.2470
   11MOL    H42 9662   7.648   4.411   7.308 -0.8740  0.2971 -0.9193
   11MOL    H43 9663   0.004   4.516   7.049 -1.1982  0.3737  1.0778
   11MOL    H44 9664   7.612   4.432   7.051  0.4270 -1.4003 -1.1481
   11MOL    H45 9665   0.100   4.317   7.179  1.2751 -1.0111 -0.7422
   11MOL    H46 9666   0.065   4.292   7.003  1.3669  0.7154  0.6865
   11MOL    H47 9667   7.657   4.215   7.251  2.2373  3.3087  0.2064
   11MOL    H48 9668   0.002   4.111   7.186  0.0259  0.3277  1.8867
   11MOL    H49 9669   6.778   3.825   7.414  0.3167  2.7075  0.3185
   11MOL    O50 9670   7.471   4.187   7.078  0.2835  0.1457  0.1178
   11MOL    C51 9671   7.369   4.121   6.997 -0.3055  0.3642 -0.1140
   11MOL    C52 9672   7.312   4.221   6.886  0.6346  0.2666 -0.1545
   11MOL    C53 9673   7.177   4.169   6.841 -0.2774 -0.0364  0.5141
   11MOL    C54 9674   7.136   4.244   6.713  0.2264  0.1235  0.7376
   11MOL    C55 9675   6.993   4.208   6.654 -0.0220  0.1302  0.2237
   11MOL    C56 9676   6.872   4.221   6.756 -0.8540  0.6535 -0.0701
   11MOL    C57 9677   6.737   4.204   6.689  0.0211  0.1713  0.9704
   11MOL    C58 9678   6.616   4.234   6.786  0.1274 -0.1658 -0.6209
   11MOL    C59 9679   6.482   4.266   6.712  0.4026  0.1985  0.0801
   11MOL    C60 9680   6.376   4.327   6.805  0.2473  1.1340 -0.0812
   11MOL    O61 9681   6.409   4.455   6.832 -0.4929 -0.7018  0.4803
   11MOL    C62 9682   6.319   4.546   6.869  0.5009  0.0216 -0.0287
   11MOL    O63 9683   6.199   4.528   6.858  0.5140 -0.5750 -0.0935
   11MOL    C64 9684   6.380   4.687   6.909 -0.2353  0.5065 -0.8788
   11MOL    C65 9685   6.519   4.683   6.972 -0.3593 -0.4053  0.2946
   11MOL    C66 9686   6.527   4.670   7.122 -0.0335  0.4559  0.5052
   11MOL    C67 9687   6.673   4.632   7.155 -0.0089  0.0186  0.2112
   11MOL    C68 9688   6.699   4.654   7.308 -0.5959 -0.3358 -0.0311
   11MOL    O69 9689   6.637   4.593   7.400 -0.9244  0.3714  0.1092
   11MOL    H70 9690   7.398   4.021   6.963  0.5854  1.0359 -1.3585
   11MOL    H71 9691   7.292   4.100   7.071 -0.8580 -0.3096 -0.8668
   11MOL    H72 9692   7.382   4.235   6.803  1.1697 -1.0951  0.0447
   11MOL    H73 9693   7.302   4.323   6.924  2.1757  1.3777 -2.6070
   11MOL    H74 9694   7.194   4.063   6.822  1.0145  0.1426  0.6319
   11MOL    H75 9695   7.105   4.198   6.918 -1.3916  1.9098 -1.2070
   11MOL    H76 9696   7.209   4.232   6.633 -1.7344 -0.2537 -1.0240
   11MOL    H77 9697   7.129   4.353   6.722  1.9677  0.6489 -3.1331
   11MOL    H78 9698   6.997   4.106   6.617 -0.3715 -0.2029  1.1086
   11MOL    H79 9699   6.975   4.269   6.565  0.4217  1.0324  0.7408
   11MOL    H80 9700   6.891   4.318   6.800  0.4939  0.8466 -1.0455
   11MOL    H81 9701   6.892   4.140   6.826 -0.8133  2.5055  2.1060
   11MOL    H82 9702   6.712   4.114   6.633 -4.6557  2.3270 -0.6983
   11MOL    H83 9703   6.730   4.273   6.605  0.1274 -0.8587  0.1142
   11MOL    H84 9704   6.652   4.319   6.845 -0.8540 -2.3759  3.3142
   11MOL    H85 9705   6.598   4.152   6.855  1.2099 -0.8699 -1.1531
   11MOL    H86 9706   6.493   4.338   6.631 -0.6336  0.1813 -0.0722
   11MOL    H87 9707   6.441   4.175   6.669  2.6367 -0.4279 -0.7930
   11MOL    H88 9708   6.351   4.270   6.894 -3.0507  1.3697 -0.8079
   11MOL    H89 9709   6.290   4.327   6.738 -0.3127  0.0858  0.6314
   11MOL    H90 9710   6.394   4.747   6.819  1.7730  2.4713  0.6691
   11MOL    H91 9711   6.312   4.746   6.971 -1.5411  1.4044 -3.0906
   11MOL    H92 9712   6.570   4.776   6.948 -1.2052 -0.7309 -3.1607
   11MOL    H93 9713   6.584   4.601   6.940  0.8409 -0.0352  1.7340
   11MOL    H94 9714   6.455   4.601   7.167 -0.0381  1.3088  1.8414
   11MOL    H95 9715   6.503   4.768   7.164 -2.8660  0.3890 -0.8343
   11MOL    H96 9716   6.739   4.690   7.090 -3.3240  1.8527 -1.6602
   11MOL    H97 9717   6.689   4.528   7.124  1.0016 -0.0916  1.0659
   11MOL    O98 9718   6.793   4.748   7.335  0.0078 -0.3156 -0.1014
   11MOL    C99 9719   6.813   4.792   7.476  0.1540  0.0291  0.3802
   11MOL   C100 9720   6.946   4.728   7.537 -0.1635 -0.1533  0.7025
   11MOL   C101 9721   6.984   4.771   7.669 -0.6204  0.0064  0.9271
   11MOL   C102 9722   6.886   4.740   0.029  0.7561  0.3525  0.0104
   11MOL   C103 9723   6.931   4.783   0.169 -0.0390  0.2466 -0.4435
   11MOL   C104 9724   6.835   4.735   0.279  0.2693 -0.5825  0.2356
   11MOL   C105 9725   6.873   4.793   0.418 -0.1956 -0.2528  0.2308
   11MOL   C106 9726   6.961   4.689   0.497 -0.0999 -0.0115 -0.5295
   11MOL   C107 9727   7.093   4.663   0.426 -1.1258  0.0026  0.1601
   11MOL   C108 9728   7.204   4.593   0.517  0.6777  0.1852 -0.3734
   11MOL   O109 9729   7.252   4.675   0.623  0.0819  0.2790  0.0781
   11MOL   C110 9730   7.310   4.620   0.733 -0.2360  0.3040 -0.8673
   11MOL   O111 9731   7.322   4.497   0.749  0.1605  0.3987  0.2593
   11MOL   C112 9732   7.354   4.711   0.847  0.3458  0.7590 -0.0547
   11MOL   C113 9733   7.501   4.752   0.835  0.3099 -0.3109 -0.2846
   11MOL   C114 9734   7.599   4.635   0.859 -0.1297 -0.4719  0.1100
   11MOL   C115 9735   7.740   4.694   0.867 -0.0469 -1.1966 -1.0362
   11MOL   C116 9736   0.079   4.574   0.854  0.6888  0.1444 -0.4703
   11MOL   O117 9737   0.069   4.471   0.923 -0.0530  0.1483  0.4481
   11MOL   H118 9738   6.814   4.901   7.469  2.7440 -0.0267 -0.9460
   11MOL   H119 9739   6.727   4.767   7.538  0.6853  2.0329  1.9799
   11MOL   H120 9740   7.031   4.739   7.470  0.0414  1.4327  1.2054
   11MOL   H121 9741   6.931   4.620   7.531  1.7476 -0.4503  1.0449
   11MOL   H122 9742   7.081   4.731   7.698  0.3490  1.4183 -0.3134
   11MOL   H123 9743   7.008   4.877   7.667  1.3873 -0.4604 -0.6808
   11MOL   H124 9744   6.867   4.633   0.029 -0.5753  0.5829  0.2474
   11MOL   H125 9745   6.796   4.793   7.762  1.4834  0.4879 -1.8762
   11MOL   H126 9746   6.946   4.890   0.184 -0.6968  0.3498 -0.4934
   11MOL   H127 9747   7.031   4.743   0.183  0.3156  1.0880 -0.5514
   11MOL   H128 9748   6.831   4.626   0.275  0.1605 -0.5612 -0.2449
   11MOL   H129 9749   6.739   4.776   0.248 -1.0999 -2.1730  2.2241
   11MOL   H130 9750   6.782   4.811   0.475 -0.3663 -2.1302  0.5863
   11MOL   H131 9751   6.925   4.888   0.410 -1.5221  0.4367 -0.4421
   11MOL   H132 9752   6.916   4.591   0.511 -0.1755 -0.0812 -1.2103
   11MOL   H133 9753   6.981   4.732   0.595 -0.5384  0.0952 -0.4861
   11MOL   H134 9754   7.073   4.594   0.344  0.2635  0.1250 -0.2923
   11MOL   H135 9755   7.137   4.748   0.374 -1.5634 -0.1407 -0.4692
   11MOL   H136 9756   7.282   4.562   0.448  0.2695  0.4654 -0.9562
   11MOL   H137 9757   7.174   4.498   0.561 -0.7077 -0.0528 -1.7812
   11MOL   H138 9758   7.290   4.798   0.857 -0.8009  0.0434 -1.0588
   11MOL   H139 9759   7.328   4.646   0.931 -1.0132 -0.6216 -1.5006
   11MOL   H140 9760   7.523   4.829   0.909 -1.5265 -0.6680  0.6604
   11MOL   H141 9761   7.514   4.797   0.736  1.9799  1.1350  0.5721
   11MOL   H142 9762   7.598   4.573   0.770  0.5149 -0.1568 -0.1195
   11MOL   H143 9763   7.577   4.570   0.944  1.5350  0.4590  1.3107
   11MOL   H144 9764   7.761   4.755   0.955  1.8639  0.1537 -2.3977
   11MOL   H145 9765   7.750   4.758   0.780 -1.3402  0.9592  0.3518
   11MOL   O146 9766   0.158   4.586   0.745 -0.4396 -0.4637  0.2990
   11MOL   C147 9767   0.264   4.493   0.724 -0.1391 -0.1482 -0.2020
   11MOL   C148 9768   0.288   4.460   0.576 -0.0335  0.6013 -0.5133
   11MOL   C149 9769   0.425   4.399   0.540 -0.2633 -0.1049  0.5370
   11MOL   C150 9770   0.456   4.279   0.626  0.5783 -0.6035  0.2625
   11MOL   C151 9771   0.572   4.198   0.570 -0.3814  0.4454  0.5042
   11MOL   C152 9772   0.616   4.091   0.679 -0.3613  0.3586 -0.8104
   11MOL   C153 9773   0.715   3.992   0.631 -0.0995  0.3448  0.2991
   11MOL   C154 9774   0.857   4.062   0.614  0.0925  0.3487 -0.4322
   11MOL   C155 9775   0.964   3.962   0.589 -0.4765 -0.1868 -0.4417
   11MOL   C156 9776   1.104   4.028   0.584 -0.5989  0.1799 -0.1049
   11MOL   O157 9777   1.159   4.067   0.705  0.1005 -0.4995  0.6938
   11MOL   C158 9778   1.220   4.187   0.717  1.3657 -0.2670 -0.5912
   11MOL   O159 9779   1.243   4.263   0.626 -0.5035 -0.3922 -0.5181
   11MOL   C160 9780   1.253   4.224   0.862 -0.0538  0.5993 -0.0961
   11MOL   C161 9781   1.318   4.120   0.959 -0.2605  0.4604 -0.1415
   11MOL   C162 9782   1.469   4.102   0.933  0.0687 -0.1576 -0.0144
   11MOL   C163 9783   1.546   3.992   1.018 -0.2227 -0.0898 -0.3284
   11MOL   C164 9784   1.488   3.853   0.996 -1.3733  0.1324  0.2344
   11MOL   O165 9785   1.438   3.794   1.091  0.3595 -0.1977  0.1457
   11MOL   H166 9786   0.356   4.544   0.752  0.0420 -2.3428  3.4474
   11MOL   H167 9787   0.253   4.407   0.789 -1.2400 -0.9030 -1.3644
   11MOL   H168 9788   0.297   4.552   0.518  1.1079  0.0215 -1.2683
   11MOL   H169 9789   0.208   4.400   0.534 -0.0592  0.2392  0.0545
   11MOL   H170 9790   0.435   4.371   0.435  0.7735  0.9718  0.3357
   11MOL   H171 9791   0.510   4.467   0.550  0.3142 -0.6993 -0.2916
   11MOL   H172 9792   0.365   4.221   0.639  0.5271 -0.8928 -1.2938
   11MOL   H173 9793   0.475   4.311   0.729  3.9146  0.4161 -0.5989
   11MOL   H174 9794   0.655   4.263   0.543  1.0326 -1.4385  0.2336
   11MOL   H175 9795   0.535   4.140   0.486 -0.8716 -2.6749  2.7768
   11MOL   H176 9796   0.531   4.033   0.715 -1.7571  0.7451 -3.3511
   11MOL   H177 9797   0.657   4.139   0.767  1.0537 -2.4798  0.1083
   11MOL   H178 9798   0.683   3.935   0.544 -1.9451  0.6056  0.7919
   11MOL   H179 9799   0.716   3.914   0.708 -0.7717  3.0693  3.1844
   11MOL   H180 9800   0.883   4.122   0.700  2.0420  0.2232 -0.9243
   11MOL   H181 9801   0.841   4.138   0.538  2.1062  2.2469  0.9964
   11MOL   H182 9802   0.961   3.884   0.664  1.6081  0.3567  0.2421
   11MOL   H183 9803   0.940   3.918   0.492 -0.6125 -0.1147 -0.4409
   11MOL   H184 9804   1.095   4.113   0.515  0.1599 -0.5443 -1.1218
   11MOL   H185 9805   1.176   3.962   0.535 -1.2897 -2.1351  1.9127
   11MOL   H186 9806   1.306   4.319   0.860 -0.3502  0.8039  1.2310
   11MOL   H187 9807   1.159   4.243   0.914 -1.3384  0.0434 -2.1854
   11MOL   H188 9808   1.263   4.027   0.945  0.6704 -0.3452  1.3657
   11MOL   H189 9809   1.295   4.134   1.065 -0.9574 -0.2474 -0.1981
   11MOL   H190 9810   1.512   4.202   0.945  0.2045  0.2505 -3.5729
   11MOL   H191 9811   1.487   4.081   0.828 -4.0247  0.2808 -0.9051
   11MOL   H192 9812   1.546   4.023   1.122  2.8441 -0.8396 -0.0564
   11MOL   H193 9813   1.648   3.996   0.979 -0.1373  0.4913 -0.0546
   11MOL   O194 9814   1.496   3.814   0.868  0.0623  0.2411  0.1023
   11MOL   C195 9815   1.445   3.686   0.827  0.4903  0.4166 -0.5720
   11MOL   C196 9816   1.439   3.682   0.671  0.3010  0.4130 -0.0983
   11MOL   C197 9817   1.579   3.681   0.605 -0.4494 -0.0396  0.3243
   11MOL   C198 9818   1.573   3.622   0.468 -0.7233  0.3551 -0.5265
   11MOL   C199 9819   1.692   3.655   0.378 -0.4435 -0.3000 -0.2609
   11MOL   C200 9820   1.662   3.634   0.220 -0.3636 -0.2259  0.4157
   11MOL   C201 9821   1.623   3.495   0.176 -0.1005 -0.5549  0.6508
   11MOL   C202 9822   1.610   3.488   0.026  0.3044  0.3608 -0.4426
   11MOL   C203 9823   1.646   3.359   7.730 -0.3994  0.1179 -0.0419
   11MOL   C204 9824   1.616   3.350   7.579  0.2874 -0.5291  0.2787
   11MOL   O205 9825   1.475   3.314   7.559 -0.3015  0.1025  0.1845
   11MOL   C206 9826   1.406   3.372   7.466  0.0237  0.0418 -0.5590
   11MOL   O207 9827   1.459   3.440   7.379  0.4379 -0.1510  0.2101
   11MOL   C208 9828   1.260   3.336   7.475  0.1026  0.2069  0.5181
   11MOL   C209 9829   1.194   3.372   7.614  0.2544  0.6375 -0.3989
   11MOL   C210 9830   1.191   3.520   7.646 -0.5573  0.8905 -0.1279
   11MOL   C211 9831   1.161   3.559   0.022  0.2029 -0.2148  0.8783
   11MOL   C212 9832   1.157   3.713   0.053  0.0989  0.0721 -0.4026
   11MOL   O213 9833   1.079   3.792   0.004  0.5112 -0.0173  0.3194
   11MOL   H214 9834   1.512   3.609   0.865  0.3625 -0.3003 -1.7822
   11MOL   H215 9835   1.356   3.661   0.885  1.8025  0.8405  1.7049
   11MOL   H216 9836   1.391   3.777   0.645  0.6965  1.2839  2.2732
   11MOL   H217 9837   1.384   3.592   0.646  1.7808  0.1297 -2.5310
   11MOL   H218 9838   1.637   3.773   0.610  0.9512 -0.9685  1.7749
   11MOL   H219 9839   1.639   3.612   0.665 -0.6788 -3.5155 -3.2324
   11MOL   H220 9840   1.485   3.659   0.416  0.4334  2.9696 -0.6901
   11MOL   H221 9841   1.548   3.517   0.477  1.9750 -0.1870  1.3386
   11MOL   H222 9842   1.786   3.612   0.412 -0.4102  0.0252  0.0612
   11MOL   H223 9843   1.705   3.762   0.394 -1.6071 -0.1360 -0.3804
   11MOL   H224 9844   1.756   3.661   0.172 -0.2704 -1.6127 -0.2219
   11MOL   H225 9845   1.584   3.702   0.186 -0.0347  0.4540  1.0056
   11MOL   H226 9846   1.534   3.461   0.229  0.4572 -0.0941  1.9215
   11MOL   H227 9847   1.699   3.421   0.203 -0.1815 -0.4981  1.0436
   11MOL   H228 9848   1.671   3.566   7.745  1.4962 -0.8462 -0.9338
   11MOL   H229 9849   1.507   3.518   0.008 -0.2409 -0.3389  1.3668
   11MOL   H230 9850   1.753   3.342   7.745 -0.7011  1.0180  3.5487
   11MOL   H231 9851   1.595   3.279   0.019  0.5126 -0.5773 -0.1910
   11MOL   H232 9852   1.691   3.289   7.529  1.9885  0.5978  1.4082
   11MOL   H233 9853   1.628   3.450   7.539 -1.6430 -0.2687  0.2818
   11MOL   H234 9854   1.226   3.389   7.386 -1.2422  0.3556  1.1019
   11MOL   H235 9855   1.243   3.230   7.458 -0.9129  0.4445 -0.0025
   11MOL   H236 9856   1.249   3.321   7.693  1.2531 -0.2893 -1.6900
   11MOL   H237 9857   1.091   3.337   7.619 -0.2870  2.1874 -0.2469
   11MOL   H238 9858   1.130   3.574   7.573 -1.5398 -1.1631 -0.8643
   11MOL   H239 9859   1.288   3.565   7.622 -0.3319  1.0028  0.9600
   11MOL   H240 9860   1.231   3.510   0.090  0.5363 -1.4938 -0.3618
   11MOL   H241 9861   1.064   3.518   0.051  1.0964 -3.4381 -0.4802
   11MOL   O242 9862   1.259   3.746   0.131 -0.4886  0.1105  0.4143
   11MOL   C243 9863   1.258   3.886   0.162  0.2622 -0.1798 -0.2255
   11MOL   C244 9864   1.405   3.923   0.210  0.0592  0.2863 -0.3614
   11MOL   C245 9865   1.424   4.040   0.302 -0.1252 -0.2397  0.1061
   11MOL   C246 9866   1.571   4.068   0.339 -0.1121 -0.3501  0.4591
   11MOL   C247 9867   1.594   4.182   0.438  0.0222 -0.5842  0.5521
   11MOL   C248 9868   1.736   4.173   0.487  0.2595  0.1237 -0.3529
   11MOL   C249 9869   1.788   4.291   0.568 -0.0063  0.3288 -0.6826
   11MOL   C250 9870   1.730   4.318   0.709 -0.2752  0.6612  0.3756
   11MOL   C251 9871   1.810   4.420   0.790  0.2693 -0.1621 -0.3809
   11MOL   C252 9872   1.737   4.461   0.914 -0.0014 -0.7924  0.1164
   11MOL   O253 9873   1.746   4.360   1.011  0.0762 -0.2759  0.3387
   11MOL   C254 9874   1.678   4.387   1.128 -0.1208 -0.1779  0.5317
   11MOL   O255 9875   1.633   4.496   1.153 -0.2453  0.0605 -0.7691
   11MOL   C256 9876   1.685   4.278   1.227 -0.5787 -0.2015  0.1087
   11MOL   C257 9877   1.558   4.257   1.308  0.4694 -0.2747 -0.4676
   11MOL   C258 9878   1.569   4.125   1.395 -0.1315  0.0488  0.3326
   11MOL   C259 9879   1.452   4.096   1.489  0.5684  0.0841  0.1947
   11MOL   C260 9880   1.334   4.032   1.412  0.4518  0.0580 -0.2465
   11MOL   O261 9881   1.256   4.103   1.344  0.5011 -0.0088 -0.2821
   11MOL   H262 9882   1.231   3.946   0.075  0.1907 -0.0168 -0.0894
   11MOL   H263 9883   1.181   3.899   0.238  0.1491  1.4214 -0.5885
   11MOL   H264 9884   1.476   3.937   0.128 -1.2214 -0.3188 -1.6009
   11MOL   H265 9885   1.443   3.841   0.270  2.6450 -0.0762 -2.3983
   11MOL   H266 9886   1.363   4.108   0.244 -0.9054 -0.9865  0.0318
   11MOL   H267 9887   1.371   4.026   0.396 -0.2093 -0.6821 -0.0029
   11MOL   H268 9888   1.632   4.081   0.250  2.2933 -0.7353  1.9994
   11MOL   H269 9889   1.618   3.983   0.388  0.9778 -1.0647 -1.7713
   11MOL   H270 9890   1.523   4.169   0.520  1.5161 -0.4497  1.8930
   11MOL   H271 9891   1.568   4.276   0.388  1.0127 -0.2111  0.7359
   11MOL   H272 9892   1.801   4.147   0.404 -0.2553  0.8175 -0.9778
   11MOL   H273 9893   1.731   4.087   0.554 -0.3080  1.5255  1.4693
   11MOL   H274 9894   1.772   4.382   0.511 -1.3214  0.0099 -0.8585
   11MOL   H275 9895   1.895   4.273   0.571 -0.5494 -3.6269 -1.8721
   11MOL   H276 9896   1.727   4.219   0.754 -1.7186 -0.2840 -1.7474
   11MOL   H277 9897   1.631   4.356   0.684 -1.1824 -1.5630  0.4610
   11MOL   H278 9898   1.907   4.383   0.821  1.2205  0.5629 -2.3948
   11MOL   H279 9899   1.830   4.503   0.722 -0.2116 -0.3255 -0.7324
   11MOL   H280 9900   1.632   4.468   0.884  0.0139  1.1760  0.4499
   11MOL   H281 9901   1.778   4.553   0.955  0.4899 -1.2075  0.5708
   11MOL   H282 9902   1.702   4.190   1.165  1.0798 -1.2373  1.9967
   11MOL   H283 9903   1.769   4.292   1.295  1.0557 -1.2112 -1.6491
   11MOL   H284 9904   1.470   4.264   1.245 -0.4434  2.5228  1.0236
   11MOL   H285 9905   1.560   4.348   1.369 -0.2743  0.9102 -2.1677
   11MOL   H286 9906   1.657   4.128   1.459  0.6195 -0.0084 -0.6819
   11MOL   H287 9907   1.591   4.033   1.339  0.9713  0.9752 -0.7908
   11MOL   H288 9908   1.413   4.189   1.530 -4.0672 -1.7926  0.3219
   11MOL   H289 9909   1.477   4.031   1.572 -0.1598 -0.6781 -0.1747
   11MOL   O290 9910   1.327   3.898   1.430  0.4308 -0.3247 -0.2808
   11MOL   C291 9911   1.221   3.832   1.368  0.2944 -0.2266  0.2398
   11MOL   C292 9912   1.246   3.680   1.356 -0.6439  0.8921  0.6274
   11MOL   C293 9913   1.219   3.589   1.481 -0.0147 -0.3922  0.2743
   11MOL   C294 9914   1.247   3.444   1.450 -0.4488 -0.1177  0.6055
   11MOL   C295 9915   1.259   3.362   1.579 -0.5635  0.4654 -0.5853
   11MOL   C296 9916   1.270   3.208   1.561 -0.2176  0.1368 -0.1605
   11MOL   C297 9917   1.125   3.148   1.582 -0.1277  0.0583  0.4497
   11MOL   C298 9918   1.074   3.136   1.733  0.0508  1.0756  0.5090
   11MOL   C299 9919   0.932   3.091   1.739  0.3930 -0.0708  0.8923
   11MOL   C300 9920   0.872   3.117   1.881  0.3937 -0.4995 -0.2835
   11MOL   O301 9921   0.849   3.252   1.892  0.4764  0.1192 -0.1698
   11MOL   C302 9922   0.816   3.310   2.018  0.3161 -0.2590  0.1359
   11MOL   O303 9923   0.802   3.243   2.120 -0.7852  0.2866 -0.0354
   11MOL   C304 9924   0.823   3.468   2.016 -0.9214  0.3076 -0.3163
   11MOL   C305 9925   0.727   3.523   1.914 -0.6698 -0.5517 -0.0501
   11MOL   C306 9926   0.750   3.665   1.858 -0.6280  0.4853 -0.0284
   11MOL   C307 9927   0.635   3.714   1.758 -0.2825  0.7942  0.6023
   11MOL   C308 9928   0.503   3.761   1.819  0.2271 -0.5825 -0.5111
   11MOL   O309 9929   0.485   3.771   1.940 -0.1952  0.6826 -0.3971
   11MOL   H310 9930   1.133   3.854   1.428  0.1918  1.5539 -0.5316
   11MOL   H311 9931   1.193   3.860   1.267 -0.1675 -3.0136 -0.4382
   11MOL   H312 9932   1.351   3.667   1.329 -1.2701 -0.2869 -1.3372
   11MOL   H313 9933   1.200   3.637   1.268 -1.0863 -1.7204  2.0730
   11MOL   H314 9934   1.299   3.613   1.552 -1.1747  2.1181  0.7894
   11MOL   H315 9935   1.125   3.597   1.535  1.6157  0.0148  3.1605
   11MOL   H316 9936   1.350   3.431   1.415  0.2419  2.6304  1.5100
   11MOL   H317 9937   1.174   3.413   1.375 -0.1673  1.2716 -0.2739
   11MOL   H318 9938   1.178   3.389   1.647  1.2681  3.5851  0.4643
   11MOL   H319 9939   1.342   3.396   1.639 -0.3647 -1.1248  0.0602
   11MOL   H320 9940   1.346   3.160   1.622 -0.2219 -1.2265 -1.2149
   11MOL   H321 9941   1.309   3.174   1.465 -0.0343 -1.0197  0.3174
   11MOL   H322 9942   1.114   3.048   1.540 -1.3025  0.6743 -0.7125
   11MOL   H323 9943   1.058   3.210   1.523  0.3030 -0.0302 -0.1338
   11MOL   H324 9944   1.084   3.224   1.795 -3.8575  1.2094  1.1017
   11MOL   H325 9945   1.134   3.054   1.772 -0.8334  0.3233  0.3310
   11MOL   H326 9946   0.865   3.148   1.675 -1.2917 -0.5296  2.2043
   11MOL   H327 9947   0.921   2.985   1.716  0.1010 -0.0313  0.8442
   11MOL   H328 9948   0.944   3.086   1.957 -0.8831 -0.9139  0.7652
   11MOL   H329 9949   0.775   3.069   1.891 -0.9726  2.0509 -0.8010
   11MOL   H330 9950   0.797   3.504   2.115 -2.2706 -1.0771 -0.1518
   11MOL   H331 9951   0.924   3.497   1.985 -0.4132 -0.0191  0.9962
   11MOL   H332 9952   0.626   3.512   1.954  0.5352 -1.8353  2.7875
   11MOL   H333 9953   0.734   3.453   1.831 -0.7735 -0.0510 -0.4771
   11MOL   H334 9954   0.845   3.668   1.804 -0.7689  2.0952 -0.1989
   11MOL   H335 9955   0.749   3.735   1.941  2.5103 -1.0237  1.3549
   11MOL   H336 9956   0.611   3.639   1.683 -0.1970  0.2020  1.1632
   11MOL   H337 9957   0.680   3.803   1.714  0.0818 -0.8075 -2.3875
   11MOL   O338 9958   0.406   3.779   1.727 -0.0378  0.1541  0.3093
   11MOL   C339 9959   0.270   3.800   1.764  0.0754 -0.2928 -0.3186
   11MOL   C340 9960   0.192   3.664   1.766 -0.1422  0.7334 -0.2111
   11MOL   C341 9961   0.048   3.682   1.808 -0.4514 -0.0862  0.4194
   11MOL   C342 9962   7.751   3.537   1.786 -0.5048 -0.1763  0.4406
   11MOL   C343 9963   7.597   3.540   1.798  0.1976  0.4009 -0.0164
   11MOL   C344 9964   7.525   3.409   1.774 -0.7085  0.0517 -0.0076
   11MOL   C345 9965   7.376   3.417   1.805 -0.5048 -0.1344 -0.0199
   11MOL   C346 9966   7.297   3.297   1.758  0.0503  0.5640 -0.3055
   11MOL   C347 9967   7.295   3.283   1.605 -0.1687 -0.1338  0.2515
   11MOL   C348 9968   7.200   3.174   1.551 -0.2646 -0.5420  0.4106
   11MOL   O349 9969   7.064   3.223   1.578  0.3754  0.3889 -0.0898
   11MOL   C350 9970   6.958   3.148   1.544 -0.8665  0.1061 -0.1418
   11MOL   O351 9971   6.964   3.045   1.480  0.1016 -0.1088  0.2289
   11MOL   C352 9972   6.827   3.197   1.611  0.2477 -0.8521 -0.0265
   11MOL   C353 9973   6.705   3.098   1.602 -0.4326  0.0753  0.0556
   11MOL   C354 9974   6.730   2.971   1.682 -0.4814  0.5832  0.7138
   11MOL   C355 9975   6.613   2.877   1.691  0.4884  0.0624  0.7341
   11MOL   C356 9976   6.510   2.924   1.789 -0.0489 -0.5112  0.4350
   11MOL   O357 9977   6.549   2.949   1.903 -0.3975 -0.3219  0.3531
   11MOL   H358 9978   0.263   3.838   1.866 -0.9287  1.3407 -0.9775
   11MOL   H359 9979   0.233   3.874   1.693  0.0431  0.4651  0.4731
   11MOL   H360 9980   0.246   3.606   1.841 -2.6406 -0.4698  0.6864
   11MOL   H361 9981   0.207   3.625   1.666 -0.8089 -0.5860  0.2046
   11MOL   H362 9982   0.038   3.720   1.910  2.1502  1.8048  0.0075
   11MOL   H363 9983   0.011   3.747   1.728  1.5779 -1.3649 -1.6153
   11MOL   H364 9984   0.031   3.468   1.857  3.0274  0.0390 -1.4446
   11MOL   H365 9985   0.007   3.497   1.687 -2.5512 -1.7536  0.6311
   11MOL   H366 9986   7.560   3.612   1.725  0.9139 -0.9167 -1.6833
   11MOL   H367 9987   7.579   3.586   1.896 -0.9460 -2.2416  1.0356
   11MOL   H368 9988   7.579   3.336   1.834 -0.1437 -0.8214 -1.5695
   11MOL   H369 9989   7.549   3.379   1.672 -0.8755  3.6512 -1.1956
   11MOL   H370 9990   7.328   3.506   1.765 -0.4016 -0.8284 -1.7345
   11MOL   H371 9991   7.381   3.409   1.914 -1.8746 -0.6469  0.0190
   11MOL   H372 9992   7.198   3.279   1.800  0.8205 -1.8992  0.5488
   11MOL   H373 9993   7.342   3.206   1.798 -0.5892  0.2433 -0.3256
   11MOL   H374 9994   7.267   3.382   1.571  2.1437  0.3050 -0.4677
   11MOL   H375 9995   7.399   3.263   1.578  0.7417  0.8448  2.8860
   11MOL   H376 9996   7.224   3.078   1.598  1.9579  0.3438  1.1709
   11MOL   H377 9997   7.224   3.163   1.445 -2.2365 -1.1693  0.0103
   11MOL   H378 9998   6.837   3.217   1.718 -0.7399 -3.5677  0.6155
   11MOL   H379 9999   6.795   3.283   1.551 -3.4829 -0.3960  2.4324
   11MOL   H38010000   6.683   3.079   1.497 -2.7447  0.1098  0.4979
   11MOL   H38110001   6.627   3.168   1.632  0.9698  2.4435 -1.5746
   11MOL   H38210002   6.761   3.009   1.779 -0.0017 -0.5774  1.0237
   11MOL   H38310003   6.817   2.913   1.649 -1.7692  0.0299 -1.8961
   11MOL   H38410004   6.629   2.771   1.710  2.7646  0.0080 -1.2279
   11MOL   H38510005   6.566   2.871   1.593 -0.1559 -2.5446  1.1598
   11MOL   O38610006   6.384   2.939   1.733 -0.1848  0.5535  0.0526
   11MOL   C38710007   6.278   2.980   1.815  0.5822 -0.3167  0.2225
   11MOL   C38810008   6.141   2.986   1.736 -0.5364  0.1651  0.0419
   11MOL   C38910009   6.136   3.102   1.641 -0.0415  0.4998  0.2495
   11MOL   C39010010   6.111   3.240   1.713  0.5971  0.9560  0.0353
   11MOL   C39110011   6.091   3.352   1.613  0.4211  0.0631 -0.4306
   11MOL   C39210012   6.051   3.491   1.681  0.3710  0.2482  0.0246
   11MOL   C39310013   6.098   3.609   1.596  0.3996 -0.2570 -0.2559
   11MOL   C39410014   6.244   3.641   1.633 -0.0406  0.1742 -0.7354
   11MOL   C39510015   6.282   3.778   1.576 -0.7243 -0.2135 -0.4641
   11MOL   C39610016   6.239   3.801   1.436  0.3782 -0.4699  0.3609
   11MOL   O39710017   6.316   3.705   1.359  0.0369  0.2916 -0.1237
   11MOL   C39810018   6.271   3.672   1.227  0.2944  0.1792 -0.9991
   11MOL   O39910019   6.162   3.689   1.179 -0.4216  0.4381 -0.2701
   11MOL   C40010020   6.380   3.594   1.150 -0.0149 -0.0191 -0.0200
   11MOL   C40110021   6.391   3.440   1.167 -0.1947  0.4817  0.2226
   11MOL   C40210022   6.420   3.408   1.312  0.0204 -0.2559 -0.2088
   11MOL   C40310023   6.442   3.258   1.346  0.0663 -0.5607  0.3509
   11MOL   C40410024   6.321   3.162   1.321 -0.4423  0.2431 -0.3152
   11MOL   O40510025   6.209   3.208   1.304  0.3590  0.0240 -0.9330
   11MOL   H40610026   6.285   2.912   1.900 -2.3938 -0.3843  0.4827
   11MOL   H40710027   6.298   3.078   1.860  0.4257 -1.0769  1.9830
   11MOL   H40810028   6.059   2.992   1.808  1.0084  2.6852  1.7071
   11MOL   H40910029   6.123   2.894   1.682  1.6958  1.4279 -3.0069
   11MOL   H41010030   6.234   3.103   1.593 -0.4389  0.1319 -0.5811
   11MOL   H41110031   6.061   3.084   1.565  0.6865 -2.1516  0.1135
   11MOL   H41210032   6.182   3.258   1.795 -1.5997  0.1376  2.1811
   11MOL   H41310033   6.016   3.220   1.763  0.1124 -0.2966 -1.3553
   11MOL   H41410034   6.012   3.332   1.540 -0.5940 -2.7390  1.3440
   11MOL   H41510035   6.181   3.363   1.553  0.1065  0.0480 -0.9152
   11MOL   H41610036   6.104   3.493   1.776  1.7238 -0.1794 -0.7017
   11MOL   H41710037   5.945   3.481   1.702  0.6874 -0.6525  1.2461
   11MOL   H41810038   6.039   3.700   1.604  0.9752 -0.0403  1.6078
   11MOL   H41910039   6.080   3.583   1.491  0.9201  0.6922 -0.5876
   11MOL   H42010040   6.312   3.561   1.604  1.6951  1.9158 -1.5932
   11MOL   H42110041   6.243   3.650   1.742 -1.1759 -1.4829 -0.5774
   11MOL   H42210042   6.229   3.854   1.633  1.1286  1.1916 -0.5986
   11MOL   H42310043   6.389   3.798   1.583 -0.8783  0.6892 -0.7562
   11MOL   H42410044   6.274   3.897   1.396  0.7715 -0.5974  0.4057
   11MOL   H42510045   6.131   3.792   1.418  0.5301 -2.3409  0.3942
   11MOL   H42610046   6.370   3.607   1.042 -0.8780 -1.7563 -0.1679
   11MOL   H42710047   6.481   3.630   1.168 -0.7160  1.3689  1.2014
   11MOL   H42810048   6.475   3.395   1.114 -0.2359  0.9349 -0.2231
   11MOL   H42910049   6.303   3.394   1.122 -0.2009  1.1838 -0.4775
   11MOL   H43010050   6.345   3.443   1.383 -0.6033  0.0281 -1.0089
   11MOL   H43110051   6.509   3.471   1.325 -1.5084  2.1661 -1.1172
   11MOL   H43210052   6.464   3.250   1.452 -0.9751  1.1168  0.7097
   11MOL   H43310053   6.525   3.221   1.286 -0.6536 -0.0737 -0.9676
   11MOL   O43410054   6.354   3.031   1.332 -0.0365 -0.1657  0.3265
   11MOL   C43510055   6.260   2.926   1.319  0.0778  0.1681 -0.2955
   11MOL   C43610056   6.211   2.905   1.176 -0.0725  0.2298  0.6658
   11MOL   C43710057   6.325   2.867   1.073  0.8237  0.1654 -0.8894
   11MOL   C43810058   6.267   2.831   0.936 -0.3997 -0.4064 -0.3987
   11MOL   C43910059   6.378   2.764   0.848 -0.2142  0.6061  0.4433
   11MOL   C44010060   6.320   2.701   0.722 -0.0867 -0.4597 -0.2027
   11MOL   C44110061   6.259   2.556   0.728  0.4220 -0.4490 -0.8393
   11MOL   C44210062   6.312   2.458   0.613 -1.1143 -0.7987 -0.2545
   11MOL   C44310063   6.266   2.309   0.607  0.4570 -0.1666  0.0358
   11MOL   C44410064   6.113   2.285   0.623 -0.0467  0.0940 -0.0956
   11MOL   O44510065   6.093   2.318   0.761  0.2822 -0.3213 -0.0592
   11MOL   C44610066   5.969   2.327   0.808  0.2294 -0.2530 -0.2401
   11MOL   O44710067   5.868   2.295   0.755  0.4680  0.1109  0.4290
   11MOL   C44810068   5.963   2.366   0.951  0.2058 -0.7324  0.2118
   11MOL   C44910069   5.964   2.519   0.973 -0.2696  0.4489 -0.4060
   11MOL   C45010070   5.828   2.577   0.924  0.5230 -0.5852 -0.1350
   11MOL   C45110071   5.836   2.730   0.942 -0.1873  0.3777 -0.7942
   11MOL   C45210072   5.829   2.777   1.085 -0.1613 -0.3270 -0.8575
   11MOL   O45310073   5.774   2.717   1.175 -0.3340 -0.1659 -0.2676
   11MOL   H45410074   6.305   2.834   1.359 -1.2899 -0.3337  0.1308
   11MOL   H45510075   6.180   2.946   1.390  0.5082 -2.4054  0.9948
   11MOL   H45610076   6.164   2.998   1.143 -0.7607 -0.1841  0.4616
   11MOL   H45710077   6.142   2.820   1.169  0.8243 -0.3230 -1.9395
   11MOL   H45810078   6.398   2.946   1.055  1.5892 -1.1098 -3.5808
   11MOL   H45910079   6.379   2.780   1.109  0.6908 -0.0748 -1.2720
   11MOL   H46010080   6.229   2.918   0.883  1.4925  0.4361 -0.4064
   11MOL   H46110081   6.189   2.756   0.950 -0.3682 -0.1656  1.1806
   11MOL   H46210082   6.432   2.690   0.906 -0.4840 -1.5850 -2.0138
   11MOL   H46310083   6.458   2.832   0.820  0.6380 -0.2537  0.7796
   11MOL   H46410084   6.406   2.698   0.655 -0.0626  1.4427 -0.2857
   11MOL   H46510085   6.256   2.767   0.663 -0.6263 -0.2681  0.5827
   11MOL   H46610086   6.151   2.567   0.719  0.2937 -2.2264 -1.6800
   11MOL   H46710087   6.281   2.511   0.824  0.4251  0.8662 -0.2132
   11MOL   H46810088   6.420   2.454   0.627 -1.1948  0.6908  1.0534
   11MOL   H46910089   6.300   2.503   0.515 -1.6421 -0.9541 -0.2635
   11MOL   H47010090   6.299   2.267   0.512 -1.7288  2.8049 -2.1643
   11MOL   H47110091   6.320   2.253   0.682  0.9540  1.9342  1.2974
   11MOL   H47210092   6.103   2.179   0.597  0.2618 -0.5254  2.1374
   11MOL   H47310093   6.067   2.349   0.548  0.2648  1.0604  0.5310
   11MOL   H47410094   5.867   2.330   0.988  0.4141 -0.4792  1.0139
   11MOL   H47510095   6.050   2.324   1.002 -0.1520 -0.5485  0.9708
   11MOL   H47610096   6.052   2.562   0.924 -0.3326  0.3919 -0.5695
   11MOL   H47710097   5.980   2.537   1.080  1.3874  1.1291 -0.7538
   11MOL   H47810098   5.734   2.539   0.966  0.5656 -1.0421 -0.4595
   11MOL   H47910099   5.831   2.561   0.816 -0.1667 -1.7343  0.0097
   11MOL   H48010100   5.770   2.796   0.885 -1.0628  1.8854  1.9143
   11MOL   H48110101   5.935   2.765   0.912  0.1801 -1.7719 -2.2030
   11MOL   O48210102   5.882   2.896   1.098  0.2560 -0.2283 -0.3684
   11MOL   C48310103   5.876   2.961   1.228 -0.7933 -0.1635 -0.0648
   11MOL   C48410104   5.761   3.066   1.237 -0.5040  0.6502  0.2284
   11MOL   C48510105   5.729   3.121   1.372  0.3666 -0.1950 -0.0647
   11MOL   C48610106   5.590   3.177   1.378  0.6562  0.4003  0.1266
   11MOL   C48710107   5.548   3.222   1.514 -0.0835  0.0186  0.5299
   11MOL   C48810108   5.424   3.311   1.510 -0.9664  0.8760  0.3774
   11MOL   C48910109   5.369   3.309   1.655 -0.0730  0.5977 -0.4248
   11MOL   C49010110   5.260   3.197   1.681  0.0959  0.2171 -0.3399
   11MOL   C49110111   5.255   3.145   1.823 -0.3601 -0.2352 -0.2129
   11MOL   C49210112   5.197   3.002   1.832 -0.7789  0.4277  0.4336
   11MOL   O49310113   5.056   3.008   1.814  0.1910  0.0400 -0.1974
   11MOL   C49410114   4.997   2.894   1.788  0.2176 -0.6963 -0.1691
   11MOL   O49510115   5.044   2.777   1.762  0.3901 -0.6305  0.2954
   11MOL   C49610116   4.844   2.916   1.805  0.0907 -0.4094 -0.4537
   11MOL   C49710117   4.754   2.818   1.735  0.2449  1.6095 -0.4541
   11MOL   C49810118   4.725   2.674   1.789  0.1080  0.4930 -0.1640
   11MOL   C49910119   4.626   2.598   1.701 -0.2866  0.0410  0.6309
   11MOL   C50010120   4.600   2.453   1.764 -0.7504  0.4899 -0.0550
   11MOL   O50110121   4.605   2.440   1.890  0.3589  0.1436 -0.2007
   11MOL   H50210122   5.868   2.880   1.301 -0.9762 -0.2682 -0.1982
   11MOL   H50310123   5.970   3.013   1.249  0.4785 -2.0790 -0.8121
   11MOL   H50410124   5.675   3.025   1.186  0.4765 -1.9030  0.5400
   11MOL   H50510125   5.763   3.152   1.170 -2.5054 -0.4694 -1.3106
   11MOL   H50610126   5.735   3.042   1.448  1.4575  2.0304  2.2441
   11MOL   H50710127   5.798   3.202   1.394 -0.4388  0.4309  0.2053
   11MOL   H50810128   5.523   3.105   1.332 -1.1860  0.1786  3.0283
   11MOL   H50910129   5.580   3.262   1.310 -3.1347  0.8408  1.1475
   11MOL   H51010130   5.621   3.284   1.566 -0.9971  1.1853  0.4381
   11MOL   H51110131   5.533   3.136   1.580  0.2381  0.0999  0.7111
   11MOL   H51210132   5.351   3.281   1.435 -1.2511 -0.0659  1.0214
   11MOL   H51310133   5.453   3.414   1.490 -0.4423  0.6417 -0.0769
   11MOL   H51410134   5.321   3.405   1.672  2.8170  1.8493  1.0684
   11MOL   H51510135   5.446   3.322   1.731  0.6281  2.5421 -1.4124
   11MOL   H51610136   5.271   3.123   1.601  0.1797  0.1030 -0.2234
   11MOL   H51710137   5.172   3.254   1.650  3.3363  5.3264 -0.8489
   11MOL   H51810138   5.347   3.140   1.882 -0.1763  1.9358 -0.2752
   11MOL   H51910139   5.197   3.212   1.887  1.6663  0.3073  1.1118
   11MOL   H52010140   5.223   2.952   1.925 -0.9511 -0.6185 -0.0815
   11MOL   H52110141   5.234   2.943   1.749 -1.1031  0.1315  0.4958
   11MOL   H52210142   4.825   2.924   1.912  0.9350 -0.6289 -0.2790
   11MOL   H52310143   4.813   3.013   1.768 -1.5344  0.2318  2.4818
   11MOL   H52410144   4.810   2.800   1.643  0.2844 -2.0589  0.2454
   11MOL   H52510145   4.661   2.862   1.697  0.0032  0.9471 -0.6271
   11MOL   H52610146   4.667   2.688   1.880  1.1212 -0.1084  0.5800
   11MOL   H52710147   4.814   2.618   1.817  0.5829  1.2838 -0.0735
   11MOL   H52810148   4.646   2.593   1.594 -0.4634 -0.1636  0.6072
   11MOL   H52910149   4.538   2.660   1.719  0.1799  0.1891  2.4939
   11MOL   O53010150   4.582   2.350   1.673  0.6839  0.3167 -0.2063
   11MOL   C53110151   4.552   2.219   1.720  0.0572  0.0756 -0.2081
   11MOL   C53210152   4.601   2.122   1.607  0.7950 -0.8143 -0.2137
   11MOL   C53310153   4.567   1.975   1.628 -0.1775  0.2173 -0.7930
   11MOL   C53410154   4.668   1.883   1.569 -0.5372 -0.3564 -0.9552
   11MOL   C53510155   4.649   1.737   1.621  0.0410 -0.5852  0.0830
   11MOL   C53610156   4.759   1.647   1.570 -0.0823  0.6830  0.4147
   11MOL   C53710157   4.899   1.678   1.634 -0.6465  0.7706 -0.1827
   11MOL   C53810158   5.011   1.624   1.553  0.6917  0.4937  0.0494
   11MOL   C53910159   5.010   1.476   1.502  0.1428 -0.1082  0.2520
   11MOL   C54010160   5.152   1.422   1.512 -0.4914  0.6709  0.5331
   11MOL   O54110161   5.216   1.442   1.390 -0.3813  0.7771 -0.0119
   11MOL   C54210162   5.299   1.536   1.370  0.7108 -0.3264  0.0089
   11MOL   O54310163   5.335   1.614   1.455 -0.3876 -0.6209 -0.7884
   11MOL   C54410164   5.354   1.548   1.234  0.8029 -0.0381 -0.1848
   11MOL   C54510165   5.437   1.678   1.223  0.4698  0.0469  0.4179
   11MOL   C54610166   5.477   1.706   1.080  0.6565  0.1787 -0.0580
   11MOL   C54710167   5.569   1.830   1.068 -0.1844 -0.2252  0.9541
   11MOL   C54810168   5.602   1.860   0.917 -0.1203  0.6670 -0.7147
   11MOL   O54910169   5.686   1.796   0.861  0.2184 -0.0783  0.0495
   11MOL   H55010170   4.611   2.191   1.806  1.7922 -0.3634 -1.5150
   11MOL   H55110171   4.446   2.204   1.743  0.4739  0.7169  2.2816
   11MOL   H55210172   4.709   2.129   1.612  0.7373  0.3855 -0.5536
   11MOL   H55310173   4.565   2.155   1.510 -0.7908  0.7734  0.8777
   11MOL   H55410174   4.559   1.964   1.736  2.1271 -0.4650 -0.6648
   11MOL   H55510175   4.469   1.937   1.599 -1.8218  2.2440  1.9479
   11MOL   H55610176   4.768   1.920   1.591 -0.3767 -1.9630  1.1989
   11MOL   H55710177   4.662   1.875   1.460 -0.9011 -0.9428 -0.8965
   11MOL   H55810178   4.550   1.706   1.588  0.8065 -0.9127 -2.0234
   11MOL   H55910179   4.650   1.749   1.729  0.5413  0.3364 -0.0211
   11MOL   H56010180   4.756   1.673   1.464 -0.1117 -0.0963  0.2154
   11MOL   H56110181   4.729   1.542   1.571  3.7147 -0.4910 -0.1588
   11MOL   H56210182   4.894   1.622   1.727 -1.1773  2.3359  0.7605
   11MOL   H56310183   4.927   1.773   1.679 -0.3018 -1.1257  3.8385
   11MOL   H56410184   5.096   1.652   1.615  0.5542  1.4939 -0.2031
   11MOL   H56510185   5.023   1.702   1.478  0.4114  0.8506  0.3706
   11MOL   H56610186   4.945   1.418   1.567  0.5849 -1.5717 -0.6000
   11MOL   H56710187   4.955   1.474   1.408 -0.7778  1.6449  0.7362
   11MOL   H56810188   5.158   1.314   1.522  0.1436  0.8063  1.6891
   11MOL   H56910189   5.211   1.453   1.599 -1.2174  1.7287  0.6640
   11MOL   H57010190   5.417   1.462   1.208 -0.0061 -0.6602 -0.0863
   11MOL   H57110191   5.271   1.561   1.166 -0.2013 -1.5647  0.7320
   11MOL   H57210192   5.522   1.684   1.291  1.4168 -1.2884 -0.6199
   11MOL   H57310193   5.380   1.763   1.261 -2.0800 -0.6256 -1.7262
   11MOL   H57410194   5.387   1.719   1.019  0.1487 -1.6264  0.2634
   11MOL   H57510195   5.522   1.619   1.034  0.0348 -0.2118  0.0701
   11MOL   H57610196   5.659   1.800   1.121  1.2149  0.1861 -1.1033
   11MOL   H57710197   5.524   1.912   1.125 -1.8916  0.6797 -1.5930
   11MOL   O57810198   5.525   1.963   0.876 -0.7128  0.3451 -0.2553
   11MOL   C57910199   5.530   2.026   0.743  0.1700  0.6923 -0.1070
   11MOL   C58010200   5.544   2.176   0.755 -0.7712  0.4511 -0.1224
   11MOL   C58110201   5.551   2.252   0.632 -0.0534  0.1614 -0.8226
   11MOL   C58210202   5.565   2.402   0.643  0.8879 -0.1011 -0.0580
   11MOL   C58310203   5.531   2.483   0.521  0.6169 -0.1964  0.3314
   11MOL   C58410204   5.528   2.636   0.547  0.2141 -0.1111  0.5228
   11MOL   C58510205   5.509   2.711   0.419 -0.8144 -0.3820  0.1948
   11MOL   C58610206   5.467   2.855   0.444 -0.4366  0.0344  0.6334
   11MOL   C58710207   5.574   2.949   0.477  0.7618 -0.4380  0.1264
   11MOL   C58810208   5.538   3.095   0.457  0.6784  0.1383  0.4360
   11MOL   O58910209   5.431   3.133   0.545  0.6609 -0.5174  0.2583
   11MOL   C59010210   5.366   3.251   0.529  0.3691  0.0271 -0.2139
   11MOL   O59110211   5.390   3.342   0.443  0.2772  0.1083 -0.3506
   11MOL   C59210212   5.240   3.271   0.618 -0.7066  0.3454  0.4222
   11MOL   C59310213   5.108   3.274   0.525 -0.0130  0.5631  0.2164
   11MOL   C59410214   5.065   3.139   0.485 -0.6009 -0.6347 -0.3247
   11MOL   C59510215   5.159   3.083   0.380  0.5859  0.2270  0.3602
   11MOL   C59610216   5.099   2.953   0.323  0.0829 -0.3685  0.1333
   11MOL   O59710217   5.058   2.948   0.204 -0.7781 -0.0169 -0.4732
   11MOL   H59810218   5.616   1.987   0.687 -0.7471  0.5909 -1.4488
   11MOL   H59910219   5.430   2.000   0.711  0.6495  0.4069 -1.4059
   11MOL   H60010220   5.641   2.179   0.806  0.2893 -2.6743 -1.8147
   11MOL   H60110221   5.477   2.220   0.829 -0.8334 -0.6973  0.5156
   11MOL   H60210222   5.624   2.200   0.571 -0.9810 -1.3350 -0.6843
   11MOL   H60310223   5.466   2.231   0.567  0.0865  0.2017 -1.0192
   11MOL   H60410224   5.663   2.434   0.677 -0.7132  2.0052  2.7392
   11MOL   H60510225   5.488   2.436   0.713  1.3464  1.9298 -0.5125
   11MOL   H60610226   5.442   2.453   0.465  1.7215 -1.8685 -0.5846
   11MOL   H60710227   5.605   2.469   0.442 -1.7660  0.0607 -2.0439
   11MOL   H60810228   5.617   2.662   0.604 -0.6143 -0.5153  1.9995
   11MOL   H60910229   5.435   2.633   0.603  0.6927 -0.4911  1.2936
   11MOL   H61010230   5.435   2.659   0.358  0.9739 -2.4105 -0.3274
   11MOL   H61110231   5.604   2.719   0.367 -0.5623 -2.2638  0.3242
   11MOL   H61210232   5.382   2.861   0.511  0.0540 -1.3437  1.4004
   11MOL   H61310233   5.420   2.894   0.354  1.0094 -0.1596 -0.2316
   11MOL   H61410234   5.605   2.928   0.580  0.0253 -1.1255  0.2119
   11MOL   H61510235   5.654   2.927   0.407  0.1720 -0.0902 -0.6618
   11MOL   H61610236   5.497   3.110   0.357  0.1618  2.0472  0.9103
   11MOL   H61710237   5.613   3.171   0.479  0.2966  0.6631 -0.0785
   11MOL   H61810238   5.247   3.192   0.693 -2.4691 -1.1355 -0.9213
   11MOL   H61910239   5.246   3.373   0.654 -1.3676  0.5677 -0.0737
   11MOL   H62010240   5.139   3.339   0.443 -0.4093  1.3445  0.6703
   11MOL   H62110241   5.024   3.323   0.575  2.3760  2.3906  2.6266
   11MOL   H62210242   4.961   3.143   0.451 -0.5324  0.8952 -0.3958
   11MOL   H62310243   5.058   3.074   0.573 -1.9210  0.5236  0.4548
   11MOL   H62410244   5.254   3.052   0.425  0.3353 -0.0751  0.6821
   11MOL   H62510245   5.171   3.156   0.300 -1.9374 -0.6938 -0.9227
   11MOL   O62610246   5.097   2.847   0.411 -0.2660  0.4764  0.4652
   11MOL   C62710247   5.080   2.721   0.352  0.2608 -1.2285  0.0214
   11MOL   C62810248   5.097   2.623   0.471 -0.0275  0.1203  0.1430
   11MOL   C62910249   5.060   2.471   0.433 -0.3687 -0.8036 -0.1291
   11MOL   C63010250   5.089   2.370   0.535 -0.1191  0.4288  0.2040
   11MOL   C63110251   5.084   2.221   0.482 -0.3782 -0.2888  0.0522
   11MOL   C63210252   4.942   2.166   0.487 -0.2996 -0.0371 -0.0248
   11MOL   C63310253   4.932   2.032   0.413 -0.4770  0.5568  0.3721
   11MOL   C63410254   4.791   1.970   0.410 -0.5323  0.2118  0.2513
   11MOL   C63510255   4.785   1.830   0.345  0.1519 -0.1450 -0.4869
   11MOL   C63610256   4.789   1.826   0.188 -0.5695 -0.2143 -0.3433
   11MOL   O63710257   4.820   1.694   0.148  0.3929  0.8355 -0.6400
   11MOL   C63810258   4.822   1.676   0.018 -0.0357 -0.0157  0.2648
   11MOL   O63910259   4.774   1.749   7.698 -0.1396 -0.4611 -0.4874
   11MOL   C64010260   4.884   1.543   7.747  0.1107  0.6628 -0.3481
   11MOL   C64110261   4.923   1.520   7.599  0.6114 -0.7453 -0.2298
   11MOL   C64210262   5.056   1.583   7.568  0.5630 -0.0689  0.2869
   11MOL   C64310263   5.126   1.520   7.445 -0.0215  0.4810  0.4786
   11MOL   C64410264   5.030   1.532   7.319 -0.0007  0.2823  0.1023
   11MOL   O64510265   4.943   1.444   7.293  0.3448 -0.4108 -0.4550
   11MOL   H64610266   4.978   2.712   0.315  0.7539 -0.7648 -1.4888
   11MOL   H64710267   5.144   2.711   0.264  0.7439 -1.4945  0.3978
   11MOL   H64810268   5.028   2.656   0.549 -0.1745  0.4419 -0.1248
   11MOL   H64910269   5.197   2.626   0.515  1.0127  1.1999 -2.2231
   11MOL   H65010270   4.955   2.468   0.407 -1.0143  0.9942  2.1123
   11MOL   H65110271   5.121   2.452   0.344  0.2026  0.7180 -0.0858
   11MOL   H65210272   5.028   2.390   0.623 -1.0262  3.6243 -1.0673
   11MOL   H65310273   5.194   2.382   0.562  0.8024 -0.7657 -2.6831
   11MOL   H65410274   5.145   2.163   0.551  1.7976  2.2759  0.3578
   11MOL   H65510275   5.130   2.218   0.383 -1.6590  0.8068 -0.5945
   11MOL   H65610276   4.872   2.246   0.462  1.3917  2.4285  2.6550
   11MOL   H65710277   4.910   2.156   0.591 -3.3336 -0.6764 -0.9778
   11MOL   H65810278   5.014   1.972   0.452  0.5472  2.4990  1.3021
   11MOL   H65910279   4.962   2.054   0.310  1.8186 -0.1379  0.8646
   11MOL   H66010280   4.721   2.030   0.352 -0.3659 -0.4276 -0.6245
   11MOL   H66110281   4.751   1.953   0.510 -1.5240 -0.1327 -0.1900
   11MOL   H66210282   4.881   1.787   0.373 -1.3324 -2.0577  1.8950
   11MOL   H66310283   4.703   1.771   0.386 -0.2972  0.3781 -0.6389
   11MOL   H66410284   4.859   1.895   0.141  1.6492 -1.0470  1.6142
   11MOL   H66510285   4.693   1.858   0.149 -0.6037 -0.2999 -0.3283
   11MOL   H66610286   4.970   1.530   0.048  0.0647 -0.9081 -0.5811
   11MOL   H66710287   4.807   1.468   0.002  0.1418  0.9627  0.9713
   11MOL   H66810288   4.845   1.572   7.543 -0.4197  0.1763  2.0054
   11MOL   H66910289   4.918   1.414   7.572  0.5948 -0.8592  0.2229
   11MOL   H67010290   5.127   1.565   7.648  1.8712  0.2241 -0.7827
   11MOL   H67110291   5.035   1.689   7.553 -0.5773 -0.6353 -2.3297
   11MOL   H67210292   5.132   1.413   7.460 -1.3285  0.7351  3.1224
   11MOL   H67310293   5.228   1.557   7.441  0.5697 -1.0196  1.4085
   11MOL   O67410294   5.051   1.637   7.237 -0.0794 -0.2461  0.2464
   11MOL   C67510295   4.988   1.643   7.108  0.8134  0.2473  0.8040
   11MOL   C67610296   5.100   1.674   7.001  0.4074 -0.2328 -0.0681
   11MOL   C67710297   5.170   1.802   7.039  0.6026 -0.1730  0.3164
   11MOL   C67810298   5.263   1.863   6.937 -0.1438 -0.5548 -0.2385
   11MOL   C67910299   5.349   1.973   7.004  0.1715 -0.0405 -0.6030
   11MOL   C68010300   5.496   1.976   6.963 -0.5874 -0.2791  0.6580
   11MOL   C68110301   5.573   2.103   6.990  0.6664 -0.8369 -0.6738
   11MOL   C68210302   5.713   2.118   6.922  0.0388  0.4459 -0.0560
   11MOL   C68310303   5.709   2.153   6.773 -0.3849  0.1075  0.1992
   11MOL   C68410304   5.855   2.144   6.707  0.6761 -0.4447  0.2443
   11MOL   O68510305   5.850   2.211   6.578 -0.5432  0.5767  0.1152
   11MOL   C68610306   5.872   2.143   6.466  0.0560 -0.1251  1.1538
   11MOL   O68710307   5.878   2.020   6.462  0.3968 -0.7428 -0.0751
   11MOL   C68810308   5.878   2.235   6.340 -0.0643  0.4734 -0.4201
   11MOL   C68910309   5.986   2.193   6.243 -0.0950 -0.0909 -0.1550
   11MOL   C69010310   6.017   2.302   6.142  0.2569 -0.1601 -0.3106
   11MOL   C69110311   6.137   2.294   6.057 -0.0522 -0.2567 -0.1889
   11MOL   C69210312   6.261   2.333   6.130  0.2506  0.5554  0.0618
   11MOL   O69310313   6.326   2.439   6.102  0.1276 -0.5550  0.3806
   11MOL   H69410314   4.924   1.555   7.098  1.2021 -0.0799  1.1778
   11MOL   H69510315   4.925   1.732   7.105  0.4375 -0.0595 -1.1012
   11MOL   H69610316   5.060   1.679   6.899 -1.7401 -3.1960  0.5658
   11MOL   H69710317   5.178   1.598   7.002  0.5265 -0.1194 -0.6550
   11MOL   H69810318   5.095   1.875   7.071  0.4563  1.1937 -2.9353
   11MOL   H69910319   5.234   1.765   7.119  4.0085  0.6761 -1.9332
   11MOL   H70010320   5.215   1.904   6.848  1.7438 -1.5213 -1.7366
   11MOL   H70110321   5.334   1.793   6.893  1.1793  0.2823  0.5171
   11MOL   H70210322   5.357   1.960   7.112 -0.5167 -0.2283 -0.5717
   11MOL   H70310323   5.307   2.070   6.980  1.3634  1.0877  1.7670
   11MOL   H70410324   5.518   1.937   6.863  1.4107  0.5367  0.7594
   11MOL   H70510325   5.532   1.891   7.022  1.4091 -1.1653 -1.7371
   11MOL   H70610326   5.580   2.106   7.098 -0.9279 -1.8081 -0.5315
   11MOL   H70710327   5.518   2.189   6.952  2.3165  1.1967  1.3996
   11MOL   H70810328   5.766   2.024   6.938  0.0398  0.6162  0.9775
   11MOL   H70910329   5.763   2.192   6.984 -0.7727  1.1513 -0.2249
   11MOL   H71010330   5.650   2.079   6.719 -0.5337 -0.0491  0.5741
   11MOL   H71110331   5.670   2.254   6.762  0.0267  0.1615 -0.8130
   11MOL   H71210332   5.878   2.039   6.693 -1.3350 -1.3075  2.9825
   11MOL   H71310333   5.926   2.208   6.760  1.1708 -0.1757 -0.7411
   11MOL   H71410334   5.780   2.228   6.292  0.0796 -0.7750 -0.5461
   11MOL   H71510335   5.891   2.339   6.372 -1.9573  0.4601  0.4878
   11MOL   H71610336   5.946   2.105   6.191 -1.5887  0.0574  0.7357
   11MOL   H71710337   6.070   2.162   6.305 -0.3659  0.7139  0.6137
   11MOL   H71810338   6.027   2.395   6.198 -0.7700  1.0275 -2.0806
   11MOL   H71910339   5.935   2.295   6.071 -0.8322 -0.5481  0.9630
   11MOL   H72010340   6.124   2.369   5.979 -0.6314  1.7161  1.7437
   11MOL   H72110341   6.149   2.197   6.010 -0.4300 -0.3844 -0.0228
   11MOL   O72210342   6.295   2.242   6.226 -0.1050  0.6414  0.2351
   11MOL   C72310343   6.405   2.270   6.306 -0.5441 -0.0806 -0.4753
   11MOL   C72410344   6.425   2.159   6.407 -0.5742 -0.3936 -0.5842
   11MOL   C72510345   6.316   2.157   6.520  0.2165 -0.3144 -0.1591
   11MOL   C72610346   6.335   2.049   6.628  0.2128  0.2154  0.0442
   11MOL   C72710347   6.215   2.064   6.733 -0.4363  0.7610  0.0101
   11MOL   C72810348   6.208   1.946   6.833 -0.0482  0.4574 -0.7101
   11MOL   C72910349   6.078   1.936   6.912 -0.6110 -0.3241  0.2943
   11MOL   C73010350   6.101   1.830   7.021  0.2233  0.7674 -0.4123
   11MOL   C73110351   5.978   1.777   7.092  0.2132  0.4692  0.2460
   11MOL   C73210352   6.012   1.698   7.222  0.1979  0.2046  0.2806
   11MOL   O73310353   6.080   1.577   7.191 -0.1984 -0.0515 -0.5061
   11MOL   C73410354   6.210   1.566   7.214 -0.0913  0.0839  0.6497
   11MOL   O73510355   6.289   1.651   7.244 -0.5495  0.2269 -0.2714
   11MOL   C73610356   6.248   1.415   7.179 -0.2941 -0.0462  0.4972
   11MOL   C73710357   6.289   1.397   7.029  0.0365 -0.8320 -0.2343
   11MOL   C73810358   6.338   1.260   6.983  0.1942  0.6954  0.2293
   11MOL   C73910359   6.393   1.271   6.843  0.5642 -0.1279 -0.4390
   11MOL   C74010360   6.432   1.128   6.786  0.1701  0.1971  0.4983
   11MOL   O74110361   6.416   1.016   6.842 -0.2884  0.1026 -0.2837
   11MOL   H74210362   6.487   2.274   6.234 -0.0605 -1.0558  0.0227
   11MOL   H74310363   6.391   2.363   6.361 -2.0561 -1.4958  1.5826
   11MOL   H74410364   6.521   2.152   6.459  0.0408 -1.9999 -1.9075
   11MOL   H74510365   6.421   2.068   6.348  1.9392 -0.2649 -1.0271
   11MOL   H74610366   6.299   2.254   6.566  0.6857  0.2249 -1.1095
   11MOL   H74710367   6.220   2.128   6.477  0.1701 -1.3914  0.6493
   11MOL   H74810368   6.419   2.061   6.696 -0.2111  2.7178  0.1822
   11MOL   H74910369   6.344   1.951   6.582  1.1523  0.7654 -0.9575
   11MOL   H75010370   6.125   2.074   6.673 -0.0133  1.0434 -0.5834
   11MOL   H75110371   6.239   2.157   6.784  1.5021 -0.8340  2.1363
   11MOL   H75210372   6.288   1.956   6.906  0.5512 -0.3468 -1.2437
   11MOL   H75310373   6.219   1.857   6.771 -0.3437 -0.9489  1.2123
   11MOL   H75410374   5.998   1.902   6.846  0.7263 -0.9955 -0.9864
   11MOL   H75510375   6.049   2.035   6.949 -1.2812 -0.4116  0.0207
   11MOL   H75610376   6.166   1.873   7.097 -1.6624  2.1368  0.4543
   11MOL   H75710377   6.156   1.745   6.981 -1.2651 -0.1867 -0.4817
   11MOL   H75810378   5.900   1.852   7.108  0.2365  1.1166 -2.4071
   11MOL   H75910379   5.918   1.710   7.030 -0.8905  1.8468 -0.2050
   11MOL   H76010380   5.918   1.656   7.259 -0.2174  2.0474  1.4019
   11MOL   H76110381   6.053   1.761   7.300  0.8038 -1.0638  1.0034
   11MOL   H76210382   6.337   1.376   7.228  1.8635  0.1579 -3.0372
   11MOL   H76310383   6.170   1.348   7.217  0.3783 -0.3327  1.3848
   11MOL   H76410384   6.364   1.473   7.010 -0.3180 -0.3557  0.2361
   11MOL   H76510385   6.201   1.413   6.966  0.7824 -0.2826 -1.1425
   11MOL   H76610386   6.254   1.192   6.978  0.6375  0.2465 -1.4399
   11MOL   H76710387   6.418   1.237   7.054 -0.3552  2.6150  1.5003
   11MOL   H76810388   6.480   1.333   6.823  0.8272 -0.8306 -1.5277
   11MOL   H76910389   6.328   1.315   6.768 -0.3031  0.2554  0.5316
   11MOL   O77010390   6.508   1.149   6.669  0.7372  0.5137  0.2125
   11MOL   C77110391   6.572   1.042   6.611 -0.2250  0.4170  0.2237
   11MOL   C77210392   6.617   1.070   6.470  0.8547  0.0404  0.0421
   11MOL   C77310393   6.690   1.198   6.438 -0.5233 -0.1461 -0.0278
   11MOL   C77410394   6.717   1.212   6.291  0.3154 -0.6966 -0.2172
   11MOL   C77510395   6.804   1.341   6.258 -0.9973  0.9730 -0.2528
   11MOL   C77610396   6.829   1.360   6.108  0.0062 -0.8150 -0.3511
   11MOL   C77710397   6.938   1.463   6.077 -0.1647 -0.3788 -0.0636
   11MOL   C77810398   6.922   1.517   5.931  0.5226 -0.1435  0.0031
   11MOL   C77910399   7.007   1.640   5.886  0.1968  0.0913  0.0449
   11MOL   C78010400   6.956   1.702   5.750 -0.2694 -0.8760  0.0968
   11MOL   O78110401   6.982   1.615   5.640 -0.4263 -0.2591 -0.1953
   11MOL   C78210402   7.095   1.627   5.577  0.5600  0.7879  0.3378
   11MOL   O78310403   7.192   1.697   5.607 -0.2278  0.0732  0.2040
   11MOL   C78410404   7.101   1.534   5.454 -0.6671  0.0328 -0.4300
   11MOL   C78510405   7.083   1.601   5.318 -0.2102 -0.0553  0.3486
   11MOL   C78610406   6.943   1.654   5.304 -0.4319 -0.2485  0.0412
   11MOL   C78710407   6.832   1.546   5.312 -0.3333 -0.0654 -0.3626
   11MOL   C78810408   6.698   1.623   5.340 -0.2052  0.3611  0.0253
   11MOL   O78910409   6.638   1.679   5.249 -0.3149  0.3443  0.3642
   11MOL   H79010410   6.647   0.998   6.677 -1.2322 -2.1856 -0.2912
   11MOL   H79110411   6.505   0.957   6.595  0.8845 -0.1598 -1.3670
   11MOL   H79210412   6.533   1.068   6.401  0.9832  1.7421 -0.1690
   11MOL   H79310413   6.680   0.984   6.447  1.6232 -0.1954  2.8816
   11MOL   H79410414   6.640   1.288   6.472 -2.5606 -0.8856 -0.9599
   11MOL   H79510415   6.780   1.188   6.499  0.7254  0.5902 -1.6961
   11MOL   H79610416   6.621   1.239   6.248 -0.0687 -1.9300 -0.1397
   11MOL   H79710417   6.765   1.124   6.249  1.9798 -1.3130  2.8427
   11MOL   H79810418   6.907   1.329   6.291 -0.7935  2.1636 -0.4423
   11MOL   H79910419   6.777   1.435   6.305 -0.7856  0.7840  0.2552
   11MOL   H80010420   6.749   1.380   6.036 -0.3480 -0.7375  0.0593
   11MOL   H80110421   6.872   1.269   6.067 -1.0312 -0.3075 -2.6329
   11MOL   H80210422   7.032   1.409   6.087  0.2662  0.8978  3.2733
   11MOL   H80310423   6.928   1.548   6.144 -0.0163 -0.1356 -0.3492
   11MOL   H80410424   6.817   1.542   5.915  0.0067 -1.5941  1.0024
   11MOL   H80510425   6.934   1.443   5.851  1.3952  2.1429 -2.0508
   11MOL   H80610426   6.992   1.727   5.951 -1.6291  1.5406 -2.2518
   11MOL   H80710427   7.110   1.608   5.870  0.4089  0.0216  1.4508
   11MOL   H80810428   7.007   1.795   5.728  0.3193 -1.9064 -3.0626
   11MOL   H80910429   6.847   1.706   5.756 -0.2645 -0.9460  0.2350
   11MOL   H81010430   7.197   1.483   5.459 -0.7517 -0.2841 -1.8873
   11MOL   H81110431   7.039   1.445   5.467 -2.3704  1.3238  0.6500
   11MOL   H81210432   7.085   1.526   5.239  1.4991  1.1265 -0.7438
   11MOL   H81310433   7.166   1.668   5.299  0.2290 -0.6031  0.3053
   11MOL   H81410434   6.921   1.715   5.216  0.6418  0.6035  0.3676
   11MOL   H81510435   6.914   1.711   5.392  3.5764  0.6474  0.8812
   11MOL   H81610436   6.849   1.473   5.391 -0.0957  3.9254  3.4593
   11MOL   H81710437   6.844   1.483   5.224 -1.9822 -0.4852 -0.3091
   11MOL   O81810438   6.665   1.618   5.472  0.0639  0.0821 -0.1128
   11MOL   C81910439   6.563   1.696   5.528 -0.2876 -0.2009  0.4269
   11MOL   C82010440   6.533   1.639   5.665  0.4902 -0.2136 -0.3840
   11MOL   C82110441   6.467   1.744   5.761 -0.0800  0.0384 -0.5241
   11MOL   C82210442   6.466   1.691   5.906 -0.0507 -0.1880  0.2868
   11MOL   C82310443   6.403   1.785   6.004  0.5289 -0.2105  0.3330
   11MOL   C82410444   6.249   1.794   6.011 -0.3314 -0.7661 -0.3241
   11MOL   C82510445   6.197   1.900   6.110  0.2914  0.3944  0.2917
   11MOL   C82610446   6.213   1.858   6.262  0.6293 -0.0419  0.1884
   11MOL   C82710447   6.089   1.780   6.307  0.1905  0.7645 -0.7470
   11MOL   C82810448   6.101   1.730   6.452 -0.5888 -0.1348  0.1899
   11MOL   O82910449   5.981   1.670   6.493 -0.0762 -0.3199  0.3526
   11MOL   C83010450   5.976   1.600   6.602  0.1356 -0.3314  0.0001
   11MOL   O83110451   6.074   1.553   6.661  1.0366  0.3459 -0.7775
   11MOL   C83210452   5.834   1.561   6.642 -0.5010 -0.3338 -0.5252
   11MOL   C83310453   5.756   1.693   6.668 -0.0583 -0.6464  0.0824
   11MOL   C83410454   5.618   1.653   6.720  0.0174  0.2896  0.0006
   11MOL   C83510455   5.533   1.582   6.608 -0.4268  0.1300  0.6245
   11MOL   C83610456   5.389   1.579   6.634  0.0835  0.2353  0.0868
   11MOL   O83710457   5.346   1.513   6.725 -0.0196  0.1912 -0.3083
   11MOL   H83810458   6.614   1.792   5.538 -2.1866  1.0265 -1.1127
   11MOL   H83910459   6.476   1.713   5.464 -0.0775  3.2880  0.9638
   11MOL   H84010460   6.624   1.606   5.715 -1.1172 -1.7592  1.5654
   11MOL   H84110461   6.472   1.549   5.668 -0.2096  0.2595 -0.4289
   11MOL   H84210462   6.514   1.842   5.751 -2.3107  1.1819  0.0105
   11MOL   H84310463   6.362   1.763   5.743 -0.4511  1.5137  2.9083
   11MOL   H84410464   6.568   1.677   5.941  0.1237  1.8106  0.6308
   11MOL   H84510465   6.407   1.599   5.903 -2.2800  1.2371 -1.6191
   11MOL   H84610466   6.444   1.886   5.995 -2.8134  0.9441 -3.0105
   11MOL   H84710467   6.436   1.756   6.104  1.2794 -0.0863  0.1208
   11MOL   H84810468   6.209   1.697   6.042 -1.7876 -0.7377 -2.0692
   11MOL   H84910469   6.207   1.827   5.916 -0.9135 -0.8405 -0.0889
   11MOL   H85010470   6.091   1.911   6.086 -0.1850 -4.0825 -0.0485
   11MOL   H85110471   6.252   1.993   6.096  1.3637  0.0693  2.1539
   11MOL   H85210472   6.234   1.945   6.325 -0.2810 -0.6089  1.2873
   11MOL   H85310473   6.303   1.801   6.284  1.8570  1.5154 -0.6947
   11MOL   H85410474   5.996   1.836   6.298 -0.6881 -0.7741 -1.2959
   11MOL   H85510475   6.079   1.692   6.243 -1.9403 -0.1578  0.8198
   11MOL   H85610476   6.112   1.809   6.526 -0.1372 -0.3407  0.3427
   11MOL   H85710477   6.186   1.665   6.470  0.0509  0.5167 -0.4843
   11MOL   H85810478   5.792   1.495   6.566  0.4077 -0.0527 -1.2853
   11MOL   H85910479   5.846   1.509   6.737  0.9587 -1.0694 -1.0899
   11MOL   H86010480   5.755   1.751   6.576 -1.9989 -1.1497 -0.2412
   11MOL   H86110481   5.814   1.739   6.748 -0.0089 -2.2797  1.0015
   11MOL   H86210482   5.575   1.745   6.759  2.0598  0.9737  0.7098
   11MOL   H86310483   5.627   1.592   6.810 -0.7268 -1.1361 -0.8598
   11MOL   H86410484   5.560   1.477   6.594  2.8952  0.9261  0.7344
   11MOL   H86510485   5.549   1.637   6.516  0.4720 -1.6533 -0.3127
   11MOL   O86610486   5.313   1.654   6.546 -0.5523 -0.8164 -0.7828
   11MOL   C86710487   5.177   1.699   6.577  0.1672  0.0483 -0.3411
   11MOL   C86810488   5.168   1.844   6.543  0.0937 -0.0905  0.2904
   11MOL   C86910489   5.033   1.898   6.571 -1.1976  0.4143 -0.0124
   11MOL   C87010490   5.003   2.032   6.496 -0.8053 -0.1132  0.3891
   11MOL   C87110491   4.881   2.105   6.551 -0.2179  0.1118 -0.3310
   11MOL   C87210492   4.758   2.056   6.493 -0.5929  0.0425 -0.3531
   11MOL   C87310493   4.635   2.132   6.553  0.0592 -0.0856  0.3161
   11MOL   C87410494   4.497   2.069   6.515 -0.3576  0.8143 -0.1788
   11MOL   C87510495   4.372   2.137   6.564  0.1867 -0.3929  0.6612
   11MOL   C87610496   4.247   2.077   6.496 -0.4571 -0.2799 -0.6384
   11MOL   O87710497   4.235   1.935   6.526  0.3385 -0.1749  0.2387
   11MOL   C87810498   4.166   1.893   6.630  0.0985  0.0014 -0.0647
   11MOL   O87910499   4.098   1.970   6.699 -0.6217  0.3026 -0.2570
   11MOL   C88010500   4.187   1.743   6.656 -0.4956  0.3912  0.1285
   11MOL   C88110501   4.330   1.686   6.620  0.2160  0.1093  0.1479
   11MOL   C88210502   4.313   1.540   6.561 -0.8574  0.4879  0.4646
   11MOL   C88310503   4.444   1.460   6.519  0.4293 -0.3278 -0.0426
   11MOL   C88410504   4.515   1.535   6.413 -0.2095 -0.3430 -1.0538
   11MOL   O88510505   4.637   1.562   6.423  0.6591 -0.2395  0.1162
   11MOL   H88610506   5.106   1.625   6.539 -1.0215  0.1990  1.4929
   11MOL   H88710507   5.162   1.691   6.685 -1.1853 -0.2831 -0.5335
   11MOL   H88810508   5.195   1.853   6.437  3.0577 -0.8114  0.9142
   11MOL   H88910509   5.250   1.897   6.592  0.3547 -1.0846  0.9543
   11MOL   H89010510   4.949   1.831   6.554  0.3069 -2.0121  1.8082
   11MOL   H89110511   5.021   1.915   6.678  0.0678 -3.0273  0.7275
   11MOL   H89210512   5.003   2.014   6.389  2.5265 -1.0618  0.4936
   11MOL   H89310513   5.088   2.098   6.514 -1.8944  1.4096  0.0544
   11MOL   H89410514   4.896   2.211   6.530 -0.6743  0.3089  0.3182
   11MOL   H89510515   4.883   2.100   6.660  0.1175  0.3882 -0.3214
   11MOL   H89610516   4.746   1.956   6.536  0.6912  0.3960  0.8455
   11MOL   H89710517   4.750   2.062   6.384 -1.6958 -3.1741 -0.4946
   11MOL   H89810518   4.633   2.237   6.527  2.4079 -0.3801 -1.1731
   11MOL   H89910519   4.650   2.138   6.661  2.4464  1.1848 -0.0519
   11MOL   H90010520   4.514   1.966   6.544  0.2182  1.5393  2.1872
   11MOL   H90110521   4.495   2.070   6.406  0.5580  1.0401 -0.2014
   11MOL   H90210522   4.363   2.138   6.672 -1.3269 -1.2170  0.5593
   11MOL   H90310523   4.374   2.243   6.539 -0.5046 -0.3848  0.6137
   11MOL   H90410524   4.263   2.095   6.389  0.3254  2.1631 -0.1539
   11MOL   H90510525   4.156   2.134   6.513 -0.8847 -1.6188  1.6928
   11MOL   H90610526   4.172   1.726   6.763  0.6968  2.3613  0.6373
   11MOL   H90710527   4.116   1.689   6.594 -1.4344  1.9143 -0.1504
   11MOL   H90810528   4.392   1.674   6.709  0.6864 -1.5589 -0.4059
   11MOL   H90910529   4.372   1.747   6.540 -0.0492  1.6750  1.1765
   11MOL   H91010530   4.244   1.534   6.477  0.9563 -2.0777 -0.9281
   11MOL   H91110531   4.262   1.484   6.640 -1.6384  0.1764 -0.2555
   11MOL   H91210532   4.420   1.361   6.479  2.3351 -0.2809 -1.3773
   11MOL   H91310533   4.508   1.446   6.606  0.8330 -0.4528 -0.3568
   11MOL   O91410534   4.438   1.559   6.296 -0.0174  0.3034  0.7946
   11MOL   C91510535   4.492   1.619   6.176  0.4240  0.0361  0.5593
   11MOL   C91610536   4.498   1.768   6.172  0.1965  0.1705  0.9676
   11MOL   C91710537   4.366   1.842   6.183  0.4498 -0.9138  0.5415
   11MOL   C91810538   4.376   1.991   6.128 -0.0361 -0.4386  0.5564
   11MOL   C91910539   4.431   2.006   5.982 -0.6443 -0.3451  0.8403
   11MOL   C92010540   4.416   2.147   5.914  0.4971 -0.1616 -0.1266
   11MOL   C92110541   4.447   2.149   5.769  0.0148 -0.1572  0.6965
   11MOL   C92210542   4.468   2.284   5.711  0.9712 -0.5013 -0.5995
   11MOL   C92310543   4.341   2.363   5.713  0.4131 -0.4929 -0.1615
   11MOL   C92410544   4.357   2.515   5.673  0.4415 -0.3879 -0.8183
   11MOL   O92510545   4.375   2.527   5.534  0.0893 -0.1864 -0.5470
   11MOL   C92610546   4.416   2.643   5.485 -0.5418  0.1095 -0.5889
   11MOL   O92710547   4.451   2.733   5.555  0.4644 -0.8477  0.1390
   11MOL   C92810548   4.433   2.646   5.334 -0.3840 -0.2722  0.6217
   11MOL   C92910549   4.504   2.764   5.268 -0.1151 -0.3210 -0.0828
   11MOL   C93010550   4.410   2.877   5.214  0.1341  0.0655 -0.6094
   11MOL   C93110551   4.449   2.959   5.089 -0.0358 -0.3062 -0.0820
   11MOL   C93210552   4.579   3.039   5.106  0.5155 -1.2705  0.1041
   11MOL   O93310553   4.675   2.989   5.162  0.1103 -0.1820  0.1049
   11MOL   H93410554   4.589   1.575   6.152  0.7314  1.3962 -0.7060
   11MOL   H93510555   4.420   1.587   6.101 -0.2021 -0.3556  1.3074
   11MOL   H93610556   4.554   1.789   6.080  0.1187  0.1658  0.9200
   11MOL   H93710557   4.562   1.797   6.256 -0.3673  3.0468  0.4539
   11MOL   H93810558   4.290   1.791   6.125  2.8190 -2.6085 -1.1669
   11MOL   H93910559   4.320   1.832   6.281  1.8397 -3.7481  0.9568
   11MOL   H94010560   4.433   2.058   6.192 -1.4034  1.7324 -0.4361
   11MOL   H94110561   4.276   2.034   6.137  0.4117  0.9524 -0.8925
   11MOL   H94210562   4.389   1.926   5.921 -0.1160  1.2157 -1.6201
   11MOL   H94310563   4.536   1.978   5.986 -0.5403 -0.0022  0.5590
   11MOL   H94410564   4.473   2.223   5.968 -0.6396  1.7986 -1.6703
   11MOL   H94510565   4.314   2.182   5.922  1.2344  2.2238 -0.9035
   11MOL   H94610566   4.368   2.088   5.725 -1.4481  2.2736 -0.1127
   11MOL   H94710567   4.537   2.089   5.753 -1.0079 -1.1649 -1.5062
   11MOL   H94810568   4.510   2.287   5.611 -0.7795 -1.6933 -1.4172
   11MOL   H94910569   4.539   2.341   5.770  1.3137 -1.8731  0.3457
   11MOL   H95010570   4.258   2.307   5.670 -1.6047 -0.5870  3.6307
   11MOL   H95110571   4.306   2.365   5.817  2.5497  0.0119  0.5744
   11MOL   H95210572   4.436   2.563   5.730 -0.4431  1.6273 -1.2389
   11MOL   H95310573   4.271   2.574   5.704  1.1296 -0.0742  0.5325
   11MOL   H95410574   4.504   2.565   5.317 -2.4587 -1.9327 -0.3881
   11MOL   H95510575   4.338   2.640   5.280 -1.8968  1.8023  2.9396
   11MOL   H95610576   4.553   2.713   5.185  0.1665 -0.8645  0.4125
   11MOL   H95710577   4.578   2.812   5.332 -1.8818  1.9911  0.2895
   11MOL   H95810578   4.384   2.932   5.305 -0.4062  0.0359 -0.7484
   11MOL   H95910579   4.318   2.832   5.179  0.4127 -1.1613  0.2144
   11MOL   H96010580   4.371   3.022   5.046  0.4450  1.2866  1.3199
   11MOL   H96110581   4.469   2.887   5.010  1.0336 -1.0730  0.8751
   11MOL   H96210582   4.571   3.146   5.087 -2.1363 -1.4717 -0.1534
   12MOL     O110583   6.768   6.765   0.939  0.2907 -0.5668 -0.2485
   12MOL     C210584   6.834   6.662   1.005 -0.1070 -0.0467  0.1948
   12MOL     C310585   6.971   6.706   1.048 -0.2197  0.0968 -0.2940
   12MOL     C410586   6.988   6.789   1.180  0.2614 -0.0744  0.1837
   12MOL     C510587   6.951   6.709   1.300 -0.5947 -0.1736 -0.7735
   12MOL     C610588   6.959   6.793   1.428 -0.0457  0.9189  0.3444
   12MOL     C710589   7.001   6.702   1.550 -0.4534 -0.8849  0.3730
   12MOL     C810590   6.990   6.786   1.684 -0.2354 -0.1656  0.3043
   12MOL     C910591   7.003   6.703   1.819 -0.5305 -0.5887  0.4262
   12MOL    C1010592   7.147   6.658   1.840  0.2865 -0.5317 -0.3095
   12MOL    C1110593   7.186   6.644   1.987  0.1122 -0.3109 -0.2101
   12MOL    O1210594   7.221   6.769   2.034  0.1775  0.2436 -0.6621
   12MOL    C1310595   7.241   6.791   2.161 -0.7114  0.1233 -0.9325
   12MOL    O1410596   7.222   6.707   2.245 -0.1635  0.3344 -0.2745
   12MOL    C1510597   7.286   6.933   2.198  0.8822  0.2145 -0.0926
   12MOL    C1610598   7.314   6.954   2.349  0.3126 -0.1524  0.1726
   12MOL    C1710599   7.348   7.101   2.383 -0.2990 -0.3413  0.4919
   12MOL    C1810600   7.364   7.127   2.535 -0.4573 -0.0101 -0.4531
   12MOL    C1910601   7.407   7.267   2.569  0.2579  0.0462 -0.1903
   12MOL    O2010602   7.511   7.300   2.624  0.2769  0.6724 -0.1682
   12MOL    H2110603   6.783   6.607   1.085 -1.3971  0.4870 -0.2357
   12MOL    H2210604   6.840   6.580   0.935  1.9370  0.4875 -0.2700
   12MOL    H2310605   7.019   6.769   0.973  1.9892  0.1993  1.1731
   12MOL    H2410606   7.022   6.611   1.062 -2.0523 -1.0480 -1.1261
   12MOL    H2510607   7.094   6.816   1.182  0.0805  0.8043 -1.3823
   12MOL    H2610608   6.925   6.878   1.177  1.3558  0.7412  1.0794
   12MOL    H2710609   7.013   6.620   1.309 -2.1059 -1.0174  1.9226
   12MOL    H2810610   6.847   6.678   1.299 -1.3824  2.2997  0.2295
   12MOL    H2910611   6.861   6.838   1.443  0.0965  1.3433  0.0137
   12MOL    H3010612   7.020   6.884   1.428  0.7369  0.4339  1.9329
   12MOL    H3110613   7.104   6.671   1.531  1.2983  3.8636  1.5777
   12MOL    H3210614   6.938   6.614   1.564 -0.1371 -1.4269 -1.5486
   12MOL    H3310615   6.898   6.842   1.671  1.5097  2.5465 -0.7301
   12MOL    H3410616   7.072   6.857   1.690 -0.4004  0.2194 -1.6959
   12MOL    H3510617   6.928   6.624   1.819 -0.4607 -0.6749 -1.4503
   12MOL    H3610618   6.981   6.768   1.904 -1.8160 -1.9939  1.1816
   12MOL    H3710619   7.155   6.560   1.792  1.1043 -1.0310  0.8059
   12MOL    H3810620   7.221   6.723   1.793  0.8890 -0.2716  0.9724
   12MOL    H3910621   7.271   6.577   1.998  1.8040  1.8751  0.5900
   12MOL    H4010622   7.104   6.601   2.043  0.1680 -2.4263 -1.6735
   12MOL    H4110623   7.377   6.955   2.143  1.0961 -0.9971 -0.2372
   12MOL    H4210624   7.203   6.999   2.173 -0.8257 -1.0486  2.0456
   12MOL    H4310625   7.383   6.880   2.387  0.5339 -0.6304 -1.1232
   12MOL    H4410626   7.223   6.929   2.403 -0.8217  0.2051 -1.5176
   12MOL    H4510627   7.284   7.173   2.331  0.4811  0.9594  1.2921
   12MOL    H4610628   7.446   7.117   2.338  0.0732 -0.7238  1.1626
   12MOL    H4710629   7.441   7.062   2.576  0.0640  2.1067  2.0622
   12MOL    H4810630   7.267   7.100   2.578 -0.4847  0.6900 -0.0703
   12MOL    H4910631   6.709   6.730   0.873 -1.2081  0.8727  0.2744
   12MOL    O5010632   7.320   7.359   2.530 -0.6203  0.4086  0.3417
   12MOL    C5110633   7.328   7.487   2.588  0.0624 -0.3313  0.2573
   12MOL    C5210634   7.220   7.581   2.539  0.2079 -0.2278 -0.4330
   12MOL    C5310635   7.232   7.629   2.393  0.0078  0.0999 -0.7477
   12MOL    C5410636   7.109   7.705   2.344 -0.4396 -0.5923  0.5414
   12MOL    C5510637   7.124   7.759   2.197  0.0866 -0.3430 -0.2450
   12MOL    C5610638   6.995   0.055   2.157  0.9539 -0.4680 -0.6053
   12MOL    C5710639   7.006   0.125   2.014  0.2868 -0.9788  0.4322
   12MOL    C5810640   6.880   0.203   1.970  0.3601 -0.4056  0.2544
   12MOL    C5910641   6.883   0.269   1.827  0.2293  0.5873  0.2533
   12MOL    C6010642   6.756   0.335   1.777  0.4018  0.3026  0.2608
   12MOL    O6110643   6.783   0.400   1.655  0.0653  0.1414  0.0479
   12MOL    C6210644   6.682   0.469   1.599 -0.1221  0.0420 -0.3898
   12MOL    O6310645   6.574   0.498   1.653 -0.4167  0.2632 -0.0071
   12MOL    C6410646   6.725   0.529   1.461  0.3106 -0.2249  0.4699
   12MOL    C6510647   6.689   0.434   1.347  0.3255 -0.1255 -0.4076
   12MOL    C6610648   6.625   0.510   1.236  0.5713 -0.6358  0.2651
   12MOL    C6710649   6.598   0.409   1.124 -0.1076  0.0972  0.7861
   12MOL    C6810650   6.723   0.370   1.047 -0.2988  0.3839 -0.0115
   12MOL    O6910651   6.747   0.254   1.020  0.2242  0.5053 -0.3470
   12MOL    H7010652   7.333   7.470   2.695  3.5235 -3.1395 -0.2218
   12MOL    H7110653   7.424   7.533   2.564  0.3863 -1.0037  0.2614
   12MOL    H7210654   7.222   7.671   2.600  0.1256  0.8761 -2.0214
   12MOL    H7310655   7.123   7.531   2.551  2.1771 -3.4280  3.3316
   12MOL    H7410656   7.330   7.678   2.393 -0.1516  0.4233 -0.7518
   12MOL    H7510657   7.235   7.543   2.326  1.9230 -0.2630 -0.2365
   12MOL    H7610658   7.095   0.027   2.409 -1.7056 -0.2136 -0.2082
   12MOL    H7710659   7.023   7.642   2.365  0.9293 -1.8702  2.5256
   12MOL    H7810660   7.152   7.677   2.130  0.3195 -0.7774  0.3795
   12MOL    H7910661   7.208   0.064   2.200  0.1931 -0.4654 -0.3448
   12MOL    H8010662   6.957   0.118   2.238 -1.0317 -0.9320 -1.1390
   12MOL    H8110663   6.922   7.740   2.144 -0.8579  0.9125  0.6391
   12MOL    H8210664   7.019   0.061   1.927  1.5399 -0.7750  0.4676
   12MOL    H8310665   7.084   0.201   2.018  0.4518 -1.1860  1.2167
   12MOL    H8410666   6.856   0.274   2.050 -1.2126  1.4181 -1.7615
   12MOL    H8510667   6.794   0.136   1.973 -0.4814  0.6736  0.7336
   12MOL    H8610668   6.965   0.339   1.809  0.1733  0.9225  1.3048
   12MOL    H8710669   6.913   0.193   1.755  1.1453  1.2435 -0.0646
   12MOL    H8810670   6.730   0.401   1.860  0.5049  0.3253  0.2755
   12MOL    H8910671   6.670   0.269   1.769 -0.2773  1.1447  0.5104
   12MOL    H9010672   6.665   0.619   1.443  2.6883  1.3164  0.0906
   12MOL    H9110673   6.832   0.549   1.464  0.4078 -0.7931  0.8040
   12MOL    H9210674   6.615   0.358   1.369 -0.1003  0.6036  0.6840
   12MOL    H9310675   6.784   0.387   1.320  2.1917  2.3137  1.6384
   12MOL    H9410676   6.695   0.591   1.216 -1.3751  1.6856  2.4980
   12MOL    H9510677   6.528   0.545   1.271  0.4068 -1.9968  1.2296
   12MOL    H9610678   6.530   0.462   1.057 -0.4199 -1.7682 -0.3897
   12MOL    H9710679   6.542   0.321   1.155 -2.0897  0.0843 -2.5590
   12MOL    O9810680   6.797   0.477   1.015  0.9921 -0.0210  0.2018
   12MOL    C9910681   6.935   0.479   0.970  0.1730  0.4169  0.3535
   12MOL   C10010682   7.026   0.540   1.070  0.6150 -0.7045 -0.1050
   12MOL   C10110683   6.997   0.674   1.118 -0.0354  0.2617 -0.5631
   12MOL   C10210684   7.112   0.744   1.195  0.4058 -0.4596  0.0769
   12MOL   C10310685   7.175   0.659   1.308 -0.2968 -0.1422 -0.2107
   12MOL   C10410686   7.284   0.743   1.385 -0.1068  0.4367  0.9219
   12MOL   C10510687   7.410   0.658   1.425  0.4601 -0.3398  0.8024
   12MOL   C10610688   7.495   0.732   1.523 -0.3517 -0.1593  0.3558
   12MOL   C10710689   7.621   0.662   1.569 -0.0563  0.1728  0.1638
   12MOL   C10810690   7.686   0.708   1.697 -0.2837 -0.5491  0.4147
   12MOL   O10910691   0.045   0.640   1.732 -0.2726 -0.1656  0.3071
   12MOL   C11010692   0.037   0.533   1.819 -0.3744 -0.9171 -0.3928
   12MOL   O11110693   7.707   0.516   1.894 -0.1393  0.5076 -0.3797
   12MOL   C11210694   0.167   0.453   1.828  0.1966 -0.5402  0.4456
   12MOL   C11310695   0.283   0.535   1.879  0.1934  0.1558  0.1042
   12MOL   C11410696   0.418   0.473   1.882  0.9779  0.5063 -0.4544
   12MOL   C11510697   0.528   0.562   1.935 -0.1773  0.1857  0.1919
   12MOL   C11610698   0.599   0.652   1.834 -0.1073 -0.0565  0.0906
   12MOL   O11710699   0.727   0.663   1.819 -0.2013  0.2028  0.1466
   12MOL   H11810700   6.974   0.379   0.950 -2.2937 -0.6932  0.9123
   12MOL   H11910701   6.927   0.538   0.878  1.9301 -0.4037 -0.3458
   12MOL   H12010702   7.118   0.546   1.012 -0.0138 -0.7581 -1.1185
   12MOL   H12110703   7.037   0.463   1.147 -1.9909  0.3760  1.4176
   12MOL   H12210704   6.972   0.731   1.028 -1.3826  1.0018  0.2803
   12MOL   H12310705   6.900   0.671   1.167  1.3873  2.2493  2.5146
   12MOL   H12410706   7.084   0.838   1.242 -0.8392 -0.7243 -0.1295
   12MOL   H12510707   7.191   0.773   1.126 -1.3962  0.9942 -1.4236
   12MOL   H12610708   7.223   0.577   1.255 -1.1615 -2.1616  2.0338
   12MOL   H12710709   7.101   0.607   1.369 -0.9658  0.4223 -0.5333
   12MOL   H12810710   7.232   0.781   1.472  1.3299  3.4126  0.5680
   12MOL   H12910711   7.303   0.831   1.322 -2.9682 -1.2864 -2.5640
   12MOL   H13010712   7.458   0.650   1.327  1.7288 -1.4720  1.4974
   12MOL   H13110713   7.384   0.558   1.459 -0.0634 -0.8372 -1.0033
   12MOL   H13210714   7.430   0.761   1.606  1.1328  1.1852  1.0560
   12MOL   H13310715   7.519   0.827   1.476 -1.1258 -0.1749 -0.0941
   12MOL   H13410716   7.594   0.556   1.575 -0.4439  0.3230  1.3038
   12MOL   H13510717   7.696   0.669   1.491  0.1779 -3.1101  0.0019
   12MOL   H13610718   7.615   0.693   1.779 -0.2896  1.7553  0.8500
   12MOL   H13710719   7.712   0.813   1.690  1.5849 -1.0764 -0.7228
   12MOL   H13810720   0.134   0.374   1.896  2.1158  0.1830  2.2988
   12MOL   H13910721   0.204   0.413   1.734  0.0345 -3.0528  1.4195
   12MOL   H14010722   0.261   0.573   1.980  0.5961  0.6151  0.0214
   12MOL   H14110723   0.273   0.630   1.825 -2.2908  1.0401  2.0141
   12MOL   H14210724   0.445   0.442   1.781  0.2002 -4.5842  0.7574
   12MOL   H14310725   0.409   0.381   1.939  0.3023  0.1848 -1.0678
   12MOL   H14410726   0.607   0.504   1.982 -0.3431  0.2692  0.5765
   12MOL   H14510727   0.498   0.625   2.019  0.3515 -0.8963  1.2012
   12MOL   O14610728   0.515   0.725   1.759 -1.1269  1.0075  0.4760
   12MOL   C14710729   0.570   0.805   1.659  0.3598  0.1222 -0.1652
   12MOL   C14810730   0.467   0.877   1.563  0.4432  0.1765 -0.1293
   12MOL   C14910731   0.372   0.783   1.480  0.7890 -0.4079 -0.2889
   12MOL   C15010732   0.246   0.852   1.417 -0.5248  0.2091  0.0946
   12MOL   C15110733   0.152   0.764   1.340 -0.0995  0.3523  0.1125
   12MOL   C15210734   0.025   0.822   1.275 -0.4003  0.2586  0.2432
   12MOL   C15310735   7.731   0.729   1.174 -0.4557  0.3616 -0.1120
   12MOL   C15410736   7.610   0.794   1.102 -1.4031 -0.3226  0.2217
   12MOL   C15510737   7.657   0.865   0.970 -0.2332 -0.5409  0.1818
   12MOL   C15610738   7.551   0.961   0.907 -0.5868  0.2875  0.1847
   12MOL   O15710739   7.475   0.923   0.792  0.4367 -0.1667 -0.2134
   12MOL   C15810740   7.373   0.839   0.781  0.0906 -0.1568 -0.9632
   12MOL   O15910741   7.334   0.780   0.884 -0.0085 -0.3528  0.7325
   12MOL   C16010742   7.321   0.824   0.640  0.6123  0.2278  0.1754
   12MOL   C16110743   7.434   0.807   0.535  0.8243  0.0124 -0.3937
   12MOL   C16210744   7.521   0.679   0.564 -0.2871 -0.1319 -0.1752
   12MOL   C16310745   7.648   0.655   0.480 -0.3820 -0.0693  0.3595
   12MOL   C16410746   7.618   0.592   0.344  0.0099 -1.1446 -0.0995
   12MOL   O16510747   7.696   0.519   0.286  0.7119 -0.5646  0.1215
   12MOL   H16610748   0.621   0.884   1.715  2.4521  1.3337 -3.6329
   12MOL   H16710749   0.645   0.751   1.602  0.6089  0.8062 -0.4934
   12MOL   H16810750   0.528   0.935   1.493  0.0663 -1.2466 -1.6619
   12MOL   H16910751   0.397   0.941   1.616  0.1637 -1.4975  1.5898
   12MOL   H17010752   0.430   0.740   1.398  2.6633 -1.3099  1.4703
   12MOL   H17110753   0.335   0.692   1.525  0.7424 -1.3425 -2.1462
   12MOL   H17210754   0.289   0.918   1.342  1.0811 -1.5381 -0.5833
   12MOL   H17310755   0.193   0.916   1.486  2.3761  1.6724  1.0682
   12MOL   H17410756   0.122   0.684   1.407 -0.8946  0.5846  0.0433
   12MOL   H17510757   0.216   0.719   1.264 -0.0177  3.5266 -1.7919
   12MOL   H17610758   0.066   0.908   1.223  0.8422 -1.6172 -2.0056
   12MOL   H17710759   7.706   0.857   1.336  0.0021  1.8918 -0.1137
   12MOL   H17810760   7.692   0.639   1.221 -1.4750 -0.2972 -2.1351
   12MOL   H17910761   0.034   0.691   1.098 -0.4698  1.8117 -0.8776
   12MOL   H18010762   7.563   0.874   1.158  1.3985  1.5548 -0.0256
   12MOL   H18110763   7.522   0.732   1.080 -1.4543  0.7199 -2.7612
   12MOL   H18210764   7.744   0.928   0.988 -0.6762 -0.4370  2.0554
   12MOL   H18310765   7.684   0.793   0.892  1.2501  2.6484 -2.3733
   12MOL   H18410766   7.591   1.060   0.884  0.3023  0.1330  1.0394
   12MOL   H18510767   7.473   0.983   0.980  0.4830 -0.9507  1.7307
   12MOL   H18610768   7.264   0.731   0.642  1.4452 -0.3045 -0.3737
   12MOL   H18710769   7.259   0.911   0.620 -0.5372 -0.0719  2.3088
   12MOL   H18810770   7.502   0.892   0.539  1.8247 -0.8518  2.8688
   12MOL   H18910771   7.389   0.810   0.436 -0.1846 -2.3085 -0.0447
   12MOL   H19010772   7.457   0.590   0.559  0.4616 -0.5623 -2.4937
   12MOL   H19110773   7.564   0.688   0.664  1.5401  2.2502 -1.1351
   12MOL   H19210774   7.709   0.577   0.524  0.8154  0.8527  0.3818
   12MOL   H19310775   7.708   0.746   0.470  2.5006 -1.6519  2.3265
   12MOL   O19410776   7.502   0.642   0.294  0.4570 -0.5943  0.0152
   12MOL   C19510777   7.476   0.616   0.160 -0.9432 -0.6321 -0.4876
   12MOL   C19610778   7.357   0.691   0.100 -0.5208  0.2965  0.3345
   12MOL   C19710779   7.220   0.628   0.133  0.0570  0.4226 -0.0700
   12MOL   C19810780   7.175   0.654   0.283  0.6600  0.2953 -0.9277
   12MOL   C19910781   7.040   0.594   0.325 -0.5716 -0.6660 -0.6045
   12MOL   C20010782   6.992   0.597   0.470 -0.0913  0.0026  0.3523
   12MOL   C20110783   6.990   0.746   0.512 -0.4871 -0.4246 -0.4558
   12MOL   C20210784   6.956   0.773   0.657  0.2318 -0.2385  0.6216
   12MOL   C20310785   6.817   0.728   0.692 -0.7107  0.2531 -0.0351
   12MOL   C20410786   6.762   0.802   0.813  0.7144  0.3216 -0.5479
   12MOL   O20510787   6.630   0.753   0.833  0.3310  0.2640  0.4409
   12MOL   C20610788   6.554   0.791   0.938 -0.0299 -0.1478  0.9001
   12MOL   O20710789   6.598   0.857   1.036  0.4946 -0.1130  0.1946
   12MOL   C20810790   6.412   0.734   0.931  0.1797  0.0076  0.2792
   12MOL   C20910791   6.333   0.800   0.816  0.1817 -0.0116 -0.1989
   12MOL   C21010792   6.302   0.952   0.837 -0.7885  0.4404 -0.2451
   12MOL   C21110793   6.183   0.958   0.932  0.4078 -0.5045 -0.1859
   12MOL   C21210794   6.157   1.098   0.982  0.6815 -0.3115  0.3279
   12MOL   O21310795   6.225   1.194   0.942 -0.3568  0.0484 -0.2613
   12MOL   H21410796   7.563   0.651   0.103 -0.3438 -0.5018  0.4997
   12MOL   H21510797   7.455   0.512   0.136 -3.1823 -0.2704 -0.1607
   12MOL   H21610798   7.365   0.678   7.756 -1.2725 -0.2537  0.3344
   12MOL   H21710799   7.369   0.799   0.105  2.1981  0.1142 -1.0035
   12MOL   H21810800   7.147   0.667   0.063  0.2685  0.5730 -0.2064
   12MOL   H21910801   7.221   0.520   0.119  1.8195  0.6158 -1.5246
   12MOL   H22010802   7.175   0.762   0.297  0.6630  0.3256 -1.1512
   12MOL   H22110803   7.259   0.615   0.341  0.2923 -1.2696 -1.4330
   12MOL   H22210804   7.040   0.503   0.266 -0.3058 -1.4368  0.5740
   12MOL   H22310805   6.966   0.652   0.270 -2.1442 -1.1452  0.9669
   12MOL   H22410806   7.057   0.547   0.542 -2.0711 -0.7404  1.6602
   12MOL   H22510807   6.893   0.554   0.486  0.5166 -2.2338 -1.6588
   12MOL   H22610808   6.920   0.796   0.446 -1.8871 -1.6108  0.0998
   12MOL   H22710809   7.080   0.803   0.490 -1.8679  0.7888 -3.1988
   12MOL   H22810810   6.955   0.880   0.676 -0.6760 -0.4929  2.1363
   12MOL   H22910811   7.037   0.737   0.720 -0.6304  1.0066  2.4701
   12MOL   H23010812   6.749   0.743   0.609  0.9672  0.2181 -1.4396
   12MOL   H23110813   6.816   0.621   0.715  2.6381 -0.5189 -3.0554
   12MOL   H23210814   6.751   0.908   0.793 -1.2048  0.6185  1.9182
   12MOL   H23310815   6.822   0.791   0.904 -0.6347 -0.6922  0.2349
   12MOL   H23410816   6.407   0.625   0.937  0.2404  0.0879  2.5156
   12MOL   H23510817   6.359   0.753   1.025  0.6162  0.8241  0.3604
   12MOL   H23610818   6.246   0.740   0.792  1.4894 -1.7157 -0.8477
   12MOL   H23710819   6.393   0.797   0.725  1.0179 -1.2466  0.3754
   12MOL   H23810820   6.272   0.991   0.740 -0.2366 -0.7835 -0.9079
   12MOL   H23910821   6.394   1.001   0.870  0.7914 -2.6831  0.1214
   12MOL   H24010822   6.199   0.899   1.022  0.8168  2.4121  1.7372
   12MOL   H24110823   6.095   0.924   0.876 -0.0016 -0.5600  0.4839
   12MOL   O24210824   6.042   1.097   1.067 -0.1907 -0.1750  0.2082
   12MOL   C24310825   5.997   1.211   1.136 -0.3752  0.1796 -0.4520
   12MOL   C24410826   6.085   1.246   1.264 -0.0116  0.2476 -0.4240
   12MOL   C24510827   6.058   1.164   1.389  0.6476 -0.4895 -0.7824
   12MOL   C24610828   6.118   1.228   1.522  0.5891  0.2149  0.0990
   12MOL   C24710829   6.109   1.127   1.639  0.2088  0.4190  0.9118
   12MOL   C24810830   6.160   1.189   1.779 -0.3500 -0.1753  0.1868
   12MOL   C24910831   6.153   1.073   1.890 -0.0142  0.8374  0.0702
   12MOL   C25010832   6.212   1.124   2.024 -0.6926  0.3764  0.2865
   12MOL   C25110833   6.305   1.019   2.091  0.5526  0.3034 -0.5639
   12MOL   C25210834   6.353   1.067   2.228  0.2111 -0.3864  0.0336
   12MOL   O25310835   6.242   1.093   2.313  0.0974 -0.6575  0.6196
   12MOL   C25410836   6.252   1.076   2.444 -0.0801  0.8372 -0.1662
   12MOL   O25510837   6.349   1.034   2.503  0.5950 -0.0505  0.2579
   12MOL   C25610838   6.134   1.135   2.518  0.3693 -0.3590  0.4645
   12MOL   C25710839   6.168   1.235   2.632  0.0992  0.4264  0.3450
   12MOL   C25810840   6.250   1.354   2.585 -0.3995  0.0052  0.7334
   12MOL   C25910841   6.318   1.420   2.708 -0.4968 -0.0022 -0.1734
   12MOL   C26010842   6.408   1.538   2.675  0.7012  0.3002  0.3318
   12MOL   O26110843   6.509   1.528   2.605  0.4029  0.6327  0.0935
   12MOL   H26210844   5.992   1.293   1.065  2.2017 -0.5347 -1.5126
   12MOL   H26310845   5.895   1.197   1.172 -1.1351  0.1249 -2.5784
   12MOL   H26410846   6.052   1.346   1.292  1.0281 -0.2677  2.9461
   12MOL   H26510847   6.191   1.243   1.239  0.1802  1.6668  0.1845
   12MOL   H26610848   5.953   1.146   1.411  0.6515 -0.4462 -0.7300
   12MOL   H26710849   6.106   1.067   1.380  0.8413 -0.2451 -2.6094
   12MOL   H26810850   6.073   1.324   1.549 -0.4626 -0.2752  0.1490
   12MOL   H26910851   6.220   1.253   1.497  0.2135  0.8021 -0.8692
   12MOL   H27010852   6.162   1.037   1.608  0.5089  0.5806  0.9550
   12MOL   H27110853   6.010   1.087   1.658  0.7213 -0.9048  0.8544
   12MOL   H27210854   6.097   1.274   1.803 -0.6336 -0.6168  1.0195
   12MOL   H27310855   6.260   1.227   1.759 -0.0670  1.0033  3.5463
   12MOL   H27410856   6.212   0.989   1.853 -0.7703  0.6437 -0.7111
   12MOL   H27510857   6.053   1.030   1.890  0.3738 -0.0577 -0.2357
   12MOL   H27610858   6.136   1.169   2.088 -0.4774  1.9678 -0.5558
   12MOL   H27710859   6.265   1.216   1.999 -0.6663  0.8205  1.8960
   12MOL   H27810860   6.243   0.934   2.117  0.4440  1.3394  2.7815
   12MOL   H27910861   6.393   1.003   2.029  0.8323  0.1464 -0.1320
   12MOL   H28010862   6.402   1.164   2.218 -0.0762 -0.2195  0.2430
   12MOL   H28110863   6.417   0.992   2.275  3.7153  3.2222  1.3221
   12MOL   H28210864   6.064   1.184   2.450 -0.7910 -0.1353  1.7979
   12MOL   H28310865   6.085   1.048   2.561  2.8769 -1.1250  1.8020
   12MOL   H28410866   6.225   1.180   2.707 -0.4199  0.9733  1.1545
   12MOL   H28510867   6.080   1.278   2.680 -1.2027 -0.9771 -0.7396
   12MOL   H28610868   6.192   1.439   2.548 -0.8914  0.4936  2.5770
   12MOL   H28710869   6.327   1.323   2.515 -1.5169  0.3003 -0.6604
   12MOL   H28810870   6.375   1.339   2.754 -2.8630 -1.8413 -0.3573
   12MOL   H28910871   6.239   1.455   2.775 -1.2017 -1.4686 -0.2174
   12MOL   O29010872   6.370   1.647   2.739 -0.1070 -0.0695  0.8333
   12MOL   C29110873   6.425   1.778   2.694  0.8856  0.7386 -0.1580
   12MOL   C29210874   6.555   1.802   2.773 -0.1259 -0.0407  0.1082
   12MOL   C29310875   6.529   1.780   2.920 -0.0999  0.2547 -0.8255
   12MOL   C29410876   6.659   1.783   3.012  0.2383  0.3064  0.1362
   12MOL   C29510877   6.625   1.727   3.155  0.0349 -0.1327 -0.9978
   12MOL   C29610878   6.738   1.679   3.253  0.6688  0.5813 -0.5023
   12MOL   C29710879   6.784   1.539   3.211 -0.4883  0.3892 -0.6216
   12MOL   C29810880   6.882   1.492   3.316 -0.7294 -0.0041 -0.0885
   12MOL   C29910881   7.017   1.557   3.308  0.1360  0.5698 -0.1720
   12MOL   C30010882   7.114   1.506   3.415  0.1510 -0.3369 -0.9524
   12MOL   O30110883   7.247   1.555   3.397 -0.1114 -0.2699 -0.6950
   12MOL   C30210884   7.328   1.481   3.323  0.8997 -0.2220  0.4098
   12MOL   O30310885   7.306   1.387   3.256 -0.3824  0.4567 -0.0536
   12MOL   C30410886   7.475   1.542   3.323  0.1454  0.2592  0.9904
   12MOL   C30510887   7.555   1.492   3.201 -0.0158  0.2702 -0.2913
   12MOL   C30610888   7.650   1.378   3.233  0.1743 -0.1528 -0.0610
   12MOL   C30710889   7.720   1.332   3.107  0.5050 -0.2591 -0.1985
   12MOL   C30810890   0.084   1.252   3.132 -0.2928 -0.0611 -0.3801
   12MOL   O30910891   0.182   1.282   3.068  0.3058 -0.0284  1.0719
   12MOL   H31010892   6.433   1.776   2.585  2.5635 -1.5871 -0.0316
   12MOL   H31110893   6.353   1.857   2.716  2.0047  1.0499  2.5774
   12MOL   H31210894   6.590   1.903   2.753  0.4318 -0.5221 -1.3974
   12MOL   H31310895   6.633   1.737   2.733  0.6794  0.8776  0.1657
   12MOL   H31410896   6.465   1.857   2.963  1.3520  0.5118  0.9150
   12MOL   H31510897   6.483   1.682   2.932 -1.2881  0.9905  0.7579
   12MOL   H31610898   6.709   1.879   2.998  0.1399  0.0652 -2.0333
   12MOL   H31710899   6.728   1.712   2.968  1.7333  2.5482 -1.2324
   12MOL   H31810900   6.550   1.649   3.145 -1.9288  1.8535 -2.1841
   12MOL   H31910901   6.574   1.809   3.206  0.2398 -0.6071 -0.0307
   12MOL   H32010902   6.685   1.678   3.348  1.5897 -3.8007  0.0866
   12MOL   H32110903   6.815   1.755   3.262 -1.2462  2.6410 -0.9908
   12MOL   H32210904   6.830   1.539   3.112 -1.7488 -1.0797 -1.2313
   12MOL   H32310905   6.710   1.459   3.212  1.3502 -1.3647 -1.8327
   12MOL   H32410906   6.901   1.388   3.291 -2.0625 -0.4395  0.6798
   12MOL   H32510907   6.825   1.501   3.408 -1.8286  0.7587 -0.8297
   12MOL   H32610908   7.059   1.521   3.214  0.3844 -0.7603  0.4468
   12MOL   H32710909   7.010   1.666   3.302 -2.7224  0.5068  1.1704
   12MOL   H32810910   7.110   1.397   3.417 -2.5056 -0.2648  0.3290
   12MOL   H32910911   7.081   1.519   3.518 -0.0186  2.3599 -1.3305
   12MOL   H33010912   7.469   1.650   3.310  0.5255 -0.0077 -1.7302
   12MOL   H33110913   7.529   1.525   3.416 -1.6277 -2.2672  1.6194
   12MOL   H33210914   7.612   1.576   3.160  0.3821 -0.3949 -1.1220
   12MOL   H33310915   7.485   1.460   3.123 -0.6022 -1.8516  1.0918
   12MOL   H33410916   7.603   1.294   3.285  0.8205 -0.3928  0.1336
   12MOL   H33510917   7.725   1.412   3.304  0.4075 -1.6857  0.4479
   12MOL   H33610918   7.748   1.416   3.044  0.1681  0.5024  0.6663
   12MOL   H33710919   7.655   1.273   3.042  0.0588 -0.1808  0.1739
   12MOL   O33810920   0.070   1.159   3.231 -0.2204 -0.0076 -0.5660
   12MOL   C33910921   0.194   1.104   3.271 -0.2457  0.3761 -0.3093
   12MOL   C34010922   0.182   0.996   3.382 -0.2318 -0.1819 -0.0577
   12MOL   C34110923   0.330   0.958   3.421  0.8836  0.5076 -0.2128
   12MOL   C34210924   0.391   0.870   3.318 -0.4842  1.0553  0.4284
   12MOL   C34310925   0.363   0.721   3.332  0.2250 -0.7789  0.7510
   12MOL   C34410926   0.444   0.625   3.249 -0.1533 -0.7414  0.3051
   12MOL   C34510927   0.390   0.482   3.251 -0.0597  0.7519 -0.3535
   12MOL   C34610928   0.485   0.377   3.187 -0.5270 -0.6873  0.1443
   12MOL   C34710929   0.430   0.240   3.228 -0.3775 -0.5157 -0.0497
   12MOL   C34810930   0.525   0.126   3.186  0.1689 -0.3102 -0.4690
   12MOL   O34910931   0.527   0.093   3.047  0.5697 -0.0449  0.5384
   12MOL   C35010932   0.593   7.750   3.008  0.7059  0.2334 -0.0801
   12MOL   O35110933   0.654   7.673   3.079  0.0143 -0.0619 -0.0980
   12MOL   C35210934   0.582   7.721   2.855 -0.2520  0.5163 -0.1434
   12MOL   C35310935   0.431   7.726   2.802  0.0968  0.2333 -0.7806
   12MOL   C35410936   0.421   7.733   2.652  0.2782  0.0129 -0.4914
   12MOL   C35510937   0.273   7.707   2.612  0.9931  0.1343 -0.1686
   12MOL   C35610938   0.238   7.706   2.468  0.5869 -0.8567  0.2415
   12MOL   O35710939   0.315   7.751   2.387  0.0487  0.3493 -0.3238
   12MOL   H35810940   0.246   1.071   3.182 -1.8018 -0.5189 -0.9008
   12MOL   H35910941   0.251   1.187   3.312 -0.4912 -1.3917  3.8707
   12MOL   H36010942   0.130   0.907   3.349  0.5257 -0.2718 -1.0515
   12MOL   H36110943   0.135   1.041   3.469 -0.8270  0.7434 -0.8390
   12MOL   H36210944   0.387   1.047   3.447  1.9045  0.1050 -1.0482
   12MOL   H36310945   0.315   0.900   3.512 -0.0014 -0.1911 -0.7799
   12MOL   H36410946   0.499   0.883   3.328 -0.4092  0.2242  0.7860
   12MOL   H36510947   0.362   0.895   3.216 -1.4467 -0.8285  0.2191
   12MOL   H36610948   0.259   0.696   3.314  0.4451 -1.3335  0.2292
   12MOL   H36710949   0.388   0.694   3.435  0.7372  0.7478  1.0445
   12MOL   H36810950   0.547   0.628   3.285  0.4661 -0.8329 -1.4240
   12MOL   H36910951   0.439   0.659   3.146  0.0136  3.4049  1.5707
   12MOL   H37010952   0.290   0.471   3.208  0.3281 -0.2378 -1.0046
   12MOL   H37110953   0.357   0.455   3.351 -1.4496  1.2799 -0.6464
   12MOL   H37210954   0.587   0.392   3.223  0.3118  0.5203 -2.5528
   12MOL   H37310955   0.495   0.386   3.078  0.2356  0.0795  0.2641
   12MOL   H37410956   0.421   0.232   3.336  0.7938  0.2512  0.1154
   12MOL   H37510957   0.339   0.221   3.172  1.2288 -0.9868 -2.6096
   12MOL   H37610958   0.483   0.038   3.234  0.9138 -0.7295 -0.5813
   12MOL   H37710959   0.629   0.123   3.217  0.1367  0.3214 -0.3023
   12MOL   H37810960   0.652   0.023   2.804  0.5864 -1.1607 -1.2034
   12MOL   H37910961   0.610   7.618   2.837 -0.0774  0.8600 -1.8978
   12MOL   H38010962   0.394   0.057   2.838 -2.2447 -0.9391  0.0376
   12MOL   H38110963   0.373   7.640   2.837 -1.1649  1.6644  0.6990
   12MOL   H38210964   0.484   7.655   2.609  0.4718 -1.3434  2.1386
   12MOL   H38310965   0.464   0.064   2.622 -0.5274  1.5814  3.1216
   12MOL   H38410966   0.231   0.039   2.640 -0.4295 -0.9341  1.4497
   12MOL   H38510967   0.216   7.630   2.664 -0.3069  1.4326  0.3515
   12MOL   O38610968   0.128   7.634   2.441  0.1723  0.1128 -0.3655
   12MOL   C38710969   0.075   7.622   2.313  0.2432  0.8028 -0.4927
   12MOL   C38810970   7.697   7.561   2.319  0.3158 -0.3483 -0.6801
   12MOL   C38910971   7.654   7.506   2.188  0.1487  0.2968 -0.5178
   12MOL   C39010972   7.509   7.481   2.194 -0.1989  0.3343 -0.2533
   12MOL   C39110973   7.461   7.391   2.077 -0.3015  0.1485 -0.0830
   12MOL   C39210974   7.301   7.370   2.074 -0.3266  0.0328  0.0616
   12MOL   C39310975   7.258   7.284   1.957  0.3333 -0.5670 -0.3162
   12MOL   C39410976   7.110   7.263   1.935  0.2619  0.4125 -0.2319
   12MOL   C39510977   7.085   7.143   1.844  0.7180  0.1529 -0.7816
   12MOL   C39610978   6.940   7.088   1.848  0.0800  1.0027  0.2174
   12MOL   O39710979   6.932   7.006   1.964  0.1075  0.5670  0.6566
   12MOL   C39810980   6.822   7.019   2.049 -0.2386  1.1675 -0.1024
   12MOL   O39910981   6.725   7.087   2.033  0.2603  0.3090 -0.2735
   12MOL   C40010982   6.841   6.945   2.181 -0.2416  0.3547 -0.1695
   12MOL   C40110983   6.867   6.796   2.182 -0.6289  0.2116 -0.1778
   12MOL   C40210984   6.765   6.712   2.108 -0.6236 -0.0377  0.3617
   12MOL   C40310985   6.616   6.712   2.163  0.0051 -0.2622  0.5142
   12MOL   C40410986   6.600   6.623   2.287 -0.1689 -0.0225  0.8895
   12MOL   O40510987   6.521   6.529   2.290 -0.2008  1.0696  0.0698
   12MOL   H40610988   0.068   7.715   2.257  1.0213  1.6510  0.8013
   12MOL   H40710989   0.134   7.548   2.258  0.4391 -0.7051  1.6590
   12MOL   H40810990   7.638   7.650   2.340 -1.2314 -1.7726  1.1822
   12MOL   H40910991   7.685   7.486   2.396  1.7940 -0.5282 -0.6091
   12MOL   H41010992   7.687   7.570   2.107 -1.1051 -1.2364 -2.2793
   12MOL   H41110993   7.699   7.407   2.176  1.2428  0.6642  0.4608
   12MOL   H41210994   7.457   7.576   2.184  0.3259  0.4331 -2.3929
   12MOL   H41310995   7.464   7.432   2.280 -0.4633 -1.9260 -1.6107
   12MOL   H41410996   7.506   7.292   2.083  1.7785  1.0629 -0.3958
   12MOL   H41510997   7.493   7.432   1.982 -0.7098 -1.0656 -0.7575
   12MOL   H41610998   7.248   7.465   2.071  0.0219  0.2636  0.8546
   12MOL   H41710999   7.272   7.322   2.168 -1.8677  0.9025  0.0488
   12MOL   H41811000   7.314   7.191   1.951  1.1926 -0.0087 -1.0128
   12MOL   H41911001   7.289   7.333   1.864  0.3644  0.2619  0.1271
   12MOL   H42011002   7.075   7.356   1.890 -0.6633 -0.2333 -0.8630
   12MOL   H42111003   7.055   7.259   2.030  1.1800  0.7450  0.3236
   12MOL   H42211004   7.103   7.182   1.744 -1.0875  1.6634 -0.5447
   12MOL   H42311005   7.162   7.066   1.854  0.8332  0.4544  0.7232
   12MOL   H42411006   6.921   7.029   1.759 -0.1408  0.1550  0.8163
   12MOL   H42511007   6.872   7.173   1.854 -1.3503 -0.0614 -0.5705
   12MOL   H42611008   6.929   6.981   2.234 -0.7275  0.8601  0.2915
   12MOL   H42711009   6.752   6.964   2.240  0.3545  1.4924  0.3809
   12MOL   H42811010   6.868   6.759   2.284 -3.6528  0.5864  0.0433
   12MOL   H42911011   6.962   6.763   2.140  0.4024 -1.2435  3.1443
   12MOL   H43011012   6.805   6.611   2.116 -1.7379 -0.5440 -0.4480
   12MOL   H43111013   6.767   6.727   2.000 -0.8759 -0.8993  0.2348
   12MOL   H43211014   6.539   6.675   2.096  1.8211  0.2715 -1.9255
   12MOL   H43311015   6.570   6.809   2.177 -0.6689 -0.4352 -0.4655
   12MOL   O43411016   6.680   6.653   2.388  0.1330  0.3180 -0.1439
   12MOL   C43511017   6.673   6.573   2.503  0.5359  0.5220 -0.1777
   12MOL   C43611018   6.745   6.440   2.494 -0.1317  0.5220 -0.0306
   12MOL   C43711019   6.903   6.448   2.483 -0.7612 -0.5451  1.0229
   12MOL   C43811020   6.967   6.308   2.479 -0.7671  0.1788 -0.3087
   12MOL   C43911021   7.120   6.309   2.512  0.0550  1.4813 -0.5772
   12MOL   C44011022   7.208   6.402   2.425 -0.5688  0.4608 -0.1112
   12MOL   C44111023   7.355   6.371   2.443  1.4171  0.0318  0.0329
   12MOL   C44211024   7.441   6.459   2.352 -0.4104 -0.3882  0.5910
   12MOL   C44311025   7.596   6.436   2.365  0.0074  0.2466  0.0914
   12MOL   C44411026   7.666   6.564   2.317 -0.1763 -0.3436  0.5269
   12MOL   O44511027   7.652   6.677   2.400  0.0389 -0.4621  0.1944
   12MOL   C44611028   7.739   6.777   2.396 -0.4902 -0.4292 -0.1637
   12MOL   O44711029   0.079   6.776   2.341 -0.4243 -0.4737  0.7272
   12MOL   C44811030   7.703   6.890   2.483 -0.0558  0.1960  0.1181
   12MOL   C44911031   7.764   7.028   2.462 -0.1706  0.0879  0.1180
   12MOL   C45011032   0.120   7.058   2.541 -0.1572 -0.0143 -0.4421
   12MOL   C45111033   0.148   7.209   2.552 -1.1160  0.1786  0.4684
   12MOL   C45211034   0.264   7.262   2.639  0.1295  0.5142 -0.1567
   12MOL   O45311035   0.369   7.298   2.587 -0.1106  0.7083 -0.2044
   12MOL   H45411036   6.719   6.639   2.577  0.8507 -1.1050  1.0943
   12MOL   H45511037   6.568   6.557   2.529 -0.1231  0.8191 -2.5106
   12MOL   H45611038   6.703   6.379   2.415 -0.2325  0.8539 -0.2344
   12MOL   H45711039   6.725   6.383   2.584  0.0881 -1.1478 -1.0300
   12MOL   H45811040   6.928   6.513   2.399 -0.5138 -0.1332  1.4111
   12MOL   H45911041   6.938   6.497   2.574  0.9266  0.7437 -0.2685
   12MOL   H46011042   6.955   6.261   2.381 -1.5670  0.0028 -0.1246
   12MOL   H46111043   6.899   6.251   2.542 -2.0812 -0.4682 -2.2469
   12MOL   H46211044   7.159   6.208   2.519  0.0539  1.5359  0.2594
   12MOL   H46311045   7.125   6.336   2.618  0.9600 -0.1910 -0.1699
   12MOL   H46411046   7.188   6.504   2.456 -0.6990  0.3558  0.1540
   12MOL   H46511047   7.190   6.389   2.318  3.0280 -0.9201 -0.5974
   12MOL   H46611048   7.375   6.268   2.413  2.4355 -0.0302  0.8927
   12MOL   H46711049   7.383   6.382   2.547 -0.6468 -0.5644  0.6868
   12MOL   H46811050   7.428   6.563   2.384  0.8228 -0.1808  0.4409
   12MOL   H46911051   7.412   6.465   2.248  0.4915  0.4612  0.3707
   12MOL   H47011052   7.626   6.425   2.469  0.4202  0.6147  0.0129
   12MOL   H47111053   7.623   6.347   2.309 -2.3795 -0.4865  0.0532
   12MOL   H47211054   7.633   6.594   2.217  0.9290 -1.7169 -0.2762
   12MOL   H47311055   0.007   6.536   2.309 -0.7705 -3.3051  2.5358
   12MOL   H47411056   7.596   6.907   2.472 -0.2726 -0.2614  1.4073
   12MOL   H47511057   7.724   6.867   2.588 -1.1210  0.0004  0.2985
   12MOL   H47611058   7.675   7.091   2.471 -0.6445 -0.1069 -2.7325
   12MOL   H47711059   0.025   7.040   2.356  0.6409 -1.0503  0.1811
   12MOL   H47811060   0.209   7.009   2.502 -1.1298 -1.8178 -0.4391
   12MOL   H47911061   0.112   7.020   2.643  1.4069 -0.7095 -0.5613
   12MOL   H48011062   0.060   7.256   2.595 -1.4112 -0.8117  0.9719
   12MOL   H48111063   0.173   7.234   2.449  1.1105 -0.9614  0.6758
   12MOL   O48211064   0.233   7.260   2.770 -0.0497 -0.1206  0.3133
   12MOL   C48311065   0.331   7.302   2.863  0.9047 -0.0989 -0.0351
   12MOL   C48411066   0.253   7.366   2.980  0.2931  0.6460 -0.1700
   12MOL   C48511067   0.337   7.414   3.098  0.4931 -0.0259 -0.0886
   12MOL   C48611068   0.256   7.451   3.223  0.1218  0.0564 -0.0008
   12MOL   C48711069   0.337   7.491   3.353  0.1629 -0.1155  0.1321
   12MOL   C48811070   0.251   7.478   3.479 -0.1013 -0.2018 -0.1798
   12MOL   C48911071   0.296   7.559   3.596 -0.3371  0.1438 -0.6525
   12MOL   C49011072   0.414   7.485   3.684  1.4667 -0.0442 -0.3037
   12MOL   C49111073   0.491   7.578   3.781  0.2991  0.1740  0.6462
   12MOL   C49211074   0.572   7.686   3.708 -0.0992 -0.4185  0.3662
   12MOL   O49311075   0.657   0.002   3.790  0.0645  0.5398  0.1993
   12MOL   C49411076   0.787   7.730   3.795 -1.1472 -1.2545  0.0628
   12MOL   O49511077   0.829   7.617   3.783 -0.3010  0.3334 -0.2709
   12MOL   C49611078   0.878   0.083   3.832  0.0104 -0.8340  0.5801
   12MOL   C49711079   1.000   0.090   3.733 -0.5551  0.2748  0.6451
   12MOL   C49811080   1.117   0.176   3.796  0.0496 -0.1648 -0.5361
   12MOL   C49911081   1.097   0.332   3.800  0.6982  0.3177  0.3038
   12MOL   C50011082   1.015   0.387   3.916  0.0035  0.8628  0.4011
   12MOL   O50111083   1.034   0.356   4.038 -0.4969 -0.3417 -1.1274
   12MOL   H50211084   0.391   7.215   2.889 -0.1668 -1.1340 -0.9133
   12MOL   H50311085   0.397   7.380   2.827  0.5546  0.2904  0.1674
   12MOL   H50411086   0.189   7.286   3.017  1.3796  0.7671  2.0933
   12MOL   H50511087   0.179   7.439   2.949 -1.1029 -1.2931 -1.5011
   12MOL   H50611088   0.414   7.345   3.131  0.4671 -0.4227 -0.8475
   12MOL   H50711089   0.394   7.505   3.079  1.7900 -0.8554 -0.2570
   12MOL   H50811090   0.197   7.364   3.250 -0.5085  0.8631  1.3018
   12MOL   H50911091   0.182   7.528   3.203 -1.5888 -2.3617 -3.3812
   12MOL   H51011092   0.363   7.595   3.331 -0.1512  0.0891  0.7235
   12MOL   H51111093   0.430   7.435   3.349  1.4467  1.9865 -0.6745
   12MOL   H51211094   0.233   7.374   3.505  0.0729 -0.2582 -0.2827
   12MOL   H51311095   0.153   7.515   3.451  0.4825  0.3952 -1.4784
   12MOL   H51411096   0.214   7.584   3.663 -0.1193  1.8719 -0.9945
   12MOL   H51511097   0.321   7.657   3.556 -1.1545  0.9513  0.7755
   12MOL   H51611098   0.488   7.443   3.617  0.5694 -1.3993 -0.4663
   12MOL   H51711099   0.365   7.402   3.735 -0.9109  1.9287  0.7436
   12MOL   H51811100   0.434   7.619   3.864 -1.1586  1.5280 -0.9882
   12MOL   H51911101   0.564   7.509   3.824  1.2879  0.0608 -1.1460
   12MOL   H52011102   0.497   7.754   3.668  2.1485  0.4270 -2.6106
   12MOL   H52111103   0.604   7.652   3.609 -2.0527 -0.0077 -0.4345
   12MOL   H52211104   0.820   0.175   3.826  0.2882 -0.3667  4.2217
   12MOL   H52311105   0.914   0.061   3.932  2.1885 -0.0647  0.0063
   12MOL   H52411106   0.968   0.116   3.632  2.0117  0.2805 -0.1882
   12MOL   H52511107   1.030   7.750   3.725 -1.3370  0.1837 -1.3758
   12MOL   H52611108   1.210   0.149   3.746  1.4198 -1.4454  2.5796
   12MOL   H52711109   1.136   0.147   3.900 -0.2904  2.9557  0.4430
   12MOL   H52811110   1.054   0.363   3.705  2.2333  0.3524 -0.4077
   12MOL   H52911111   1.195   0.378   3.787  1.1469 -1.1972 -1.9031
   12MOL   O53011112   0.937   0.491   3.875 -0.3492 -0.7064  0.1173
   12MOL   C53111113   0.894   0.583   3.972 -0.2409  0.4105 -0.0076
   12MOL   C53211114   0.771   0.663   3.919  0.2816  0.2852  0.3364
   12MOL   C53311115   0.810   0.741   3.788 -0.1046  0.6492 -0.4879
   12MOL   C53411116   0.692   0.813   3.729 -0.8764  0.5158  0.4491
   12MOL   C53511117   0.701   0.879   3.588 -0.5029  0.4352  0.0204
   12MOL   C53611118   0.796   0.997   3.583  0.5239 -0.2945 -0.1801
   12MOL   C53711119   0.750   1.115   3.664 -0.4505  0.5717  0.3687
   12MOL   C53811120   0.814   1.244   3.615  0.2364 -0.1272  0.3624
   12MOL   C53911121   0.774   1.366   3.698 -0.1033 -0.0980 -0.3880
   12MOL   C54011122   0.822   1.506   3.636 -0.4861  0.0482 -0.4438
   12MOL   O54111123   0.964   1.498   3.630  0.2875  0.5525 -0.1299
   12MOL   C54211124   1.040   1.554   3.726  0.4308 -0.0836  0.3386
   12MOL   O54311125   0.995   1.623   3.811  0.1305 -0.2676 -0.0342
   12MOL   C54411126   1.192   1.525   3.714  0.0491  0.0795  0.2663
   12MOL   C54511127   1.225   1.379   3.693  0.0800  0.7767 -0.2915
   12MOL   C54611128   1.374   1.339   3.716  0.0135  0.3189 -0.1831
   12MOL   C54711129   1.396   1.193   3.712  0.1492 -0.4461  0.5573
   12MOL   C54811130   1.542   1.153   3.681 -0.2445 -0.1687  0.0827
   12MOL   O54911131   1.639   1.222   3.705 -0.5091  0.0567  0.2016
   12MOL   H55011132   0.864   0.536   4.066 -0.2974  2.1267  0.8445
   12MOL   H55111133   0.971   0.652   4.004  0.5245 -0.6607  0.5034
   12MOL   H55211134   0.742   0.742   3.989  1.6567  0.5686  0.6047
   12MOL   H55311135   0.688   0.594   3.907  0.9324 -0.4899  0.2567
   12MOL   H55411136   0.886   0.815   3.812  1.6140 -1.0315 -0.5856
   12MOL   H55511137   0.845   0.680   3.704  1.5857  0.7746  0.1101
   12MOL   H55611138   0.641   0.885   3.793 -0.7848  1.1553 -0.1892
   12MOL   H55711139   0.608   0.744   3.714 -1.3466  1.0710  0.4980
   12MOL   H55811140   0.610   0.907   3.536  0.0723  1.1282 -0.6361
   12MOL   H55911141   0.742   0.811   3.514  0.6967  0.5397  0.5706
   12MOL   H56011142   0.791   1.018   3.476 -0.3074 -0.0198 -0.0901
   12MOL   H56111143   0.893   0.959   3.614  1.5618  1.6329 -1.0062
   12MOL   H56211144   0.761   1.104   3.772 -0.4919  3.0690  0.6568
   12MOL   H56311145   0.644   1.138   3.647 -1.0369 -0.8927  1.8979
   12MOL   H56411146   0.774   1.258   3.515 -1.3921  2.6062  1.3327
   12MOL   H56511147   0.923   1.234   3.614  0.3018  0.5896 -0.5951
   12MOL   H56611148   0.665   1.370   3.708  0.0160  0.0517  0.9423
   12MOL   H56711149   0.813   1.365   3.799  1.3305  1.7352 -0.8914
   12MOL   H56811150   0.786   1.587   3.700  0.1692  0.1461 -0.2029
   12MOL   H56911151   0.782   1.531   3.537 -0.8211 -2.6078 -1.0062
   12MOL   H57011152   1.238   1.587   3.637  3.0238 -2.5399 -0.2088
   12MOL   H57111153   1.245   1.560   3.802 -0.7063  1.2019  0.2816
   12MOL   H57211154   1.207   1.347   3.590 -3.1833 -0.8001  0.7030
   12MOL   H57311155   1.167   1.307   3.751  0.9424 -0.5102 -0.9966
   12MOL   H57411156   1.408   1.366   3.816 -1.0832  0.4893  0.1530
   12MOL   H57511157   1.445   1.392   3.653  1.6703  1.7404  2.7511
   12MOL   H57611158   1.340   1.150   3.629  3.5668 -1.6253 -1.2236
   12MOL   H57711159   1.361   1.135   3.798 -0.7316 -1.5725 -0.5382
   12MOL   O57811160   1.553   1.029   3.623 -0.4732 -0.0078  0.9488
   12MOL   C57911161   1.677   0.981   3.576 -0.6298  0.4268  0.1101
   12MOL   C58011162   1.668   0.825   3.561 -0.0708  0.6557  0.3291
   12MOL   C58111163   1.675   0.740   3.691 -0.0570  0.4004  0.0550
   12MOL   C58211164   1.597   0.598   3.665  0.1759  1.2028 -0.3706
   12MOL   C58311165   1.573   0.526   3.801 -0.2209 -0.0696 -0.1734
   12MOL   C58411166   1.509   0.385   3.793  0.2920 -0.3876  0.4603
   12MOL   C58511167   1.491   0.326   3.931  0.3648  0.2894 -1.1058
   12MOL   C58611168   1.449   0.180   3.941 -0.1781  0.3909  0.7842
   12MOL   C58711169   1.566   0.088   3.939  0.0123 -0.1404  0.0537
   12MOL   C58811170   1.535   7.706   3.931 -0.8549  0.0786 -0.0466
   12MOL   O58911171   1.491   7.647   4.049  0.2433 -0.1008  0.0697
   12MOL   C59011172   1.460   7.516   4.060  0.1164 -0.1407  0.5157
   12MOL   O59111173   1.502   7.431   3.988  0.1028 -0.0618  0.3935
   12MOL   C59211174   1.356   7.475   4.162  0.1321 -0.2667 -0.6171
   12MOL   C59311175   1.234   7.582   4.171 -0.6713  0.1538 -0.8472
   12MOL   C59411176   1.123   7.593   4.062  0.4826  0.3892 -0.6697
   12MOL   C59511177   1.081   7.468   3.986 -0.5671 -0.6295 -0.2502
   12MOL   C59611178   1.008   7.364   4.077  0.2717  0.3610  0.3104
   12MOL   O59711179   0.886   7.369   4.088 -0.3341  0.1894 -0.9709
   12MOL   H59811180   1.690   1.024   3.476  1.9709  5.0300  2.2957
   12MOL   H59911181   1.762   1.019   3.632 -1.1330 -0.2300  1.3491
   12MOL   H60011182   1.751   0.785   3.502 -0.9463 -0.6818 -0.0212
   12MOL   H60111183   1.583   0.792   3.502  0.1024 -1.5980  1.2804
   12MOL   H60211184   1.777   0.714   3.717 -0.0636 -0.9531 -1.2240
   12MOL   H60311185   1.622   0.804   3.762  0.4110  1.1646 -0.2686
   12MOL   H60411186   1.646   0.542   3.586  0.1395 -0.9157  1.0819
   12MOL   H60511187   1.495   0.620   3.631 -1.4895 -5.0760 -0.0215
   12MOL   H60611188   1.490   0.573   3.854  0.8980  0.0167  1.5460
   12MOL   H60711189   1.659   0.526   3.868 -0.5602  0.2471  0.2704
   12MOL   H60811190   1.579   0.326   3.734  1.4601 -0.6199  2.0404
   12MOL   H60911191   1.416   0.391   3.736  1.5891 -0.4441 -1.7121
   12MOL   H61011192   1.401   0.370   3.974  0.2682  2.2240 -3.1698
   12MOL   H61111193   1.576   0.350   3.995  0.4261  0.7657 -1.3634
   12MOL   H61211194   1.367   0.149   3.876 -0.0190 -0.9453  1.2037
   12MOL   H61311195   1.389   0.160   4.031 -1.2233  0.6488  0.1496
   12MOL   H61411196   1.624   0.117   3.852  2.1337 -1.1918  1.0742
   12MOL   H61511197   1.628   0.103   4.027 -0.0515  1.2741 -0.1383
   12MOL   H61611198   1.622   7.645   3.904  0.0309  1.1315  0.4119
   12MOL   H61711199   1.460   7.699   3.852 -0.5611  0.5368 -0.3678
   12MOL   H61811200   1.301   7.382   4.151 -0.1745 -0.0507 -0.9286
   12MOL   H61911201   1.404   7.455   4.258 -1.8695 -0.5840  0.3309
   12MOL   H62011202   1.277   7.678   4.198  0.5600 -1.3921  3.0416
   12MOL   H62111203   1.176   7.563   4.261 -2.0512  1.8500 -1.3460
   12MOL   H62211204   1.143   7.676   3.993 -0.5458  0.8616 -0.4204
   12MOL   H62311205   1.040   7.632   4.122  0.6360 -1.3745  0.7013
   12MOL   H62411206   1.171   7.423   3.943 -0.4357 -1.2259  0.6390
   12MOL   H62511207   1.026   7.505   3.899 -1.4581  3.1510  1.8468
   12MOL   O62611208   1.073   7.268   4.147 -0.3504 -0.4994 -0.1271
   12MOL   C62711209   1.002   7.176   4.227 -0.0965 -0.3248 -0.0214
   12MOL   C62811210   0.967   7.040   4.152  0.2142  0.6337 -0.0146
   12MOL   C62911211   0.882   6.934   4.230  0.2684 -0.1641 -0.3722
   12MOL   C63011212   0.844   6.804   4.153 -0.6389  0.4973  0.4781
   12MOL   C63111213   0.832   6.676   4.232 -0.1324 -0.3337  0.4809
   12MOL   C63211214   0.705   6.666   4.306  0.0104  0.4526 -0.0611
   12MOL   C63311215   0.689   6.535   4.383 -0.7706 -0.4729 -0.1380
   12MOL   C63411216   0.551   6.515   4.442  0.6611 -0.4772  0.3856
   12MOL   C63511217   0.450   6.470   4.334  0.6441 -0.1382  0.4378
   12MOL   C63611218   0.318   6.415   4.376  0.2516  1.2260  0.1666
   12MOL   O63711219   0.241   6.513   4.446 -0.4218 -0.2240 -0.1114
   12MOL   C63811220   0.232   6.514   4.579  0.0775 -0.1331 -0.4449
   12MOL   O63911221   0.280   6.425   4.657 -0.0122 -0.3671  0.7843
   12MOL   C64011222   0.152   6.635   4.632  0.0174 -0.1897  0.2831
   12MOL   C64111223   0.147   6.637   4.786 -0.1354  0.0157 -0.0188
   12MOL   C64211224   0.109   6.781   4.823 -0.2505 -0.3494  0.2117
   12MOL   C64311225   0.138   6.830   4.971 -0.2441  0.8593  0.3567
   12MOL   C64411226   0.024   6.772   5.059  0.9037  0.1403  0.1787
   12MOL   O64511227   7.694   6.846   5.082  0.7052  0.3011 -0.0909
   12MOL   H64611228   1.080   7.153   4.300  0.9481 -2.1439 -1.6574
   12MOL   H64711229   0.917   7.225   4.273 -2.1448 -1.7745 -2.1492
   12MOL   H64811230   1.060   6.993   4.120 -0.0078 -1.3234  2.0723
   12MOL   H64911231   0.902   7.079   4.073  0.0956  2.3429  0.9055
   12MOL   H65011232   0.929   6.911   4.326 -1.3336  3.4390  1.3326
   12MOL   H65111233   0.794   6.984   4.268 -0.8857 -1.9570 -0.6180
   12MOL   H65211234   0.931   6.786   4.090 -1.6720 -0.2430 -0.7481
   12MOL   H65311235   0.769   6.823   4.076 -1.2491 -0.5103  0.8170
   12MOL   H65411236   0.916   6.648   4.296  0.2127  2.9779  1.5702
   12MOL   H65511237   0.829   6.598   4.155 -0.9683  0.5622 -0.4071
   12MOL   H65611238   0.628   6.681   4.231  0.6248 -1.1863 -1.0536
   12MOL   H65711239   0.696   6.746   4.380 -1.9830  0.0943  0.1029
   12MOL   H65811240   0.770   6.532   4.455 -2.8977 -1.6907  2.2969
   12MOL   H65911241   0.707   6.442   4.329 -0.7543 -0.4698 -0.1362
   12MOL   H66011242   0.519   6.611   4.484  0.6286  0.6965 -2.1958
   12MOL   H66111243   0.548   6.439   4.520 -1.5489  1.0999  1.9012
   12MOL   H66211244   0.439   6.556   4.268  1.0933 -1.3372 -1.2433
   12MOL   H66311245   0.494   6.390   4.273  0.7317 -0.0724  0.4130
   12MOL   H66411246   0.326   6.327   4.439  0.3818  0.6466 -0.6430
   12MOL   H66511247   0.250   6.397   4.292  1.5409  0.3753 -0.7204
   12MOL   H66611248   0.209   6.718   4.589  0.5485 -0.0165  1.2987
   12MOL   H66711249   0.057   6.649   4.581 -0.3387 -0.0633  0.9890
   12MOL   H66811250   0.243   6.609   4.830 -0.9167  0.5478  2.0856
   12MOL   H66911251   0.075   6.572   4.835 -0.2124  0.1702  0.0737
   12MOL   H67011252   0.002   6.794   4.804 -0.3006  0.1479  0.8276
   12MOL   H67111253   0.163   6.850   4.758 -1.1693 -0.5145 -0.7574
   12MOL   H67211254   0.132   6.938   4.958  2.2516  0.9427 -0.4516
   12MOL   H67311255   0.242   6.814   5.001 -0.1456 -0.4373 -0.6311
   12MOL   O67411256   0.042   6.644   5.097  0.2762 -0.1876  1.2064
   12MOL   C67511257   7.703   6.587   5.174 -0.4299 -0.5374 -0.0149
   12MOL   C67611258   7.641   6.463   5.104 -0.6715  0.0619  0.5744
   12MOL   C67711259   7.555   6.506   4.988 -0.8003  0.2461  0.3498
   12MOL   C67811260   7.476   6.393   4.922 -1.0759  0.5046  0.2163
   12MOL   C67911261   7.382   6.442   4.811  0.1566 -0.5725 -0.1566
   12MOL   C68011262   7.301   6.323   4.752  0.4059  0.2776 -0.4086
   12MOL   C68111263   7.207   6.369   4.638  0.5995  0.2472  0.5487
   12MOL   C68211264   7.143   6.247   4.566  0.4784  0.2533  0.1106
   12MOL   C68311265   7.065   6.298   4.442  0.5217 -0.2385  0.1263
   12MOL   C68411266   7.025   6.186   4.348 -0.0586  0.3024  0.4801
   12MOL   O68511267   6.924   6.119   4.415 -0.4434  0.3407 -0.1449
   12MOL   C68611268   6.815   6.089   4.338 -0.5988  0.5878  0.1089
   12MOL   O68711269   6.782   6.147   4.236  0.7019  0.1600 -0.3395
   12MOL   C68811270   6.719   5.989   4.407  0.9210 -0.5801 -0.0711
   12MOL   C68911271   6.619   5.928   4.313  0.0230  0.1836  0.4821
   12MOL   C69011272   6.538   5.827   4.394  0.7177  0.6171  0.6026
   12MOL   C69111273   6.435   5.904   4.482  0.5585 -0.0752 -0.4125
   12MOL   C69211274   6.355   5.815   4.578  0.2372  0.2451  0.6823
   12MOL   O69311275   6.239   5.782   4.551 -0.1481 -0.2914 -0.1071
   12MOL   H69411276   7.756   6.556   5.264 -0.8163  2.1407  1.1958
   12MOL   H69511277   7.627   6.659   5.206  0.1388 -0.0487  0.2388
   12MOL   H69611278   7.574   6.410   5.172 -1.5971  0.2754 -0.1789
   12MOL   H69711279   7.717   6.394   5.067  0.5307  2.0160 -0.7188
   12MOL   H69811280   7.488   6.585   5.021  0.4587  1.2016  0.6263
   12MOL   H69911281   7.614   6.558   4.913  1.5774 -2.0872  0.5425
   12MOL   H70011282   7.427   6.323   4.991 -0.3125 -0.6634 -0.3995
   12MOL   H70111283   7.541   6.320   4.872 -1.3783  0.0326  0.5038
   12MOL   H70211284   7.434   6.482   4.724 -2.7794 -1.2799 -2.3184
   12MOL   H70311285   7.325   6.525   4.853  1.0722  0.5160 -1.0427
   12MOL   H70411286   7.236   6.288   4.833  2.0631  0.9123  1.2402
   12MOL   H70511287   7.371   6.245   4.724  1.6462  0.9214  0.8471
   12MOL   H70611288   7.280   6.410   4.568  2.4109 -1.9154  1.1249
   12MOL   H70711289   7.138   6.442   4.680 -0.1783 -0.0398 -0.2140
   12MOL   H70811290   7.080   6.191   4.635 -0.4520 -0.9323 -1.6728
   12MOL   H70911291   7.222   6.180   4.533 -0.0692 -0.3205 -0.0314
   12MOL   H71011292   6.971   6.341   4.475 -0.3027 -1.3405 -0.7302
   12MOL   H71111293   7.119   6.369   4.379  2.6040 -2.2683 -0.4389
   12MOL   H71211294   7.108   6.123   4.318 -0.1066  0.5005 -0.0774
   12MOL   H71311295   6.988   6.232   4.256 -1.6944 -0.9259  0.5120
   12MOL   H71411296   6.772   5.908   4.457 -0.8493 -1.1475  0.9268
   12MOL   H71511297   6.669   6.046   4.486  0.0740 -0.8346 -0.4244
   12MOL   H71611298   6.688   5.885   4.241  1.1035  1.3798  0.7938
   12MOL   H71711299   6.553   6.001   4.267  0.4297 -0.3530 -0.9781
   12MOL   H71811300   6.602   5.775   4.465  0.3646  1.8079  1.8172
   12MOL   H71911301   6.493   5.746   4.336  2.1444  1.0444 -1.1402
   12MOL   H72011302   6.374   5.965   4.416  1.2275  0.6580 -0.3584
   12MOL   H72111303   6.489   5.975   4.545  0.4542  1.4916 -2.0572
   12MOL   O72211304   6.430   5.777   4.684  0.5648  1.0178  0.5176
   12MOL   C72311305   6.367   5.696   4.777 -1.0574  0.7815 -0.2038
   12MOL   C72411306   6.472   5.668   4.887 -0.6198  0.4979 -0.2692
   12MOL   C72511307   6.431   5.549   4.971 -0.3565  0.4718  0.0710
   12MOL   C72611308   6.525   5.533   5.097 -0.3280  0.0292 -0.3936
   12MOL   C72711309   6.669   5.505   5.059  0.7080 -0.1528 -0.6840
   12MOL   C72811310   6.757   5.470   5.182 -0.7521  0.8249  0.6519
   12MOL   C72911311   6.906   5.428   5.149  0.1529 -0.1486  0.4480
   12MOL   C73011312   6.973   5.396   5.280  0.4193  0.0073 -0.5145
   12MOL   C73111313   7.124   5.361   5.270  0.1300 -0.2062 -0.3534
   12MOL   C73211314   7.177   5.319   5.404  0.2628 -0.1212 -0.3411
   12MOL   O73311315   7.301   5.253   5.386  0.5351 -0.5057 -0.2000
   12MOL   C73411316   7.357   5.180   5.475  0.4477  0.1695 -0.4952
   12MOL   O73511317   7.319   5.165   5.589  0.4500 -0.3704 -0.3433
   12MOL   C73611318   7.486   5.101   5.433 -1.2779 -0.1405 -0.0720
   12MOL   C73711319   7.609   5.174   5.375 -0.1959 -0.6138  0.0765
   12MOL   C73811320   7.659   5.291   5.463 -0.8416 -0.4357 -0.4668
   12MOL   C73911321   0.039   5.340   5.421 -0.6217 -0.3097 -0.5073
   12MOL   C74011322   0.146   5.231   5.408  0.3992 -0.4527 -0.0353
   12MOL   O74111323   0.179   5.177   5.304 -0.3016 -0.0706 -0.0259
   12MOL   H74211324   6.272   5.737   4.811 -0.4201  2.8404 -0.7829
   12MOL   H74311325   6.351   5.609   4.714  0.4558  0.9923 -0.8885
   12MOL   H74411326   6.464   5.756   4.951 -1.1095  0.0868  0.2393
   12MOL   H74511327   6.569   5.661   4.839 -1.1867  1.6052 -1.6213
   12MOL   H74611328   6.332   5.580   5.004 -0.6794 -0.0027 -0.4373
   12MOL   H74711329   6.420   5.455   4.917 -1.7339  0.8666 -0.3677
   12MOL   H74811330   6.473   5.453   5.149 -0.4216 -0.0409 -0.5973
   12MOL   H74911331   6.513   5.612   5.171 -0.6153 -1.3965  1.0910
   12MOL   H75011332   6.703   5.597   5.011 -3.4478  1.9450  0.0981
   12MOL   H75111333   6.660   5.424   4.988  0.8329 -0.2710 -0.5647
   12MOL   H75211334   6.707   5.392   5.239 -0.9621  0.6431  0.2200
   12MOL   H75311335   6.752   5.559   5.243  0.5884  2.0985 -1.0375
   12MOL   H75411336   6.957   5.512   5.102 -0.4636 -0.2522 -0.3975
   12MOL   H75511337   6.903   5.348   5.075 -2.0474  0.5470 -0.2285
   12MOL   H75611338   6.915   5.325   5.340  1.1358 -1.2516 -1.2780
   12MOL   H75711339   6.958   5.489   5.334  0.4522 -0.3030  0.0316
   12MOL   H75811340   7.123   5.281   5.196  1.1242  0.1782 -0.8035
   12MOL   H75911341   7.182   5.437   5.217  2.2667 -1.3823  0.2479
   12MOL   H76011342   7.103   5.250   5.445  1.9363 -1.4593  0.4541
   12MOL   H76111343   7.198   5.399   5.474  2.2799 -0.2265 -0.8050
   12MOL   H76211344   7.512   5.058   5.530  0.3539 -0.3999 -0.6156
   12MOL   H76311345   7.473   5.024   5.357 -1.0397 -1.1352  0.8768
   12MOL   H76411346   7.570   5.193   5.275  1.1472  1.0277 -0.1679
   12MOL   H76511347   7.685   5.096   5.370  1.2864  0.8108  0.0357
   12MOL   H76611348   7.662   5.248   5.563 -0.0271  0.6446 -0.0244
   12MOL   H76711349   7.581   5.367   5.470  1.9553  2.4811 -0.0621
   12MOL   H76811350   0.057   5.416   5.498 -1.9216 -0.0748 -0.4361
   12MOL   H76911351   0.022   5.386   5.324  0.9349  0.5741 -0.3903
   12MOL   O77011352   0.199   5.204   5.528  0.1715  0.2740 -0.0689
   12MOL   C77111353   0.293   5.100   5.538  0.9891 -0.1065 -0.1997
   12MOL   C77211354   0.427   5.168   5.568  0.6433  0.2081 -0.3428
   12MOL   C77311355   0.489   5.235   5.441  0.1782  0.2192  0.8396
   12MOL   C77411356   0.632   5.282   5.462 -0.4367  0.2945  0.5375
   12MOL   C77511357   0.701   5.334   5.329 -0.1805  0.1429 -0.8648
   12MOL   C77611358   0.850   5.370   5.346 -0.7640 -0.3189  0.2756
   12MOL   C77711359   0.919   5.421   5.214 -0.0891 -0.3784 -0.0390
   12MOL   C77811360   0.841   5.531   5.126  0.4926  0.0380  0.7738
   12MOL   C77911361   0.820   5.676   5.188  0.1206  0.1265 -0.3433
   12MOL   C78011362   0.732   5.774   5.105  0.2859  0.4961  0.4928
   12MOL   O78111363   0.717   5.901   5.167  0.1447  0.2545 -0.0694
   12MOL   C78211364   0.758   6.013   5.108  0.5436  0.9390  0.2348
   12MOL   O78311365   0.798   6.026   4.989  0.2651 -0.0513  0.4653
   12MOL   C78411366   0.747   6.137   5.202 -0.3995 -0.1581  0.3176
   12MOL   C78511367   0.874   6.169   5.286  0.0807  0.7430 -0.5643
   12MOL   C78611368   0.963   6.270   5.202  0.7306  0.1764  0.1622
   12MOL   C78711369   1.077   6.330   5.275 -0.0655 -0.0709  0.6279
   12MOL   C78811370   1.038   6.394   5.411 -0.5154 -0.2985  0.3327
   12MOL   O78911371   1.071   6.341   5.517 -0.1688  0.3132  0.0576
   12MOL   H79011372   0.272   5.021   5.610 -1.9565  0.2890 -0.5957
   12MOL   H79111373   0.297   5.046   5.444 -0.3459 -1.1775  0.3522
   12MOL   H79211374   0.496   5.093   5.606  1.2832  1.0999  0.2601
   12MOL   H79311375   0.398   5.249   5.635 -0.2157  0.0255 -0.4805
   12MOL   H79411376   0.498   5.155   5.368  2.0314  0.7707  0.4293
   12MOL   H79511377   0.423   5.314   5.409  0.2573  0.6036  1.6015
   12MOL   H79611378   0.691   5.209   5.517 -0.7498  1.5387  2.5968
   12MOL   H79711379   0.620   5.369   5.527 -1.0984  1.1520 -0.6968
   12MOL   H79811380   0.649   5.428   5.307  1.1510  0.6741 -1.7946
   12MOL   H79911381   0.674   5.278   5.240 -0.7365 -0.3792 -0.3737
   12MOL   H80011382   0.915   5.296   5.392  0.2804  1.2360  1.3395
   12MOL   H80111383   0.854   5.452   5.419 -1.9860 -0.4742  0.5388
   12MOL   H80211384   0.963   5.340   5.157 -0.8163 -2.0761  1.7459
   12MOL   H80311385   1.013   5.473   5.234  0.0121 -0.3465 -0.5853
   12MOL   H80411386   0.746   5.484   5.100 -0.8087  2.9234  0.1251
   12MOL   H80511387   0.890   5.530   5.029 -0.2692 -4.0998  0.3506
   12MOL   H80611388   0.764   5.661   5.280 -0.1706  0.3180 -0.4879
   12MOL   H80711389   0.921   5.711   5.211 -0.3207  0.9220  0.3979
   12MOL   H80811390   0.629   5.742   5.090 -0.4827  2.5980  1.1047
   12MOL   H80911391   0.780   5.783   5.008 -3.3750 -0.5796 -1.5026
   12MOL   H81011392   0.738   6.220   5.131 -1.2808 -1.4173 -1.0955
   12MOL   H81111393   0.661   6.129   5.268 -0.0663  1.3840  0.9524
   12MOL   H81211394   0.924   6.075   5.310 -0.2465  0.9118  0.7820
   12MOL   H81311395   0.846   6.210   5.383  0.8399  3.6049 -1.4894
   12MOL   H81411396   0.896   6.351   5.171  2.5082  0.9995 -1.6420
   12MOL   H81511397   0.996   6.226   5.108  0.4978  0.8777 -0.2495
   12MOL   H81611398   1.132   6.401   5.213 -0.6616  0.0071  0.1917
   12MOL   H81711399   1.154   6.255   5.298  0.6964  0.3612 -0.4686
   12MOL   O81811400   0.974   6.507   5.394  0.2689  0.4526  0.0862
   12MOL   C81911401   0.934   6.573   5.517  1.0589  0.3755 -0.1205
   12MOL   C82011402   0.836   6.689   5.486 -1.1560  0.6917  0.3763
   12MOL   C82111403   0.809   6.766   5.616  0.1965  0.2777 -0.6285
   12MOL   C82211404   0.769   6.914   5.586  0.4052 -0.0505 -0.0665
   12MOL   C82311405   0.744   7.005   5.712  0.1990 -0.2071  0.5636
   12MOL   C82411406   0.724   7.153   5.669  0.5351  0.5900  0.1535
   12MOL   C82511407   0.738   7.249   5.785 -0.0853 -0.0692  0.3911
   12MOL   C82611408   0.721   7.402   5.742 -0.5543 -0.0230 -0.0956
   12MOL   C82711409   0.753   7.499   5.855 -0.3363  0.0996  0.2744
   12MOL   C82811410   0.699   7.641   5.819 -0.0075  0.0118 -0.1640
   12MOL   O82911411   0.668   7.696   5.946 -0.1649 -0.2471  0.3100
   12MOL   C83011412   0.746   0.015   6.004  0.2317  0.6221  0.7855
   12MOL   O83111413   0.852   0.052   5.960 -0.1763  0.0353 -0.0487
   12MOL   C83211414   0.706   0.069   6.139  0.1929 -0.2650 -0.2311
   12MOL   C83311415   0.598   7.753   6.220  0.2092 -0.3829 -0.6238
   12MOL   C83411416   0.608   0.004   6.373 -0.0770  0.2394  0.3386
   12MOL   C83511417   0.492   7.692   6.439  0.5313 -0.3776  0.7853
   12MOL   C83611418   0.351   7.752   6.439  0.2650  0.2801  0.2288
   12MOL   O83711419   0.329   0.086   6.508 -0.1380  0.3097 -0.4029
   12MOL   H83811420   0.884   6.505   5.587  0.6732 -0.9008 -1.6085
   12MOL   H83911421   1.016   6.610   5.579  1.4286  0.1093 -0.4509
   12MOL   H84011422   0.744   6.652   5.441 -1.6082  0.0092  1.8123
   12MOL   H84111423   0.893   6.745   5.412  0.4124  0.4988  1.3963
   12MOL   H84211424   0.734   6.715   5.676 -0.2158  0.5904 -0.8852
   12MOL   H84311425   0.900   6.766   5.677  0.0735 -3.5246 -0.3228
   12MOL   H84411426   0.672   6.902   5.537  0.1266 -1.3558  0.7719
   12MOL   H84511427   0.837   6.959   5.514 -0.8272  1.3035 -0.4100
   12MOL   H84611428   0.830   6.997   5.779 -1.3538  3.1744  3.0943
   12MOL   H84711429   0.664   6.975   5.779  1.4980  1.4002  2.8961
   12MOL   H84811430   0.646   7.178   5.598 -0.1893  1.6234  1.2808
   12MOL   H84911431   0.807   7.175   5.602  0.2365  1.1382 -0.0296
   12MOL   H85011432   0.831   7.231   5.841  0.3357  2.6610  0.6470
   12MOL   H85111433   0.656   7.227   5.853  0.5646  1.2521  1.6378
   12MOL   H85211434   0.621   7.404   5.698  0.3617 -2.2096 -2.3790
   12MOL   H85311435   0.798   7.415   5.667  0.7668 -0.2431  1.2045
   12MOL   H85411436   0.712   7.455   5.946  0.1376 -1.3274 -0.1935
   12MOL   H85511437   0.862   7.502   5.865 -0.2229  0.5309 -1.0772
   12MOL   H85611438   0.618   7.640   5.746  1.2943 -1.5561 -1.6021
   12MOL   H85711439   0.781   7.684   5.763  1.8815 -2.4905  0.6168
   12MOL   H85811440   0.787   0.110   6.200  0.2144 -0.8221  0.1159
   12MOL   H85911441   0.653   0.162   6.119 -0.7450 -0.3648  1.6409
   12MOL   H86011442   0.618   7.646   6.209 -2.9110 -1.4049  2.3738
   12MOL   H86111443   0.502   0.010   6.172 -0.4831 -0.2892  0.7601
   12MOL   H86211444   0.583   0.109   6.392 -0.7774  0.3798 -1.2857
   12MOL   H86311445   0.703   7.736   6.414  0.2744  1.3124  0.3842
   12MOL   H86411446   0.520   7.668   6.541 -1.5924  0.2318  1.5468
   12MOL   H86511447   0.486   7.600   6.381 -0.9904 -0.1190  0.5203
   12MOL   O86611448   0.258   7.682   6.374  0.1321 -0.2847 -0.1074
   12MOL   C86711449   0.123   7.729   6.371 -0.6042 -0.0718 -0.8486
   12MOL   C86811450   0.045   7.618   6.303 -0.5055 -0.3056  0.0468
   12MOL   C86911451   7.677   7.673   6.244  0.0291 -0.1310 -0.2042
   12MOL   C87011452   7.610   7.582   6.146 -0.5907 -0.1735 -0.1499
   12MOL   C87111453   7.546   7.467   6.213 -0.7570 -0.7737 -0.3692
   12MOL   C87211454   7.463   7.374   6.130  0.8594 -0.1335 -1.4466
   12MOL   C87311455   7.543   7.315   6.015 -0.1136  0.6700 -0.6529
   12MOL   C87411456   7.459   7.306   5.886  0.1835 -0.5595  0.1489
   12MOL   C87511457   7.531   7.244   5.764  0.4129 -0.4955 -0.7697
   12MOL   C87611458   7.594   7.102   5.788 -0.2242  0.5045 -0.1085
   12MOL   O87711459   7.580   7.045   5.664 -0.2965  0.3807  0.3480
   12MOL   C87811460   7.658   6.941   5.631 -0.3345  0.5523  0.2045
   12MOL   O87911461   7.743   6.895   5.703  0.2071 -0.2982 -0.0448
   12MOL   C88011462   7.640   6.883   5.491  0.2716 -0.2344  0.5953
   12MOL   C88111463   7.754   6.952   5.394  0.3216  0.5600 -0.3102
   12MOL   C88211464   7.724   7.098   5.347  0.3037  0.6947 -0.3991
   12MOL   C88311465   0.021   7.154   5.219  0.0628  0.1077 -0.0722
   12MOL   C88411466   0.175   7.185   5.220  0.8257  0.9475  0.0680
   12MOL   O88511467   0.218   7.299   5.206  0.2501  0.0481 -0.0996
   12MOL   H88611468   0.089   7.748   6.473  1.2835  2.6592 -0.6832
   12MOL   H88711469   0.112   0.057   6.315 -0.4289  1.0030  0.8752
   12MOL   H88811470   0.024   7.536   6.372  3.1716 -1.1618  0.2487
   12MOL   H88911471   0.103   7.571   6.224 -2.3432 -2.4425 -0.0890
   12MOL   H89011472   7.607   7.705   6.321  1.1876  0.8650  0.4507
   12MOL   H89111473   7.701   7.760   6.184  0.0434 -0.0293 -0.0504
   12MOL   H89211474   7.691   7.561   6.075 -0.5141  1.2073 -0.5009
   12MOL   H89311475   7.537   7.637   6.086  0.8700  0.2958 -1.5421
   12MOL   H89411476   7.475   7.514   6.281 -0.6033  2.4614 -2.3578
   12MOL   H89511477   7.619   7.418   6.278  0.2347 -0.2564 -1.0677
   12MOL   H89611478   7.386   7.444   6.100  0.1542  0.6918  2.0285
   12MOL   H89711479   7.419   7.301   6.199 -1.9235  1.0585 -1.8902
   12MOL   H89811480   7.575   7.217   6.050  0.8465  0.6719 -1.4922
   12MOL   H89911481   7.634   7.365   5.982  1.2712 -1.9065 -0.8944
   12MOL   H90011482   7.429   7.406   5.855  1.3543 -0.5401 -0.9887
   12MOL   H90111483   7.374   7.238   5.892  0.2024 -0.4652  1.7130
   12MOL   H90211484   7.468   7.250   5.676 -1.9779  0.5478  0.9642
   12MOL   H90311485   7.608   7.317   5.740 -2.4658  2.3623 -1.6044
   12MOL   H90411486   7.539   7.044   5.862  2.2073 -0.6665  0.8487
   12MOL   H90511487   7.697   7.112   5.824 -0.0807  1.8796 -0.8633
   12MOL   H90611488   7.675   6.780   5.479  4.1835  1.0200  0.2949
   12MOL   H90711489   7.539   6.900   5.455 -0.0396 -3.2739 -0.1545
   12MOL   H90811490   0.006   6.881   5.313 -2.4130  0.8216 -1.1534
   12MOL   H90911491   0.082   6.941   5.450 -0.2940  2.5259  1.1618
   12MOL   H91011492   7.736   7.165   5.432  0.6558 -0.4245  0.4464
   12MOL   H91111493   7.618   7.109   5.325 -0.4334 -3.1460  0.8100
   12MOL   H91211494   7.747   7.255   5.208 -0.7090 -0.1716  0.0297
   12MOL   H91311495   7.744   7.090   5.142  2.1706 -0.5837 -0.6795
   12MOL   O91411496   0.252   7.073   5.238 -0.7399  0.1426 -0.4412
   12MOL   C91511497   0.394   7.086   5.226  0.2930  0.2569 -0.6045
   12MOL   C91611498   0.475   6.960   5.187  0.5606  0.0212  0.5043
   12MOL   C91711499   0.481   6.852   5.309 -0.6762  0.0655 -0.3338
   12MOL   C91811500   0.362   6.753   5.291  0.2360 -0.2433  0.6399
   12MOL   C91911501   0.377   6.628   5.391  0.4510 -0.9704 -0.3783
   12MOL   C92011502   0.417   6.676   5.531 -0.2018  0.3816  0.6153
   12MOL   C92111503   0.305   6.745   5.616  1.0388 -0.9267 -0.2210
   12MOL   C92211504   0.355   6.832   5.731  0.4298  0.3130  0.7048
   12MOL   C92311505   0.392   6.984   5.703  0.1334  0.1142 -0.0508
   12MOL   C92411506   0.281   7.065   5.635  0.1932 -0.3448 -0.7818
   12MOL   O92511507   0.327   7.197   5.617  0.2673 -0.3782 -0.1854
   12MOL   C92611508   0.241   7.293   5.601  0.0437 -0.2296 -0.0810
   12MOL   O92711509   0.116   7.281   5.607 -0.3819  0.6494  0.2292
   12MOL   C92811510   0.308   7.429   5.594  0.0633  0.3396  1.3385
   12MOL   C92911511   0.206   7.547   5.590 -0.0823 -0.2031  0.1991
   12MOL   C93011512   0.128   7.559   5.462  1.1590 -0.0640 -0.0677
   12MOL   C93111513   0.006   7.650   5.483  0.2463  0.6292 -0.3881
   12MOL   C93211514   0.037   0.037   5.471  0.4658  0.0703 -0.2571
   12MOL   O93311515   0.092   0.090   5.564  0.0009  0.8408 -0.1971
   12MOL   H93411516   0.420   7.163   5.153 -0.5907  2.4909  1.3817
   12MOL   H93511517   0.438   7.115   5.321 -1.1622  0.4318  0.0233
   12MOL   H93611518   0.578   6.991   5.168  0.1833  1.5318  0.8279
   12MOL   H93711519   0.433   6.907   5.102 -1.4578 -1.3634  2.3078
   12MOL   H93811520   0.573   6.794   5.313  1.1452  2.9776  1.8200
   12MOL   H93911521   0.473   6.910   5.401 -0.1588 -0.0900 -0.1874
   12MOL   H94011522   0.369   6.701   5.195  3.4715 -2.1394  1.8366
   12MOL   H94111523   0.272   6.815   5.301  0.6484  0.2905  1.0396
   12MOL   H94211524   0.452   6.565   5.343  0.8583  0.4533 -1.6671
   12MOL   H94311525   0.293   6.559   5.391  1.0668 -1.7527 -2.2359
   12MOL   H94411526   0.500   6.747   5.528 -0.3957  0.5984  0.4800
   12MOL   H94511527   0.467   6.599   5.590  3.2036  0.1664 -2.3290
   12MOL   H94611528   0.236   6.667   5.648 -0.1012  0.1768  0.0591
   12MOL   H94711529   0.237   6.796   5.548 -2.1244 -2.8318  1.3954
   12MOL   H94811530   0.440   6.781   5.774  0.7402  0.7065  0.5620
   12MOL   H94911531   0.263   6.824   5.790 -1.2050  0.0125 -1.8404
   12MOL   H95011532   0.414   7.027   5.800  0.1339  0.8883 -0.3936
   12MOL   H95111533   0.483   6.981   5.643  0.1566 -1.1793  0.0216
   12MOL   H95211534   0.192   7.062   5.698  1.9386  2.5185  1.9424
   12MOL   H95311535   0.269   7.024   5.534  3.3504  0.3436 -1.4929
   12MOL   H95411536   0.372   7.415   5.681 -0.4793  0.7832  1.8188
   12MOL   H95511537   0.372   7.433   5.506  2.1414 -3.0475  2.6078
   12MOL   H95611538   0.255   7.643   5.607 -1.6206  0.2450  2.3816
   12MOL   H95711539   0.135   7.532   5.672  1.2208 -4.2052  0.6749
   12MOL   H95811540   0.093   7.461   5.430  0.0157  0.1190  0.6216
   12MOL   H95911541   0.187   7.600   5.379  1.2581  0.9683  0.5019
   12MOL   H96011542   7.714   7.625   5.573  0.0663  0.4863 -0.5409
   12MOL   H96111543   7.698   7.642   5.402 -0.6466  1.2008  0.3405
   12MOL   H96211544   0.002   0.090   5.383  2.2612 -0.5828 -1.4125
   13MOL     O111545   4.611   2.820   0.652  0.0266  1.4704 -0.2400
   13MOL     C211546   4.651   2.797   0.515 -0.1189  0.1009  0.7394
   13MOL     C311547   4.736   2.915   0.467 -0.2761 -0.3204  0.4296
   13MOL     C411548   4.659   3.044   0.429 -0.5150  0.1496 -0.1684
   13MOL     C511549   4.630   3.060   0.276  0.8540 -0.4735 -0.1536
   13MOL     C611550   4.532   2.960   0.223 -0.2094  0.5433 -0.4118
   13MOL     C711551   4.386   2.956   0.264 -0.8138 -1.0765 -0.2193
   13MOL     C811552   4.313   2.860   0.167  0.8730 -0.3585  0.5518
   13MOL     C911553   4.347   2.710   0.186 -0.3925  0.0711 -0.0154
   13MOL    C1011554   4.282   2.651   0.306  0.1671  0.4112 -0.1169
   13MOL    C1111555   4.128   2.618   0.297 -0.1290  0.3038 -0.0768
   13MOL    O1211556   4.111   2.532   0.187  0.0068 -0.2783  0.2111
   13MOL    C1311557   3.989   2.508   0.131 -0.4610 -0.0971 -0.0916
   13MOL    O1411558   3.876   2.509   0.181  0.5176 -0.6778  0.4893
   13MOL    C1511559   4.002   2.483   7.749  0.5116 -0.3983  0.2951
   13MOL    C1611560   3.886   2.380   7.688 -0.5552 -0.5524  0.3620
   13MOL    C1711561   3.911   2.316   7.547 -0.0564  0.5703  0.0442
   13MOL    C1811562   3.788   2.273   7.474 -0.2074 -0.3361  0.7546
   13MOL    C1911563   3.706   2.179   7.562 -0.1340 -0.4549 -0.0437
   13MOL    O2011564   3.755   2.097   7.639 -0.0620  0.2105  0.0442
   13MOL    H2111565   4.706   2.705   0.498 -0.3505  0.2248 -0.7425
   13MOL    H2211566   4.564   2.776   0.453  0.0457 -0.4416  0.6948
   13MOL    H2311567   4.791   2.875   0.382  1.1881  1.6565  0.4056
   13MOL    H2411568   4.815   2.935   0.540 -0.6121  1.0633  0.4279
   13MOL    H2511569   4.570   3.047   0.492  0.5771  0.2487  1.4110
   13MOL    H2611570   4.723   3.130   0.452  0.5340 -0.8491  0.7577
   13MOL    H2711571   4.718   3.043   0.214  1.4401 -1.8787  1.0216
   13MOL    H2811572   4.593   3.161   0.258 -1.6500 -1.3942 -0.3391
   13MOL    H2911573   4.576   2.861   0.241 -0.5724 -0.0087 -2.3353
   13MOL    H3011574   4.530   2.981   0.116 -0.3914  0.0726 -0.5023
   13MOL    H3111575   4.335   3.052   0.264 -0.6335 -0.9796 -0.5326
   13MOL    H3211576   4.383   2.912   0.363 -1.5580 -0.1966  0.1540
   13MOL    H3311577   4.344   2.885   0.066  1.1764  0.8362  0.9357
   13MOL    H3411578   4.205   2.867   0.174  0.7276 -1.6811 -0.2223
   13MOL    H3511579   4.453   2.689   0.200 -0.4969  0.0060  0.6767
   13MOL    H3611580   4.316   2.668   0.090 -0.4135  2.6326 -1.1840
   13MOL    H3711581   4.326   2.554   0.326 -0.5072  0.4925  1.9123
   13MOL    H3811582   4.300   2.703   0.401 -0.5549  0.3453  0.0579
   13MOL    H3911583   4.065   2.705   0.279 -0.0676  0.6511  1.3492
   13MOL    H4011584   4.097   2.565   0.387 -0.8471 -0.9300 -1.0227
   13MOL    H4111585   3.999   2.578   7.695  3.5255 -0.3885  0.0588
   13MOL    H4211586   4.100   2.443   7.726  0.8162  0.1436  0.6498
   13MOL    H4311587   3.785   2.420   7.692 -0.7231 -0.8976 -0.4910
   13MOL    H4411588   3.879   2.292   7.753  0.0184 -2.0482 -1.5428
   13MOL    H4511589   3.983   2.235   7.557 -0.1163  0.6413  1.0724
   13MOL    H4611590   3.959   2.374   7.468 -0.2229 -0.2750 -0.6939
   13MOL    H4711591   3.821   2.222   7.384 -1.1662 -0.0254  0.2215
   13MOL    H4811592   3.729   2.357   7.437 -1.2656 -1.8734 -1.1508
   13MOL    H4911593   4.553   2.894   0.667 -1.0548  0.5190  0.3486
   13MOL    O5011594   3.573   2.199   7.545 -0.8107 -0.8425  0.3812
   13MOL    C5111595   3.479   2.137   7.633 -0.0351  0.1161  0.1824
   13MOL    C5211596   3.461   2.220   7.757  0.1368 -1.0088 -0.8242
   13MOL    C5311597   3.533   2.168   0.113 -0.1908 -0.8266 -0.6833
   13MOL    C5411598   3.507   2.236   0.243 -0.3688  0.4964 -0.2861
   13MOL    C5511599   3.388   2.180   0.332  0.3611 -0.6045  0.1416
   13MOL    C5611600   3.431   2.040   0.383  0.5987 -0.0950 -0.2791
   13MOL    C5711601   3.320   1.978   0.470 -0.1645  0.3156  1.9660
   13MOL    C5811602   3.360   1.848   0.524  0.2160  0.1529  1.2234
   13MOL    C5911603   3.275   1.814   0.650 -0.3417  0.0590 -0.4093
   13MOL    C6011604   3.282   1.667   0.702 -0.0640  0.4331  0.7871
   13MOL    O6111605   3.404   1.648   0.771 -0.3832  0.0062  0.0077
   13MOL    C6211606   3.510   1.591   0.709  0.0238  0.1777  0.7546
   13MOL    O6311607   3.504   1.527   0.597 -0.3429 -0.0653  0.3677
   13MOL    C6411608   3.641   1.571   0.782 -0.4598 -0.2432  0.3718
   13MOL    C6511609   3.639   1.458   0.890 -0.5040 -0.4462  0.0511
   13MOL    C6611610   3.722   1.493   1.014  0.0279 -0.0006  0.0325
   13MOL    C6711611   3.730   1.381   1.119 -0.7912 -0.2014  0.1851
   13MOL    C6811612   3.799   1.250   1.075 -0.3284  0.3303  0.0514
   13MOL    O6911613   3.917   1.228   1.095  0.2300 -0.1848 -0.3724
   13MOL    H7011614   3.378   2.136   7.594 -0.7955  4.1338  1.8107
   13MOL    H7111615   3.500   2.031   7.649 -2.4448 -0.4303 -0.0629
   13MOL    H7211616   3.359   2.197   0.023  0.9279 -2.2423  0.9388
   13MOL    H7311617   3.469   2.328   7.739  1.2643 -0.9426  0.0656
   13MOL    H7411618   3.536   2.059   0.110  0.9675 -0.8208 -0.0077
   13MOL    H7511619   3.636   2.192   0.085  0.1720 -1.2230  0.3128
   13MOL    H7611620   3.485   2.342   0.229  0.4524  0.9074  1.3891
   13MOL    H7711621   3.599   2.234   0.300 -0.0279  0.7346 -0.8263
   13MOL    H7811622   3.291   2.169   0.284 -0.6766 -0.8699  2.2503
   13MOL    H7911623   3.377   2.244   0.419 -0.3059 -0.2525 -0.1999
   13MOL    H8011624   3.530   2.022   0.425  0.7637 -3.5322 -2.0158
   13MOL    H8111625   3.425   1.986   0.288  2.3202 -2.6121  0.9771
   13MOL    H8211626   3.226   1.971   0.416  0.2896 -0.2830  1.2321
   13MOL    H8311627   3.299   2.046   0.552 -1.9526  1.2471  0.7520
   13MOL    H8411628   3.466   1.846   0.548  0.9247  2.1824 -1.4324
   13MOL    H8511629   3.352   1.764   0.455 -1.1096  0.2348  1.2627
   13MOL    H8611630   3.308   1.881   0.730  1.0453 -2.0303  0.8040
   13MOL    H8711631   3.173   1.847   0.629 -0.3783 -0.1411 -0.5432
   13MOL    H8811632   3.258   1.593   0.626  0.4435  0.6866  0.3804
   13MOL    H8911633   3.197   1.657   0.770  0.1641 -0.0147  1.0089
   13MOL    H9011634   3.714   1.536   0.710 -0.3704  0.3694  0.1595
   13MOL    H9111635   3.671   1.673   0.806  0.9579 -0.3203 -0.9797
   13MOL    H9211636   3.676   1.368   0.842 -2.7723 -0.7119 -1.2733
   13MOL    H9311637   3.538   1.423   0.912 -1.2153  0.6400 -1.3277
   13MOL    H9411638   3.703   1.592   1.056  1.0220 -1.0234  3.0177
   13MOL    H9511639   3.825   1.499   0.978  0.7237 -2.0770  1.5898
   13MOL    H9611640   3.627   1.365   1.154 -0.0229 -0.9160  2.2257
   13MOL    H9711641   3.776   1.400   1.216 -0.1839 -1.7563  0.2168
   13MOL    O9811642   3.716   1.174   1.005  0.2565 -0.5634 -0.2913
   13MOL    C9911643   3.763   1.050   0.955 -0.4533 -0.6398  0.1037
   13MOL   C10011644   3.749   0.942   1.070 -0.1211  0.0808  0.5106
   13MOL   C10111645   3.802   0.808   1.012  0.4685  0.2015  0.0725
   13MOL   C10211646   3.785   0.681   1.095  0.4851  0.1260  0.4465
   13MOL   C10311647   3.832   0.697   1.242  0.1755  0.1725  0.7616
   13MOL   C10411648   3.845   0.563   1.323 -0.4167  0.2237 -0.1982
   13MOL   C10511649   3.905   0.579   1.469  0.2683 -0.9371 -0.1816
   13MOL   C10611650   3.908   0.463   1.565  0.4599  0.2326 -0.7854
   13MOL   C10711651   4.015   0.363   1.526  0.3420  0.6118  0.4825
   13MOL   C10811652   4.014   0.251   1.634 -0.1822 -0.0724  0.2365
   13MOL   O10911653   4.106   0.144   1.609 -0.4448 -0.1223  0.1195
   13MOL   C11011654   4.082   0.014   1.658 -0.1582 -0.0637  0.6879
   13MOL   O11111655   3.983   7.746   1.718 -0.2054  0.1882  0.1797
   13MOL   C11211656   4.207   7.695   1.640  0.4562 -0.3972 -0.0247
   13MOL   C11311657   4.205   7.618   1.510 -0.2622  0.1148  0.4833
   13MOL   C11411658   4.139   7.479   1.533 -1.1919  0.4073 -0.2641
   13MOL   C11511659   4.155   7.381   1.418 -0.5175 -0.4988  0.2340
   13MOL   C11611660   4.059   7.259   1.421 -0.9470 -0.8279  0.1883
   13MOL   O11711661   3.989   7.231   1.325 -0.1061 -0.2234  0.1550
   13MOL   H11811662   3.695   1.022   0.874  1.0372 -0.5070 -1.2316
   13MOL   H11911663   3.852   1.071   0.895 -1.2416  1.9424 -0.2303
   13MOL   H12011664   3.644   0.929   1.095 -0.3485 -1.0377 -0.9717
   13MOL   H12111665   3.805   0.968   1.160 -0.0445 -0.0468  0.5001
   13MOL   H12211666   3.764   0.781   0.914  0.9571  0.3270 -0.1556
   13MOL   H12311667   3.909   0.824   0.996  0.4101  1.0561  0.5001
   13MOL   H12411668   3.850   0.607   1.048 -0.8381  0.8997 -2.6965
   13MOL   H12511669   3.686   0.637   1.095  1.7953 -3.0040  1.5622
   13MOL   H12611670   3.757   0.757   1.292 -0.8637  1.2816 -2.0095
   13MOL   H12711671   3.926   0.753   1.251  0.5347 -0.3255  0.1258
   13MOL   H12811672   3.914   0.495   1.274  1.2064  0.8985  1.0948
   13MOL   H12911673   3.745   0.520   1.322 -0.1612 -0.4238  1.0245
   13MOL   H13011674   3.848   0.660   1.516 -1.4167 -2.0876 -0.2033
   13MOL   H13111675   4.000   0.632   1.472 -0.3551  0.1886  0.6564
   13MOL   H13211676   3.811   0.416   1.581 -0.1461  1.2628 -1.3596
   13MOL   H13311677   3.931   0.496   1.666 -1.6747  1.6642 -0.7230
   13MOL   H13411678   3.986   0.319   1.431  0.6820 -0.0654  0.6827
   13MOL   H13511679   4.112   0.412   1.512  1.0384 -1.0580 -0.6978
   13MOL   H13611680   3.911   0.216   1.638 -0.5535  0.4224 -3.0949
   13MOL   H13711681   4.055   0.296   1.724 -1.1609 -0.1290  0.7234
   13MOL   H13811682   4.290   0.001   1.642  0.9009 -0.9276  0.3193
   13MOL   H13911683   4.226   7.622   1.719  2.6676 -2.2181 -2.1664
   13MOL   H14011684   4.311   7.601   1.491 -0.2408  0.1865  0.5392
   13MOL   H14111685   4.158   7.672   1.428  0.1748 -0.7525 -0.3474
   13MOL   H14211686   4.034   7.494   1.555 -2.1923  0.9453 -4.9690
   13MOL   H14311687   4.177   7.432   1.624  0.4657 -0.1196 -1.1979
   13MOL   H14411688   4.262   7.359   1.409 -0.1470  0.7701  1.3276
   13MOL   H14511689   4.117   7.425   1.325  1.0245  1.0770  0.3217
   13MOL   O14611690   4.068   7.184   1.525 -0.2848  0.4855 -0.1935
   13MOL   C14711691   3.977   7.073   1.550  0.7635 -0.4684  0.1075
   13MOL   C14811692   3.850   7.123   1.617  0.0901  0.3788 -0.1960
   13MOL   C14911693   3.757   7.005   1.644 -0.6238 -0.3047  0.8824
   13MOL   C15011694   3.631   7.042   1.725  0.2247 -0.0613  0.2746
   13MOL   C15111695   3.543   6.934   1.779 -0.1935  0.6363  0.0657
   13MOL   C15211696   3.444   6.875   1.672  0.1678 -0.0302  0.0727
   13MOL   C15311697   3.330   6.792   1.731  0.5226  0.0078 -0.3807
   13MOL   C15411698   3.365   6.682   1.829  0.5047 -0.4905  0.7744
   13MOL   C15511699   3.256   6.589   1.894 -0.2093  0.7993 -0.5544
   13MOL   C15611700   3.134   6.662   1.952  0.9002  0.5289 -0.4349
   13MOL   O15711701   3.184   6.768   2.038 -0.1750  0.5282  0.1742
   13MOL   C15811702   3.107   6.873   2.077  0.0200  0.0433  0.6559
   13MOL   O15911703   2.990   6.889   2.035 -0.0037 -0.0319 -0.0717
   13MOL   C16011704   3.182   6.965   2.167  1.2447 -0.4674 -0.0759
   13MOL   C16111705   3.100   7.028   2.277  0.0098 -0.2587 -0.0526
   13MOL   C16211706   3.059   6.940   2.396 -0.6011  0.0523  1.1197
   13MOL   C16311707   3.003   7.027   2.509 -0.1857 -0.2829  0.2301
   13MOL   C16411708   3.111   7.090   2.600  0.9088  0.6920  0.7593
   13MOL   O16511709   3.228   7.058   2.600 -0.6466 -0.0976  0.0777
   13MOL   H16611710   3.964   7.009   1.462 -2.9273 -0.6146  0.6652
   13MOL   H16711711   4.033   7.007   1.617  1.8830 -0.4559 -0.8030
   13MOL   H16811712   3.794   7.185   1.547 -1.0176  0.1205  0.4368
   13MOL   H16911713   3.873   7.165   1.715 -1.9388  1.3938 -0.1303
   13MOL   H17011714   3.726   6.967   1.547 -0.0865  1.8720 -0.1508
   13MOL   H17111715   3.811   6.918   1.683 -2.3537 -2.1353 -0.7245
   13MOL   H17211716   3.570   7.096   1.653 -0.5567 -0.9347  0.2799
   13MOL   H17311717   3.671   7.103   1.807  1.0371 -0.0687 -0.1132
   13MOL   H17411718   3.490   6.967   1.868  0.6085 -3.8759  2.4017
   13MOL   H17511719   3.605   6.860   1.830 -0.5625  2.3478  3.1439
   13MOL   H17611720   3.503   6.803   1.615  0.2798 -1.0489  1.4510
   13MOL   H17711721   3.397   6.961   1.624  0.0430 -0.5337 -0.7238
   13MOL   H17811722   3.264   6.751   1.654 -0.7160 -0.8249  1.1130
   13MOL   H17911723   3.268   6.866   1.782 -1.1633 -0.4422 -1.7044
   13MOL   H18011724   3.416   6.728   1.914  0.6554 -1.8514  1.4303
   13MOL   H18111725   3.445   6.616   1.796 -0.1468 -1.0166  0.2225
   13MOL   H18211726   3.215   6.519   1.821 -2.6346  0.2601  1.2904
   13MOL   H18311727   3.300   6.527   1.972 -0.9453 -0.4665 -1.1422
   13MOL   H18411728   3.080   6.603   2.026 -1.0206  1.7391 -0.8490
   13MOL   H18511729   3.077   6.706   1.871 -1.1032  1.7154  1.5763
   13MOL   H18611730   3.263   6.912   2.218  0.9614 -2.3052 -1.5102
   13MOL   H18711731   3.217   7.046   2.104 -2.1121  1.0634 -0.1105
   13MOL   H18811732   3.011   7.060   2.223  1.7858 -1.3295 -3.8047
   13MOL   H18911733   3.162   7.106   2.321  0.5311 -0.0489 -1.1241
   13MOL   H19011734   3.147   6.880   2.422 -0.2722  0.2087  0.3867
   13MOL   H19111735   2.981   6.874   2.358  0.7515 -1.3380  0.6786
   13MOL   H19211736   2.942   6.969   2.577 -2.0468  2.2464  0.7900
   13MOL   H19311737   2.953   7.109   2.458  0.3316 -0.2932 -0.3054
   13MOL   O19411738   3.058   7.178   2.683 -0.2191 -0.6735  0.6186
   13MOL   C19511739   3.135   7.248   2.783 -0.3223 -0.0747 -0.4239
   13MOL   C19611740   3.056   7.343   2.868  0.0326 -0.3664 -0.0439
   13MOL   C19711741   3.146   7.436   2.955 -0.7558 -0.1316  0.0934
   13MOL   C19811742   3.220   7.540   2.873  0.7286 -0.0661  0.0701
   13MOL   C19911743   3.279   7.659   2.951  0.6889 -0.2379  0.6210
   13MOL   C20011744   3.400   7.608   3.022 -0.0634 -0.2377  0.6792
   13MOL   C20111745   3.490   7.712   3.096  0.2821 -0.3267 -0.0366
   13MOL   C20211746   3.584   0.029   2.999  0.9741  0.2564 -0.4152
   13MOL   C20311747   3.680   7.699   2.914  0.6322 -0.8337 -0.5162
   13MOL   C20411748   3.788   0.021   2.857 -0.3982  0.4898 -0.1147
   13MOL   O20511749   3.741   0.115   2.757  0.7940 -0.6659  0.1529
   13MOL   C20611750   3.717   0.242   2.795  0.8134 -0.4484  0.7337
   13MOL   O20711751   3.733   0.293   2.905 -0.5330 -0.1248 -0.0863
   13MOL   C20811752   3.642   0.327   2.689  0.1860  0.1207 -0.2534
   13MOL   C20911753   3.509   0.268   2.645 -0.4404 -0.8638  0.4077
   13MOL   C21011754   3.411   0.372   2.586 -0.6712 -1.0326 -0.1475
   13MOL   C21111755   3.273   0.314   2.557  0.8276 -0.5238  0.4979
   13MOL   C21211756   3.170   0.405   2.486  0.8648 -0.6555 -0.4117
   13MOL   O21311757   3.143   0.391   2.366  0.2413  0.8304 -0.1545
   13MOL   H21411758   3.194   7.178   2.843  1.1895 -0.4467 -2.2828
   13MOL   H21511759   3.216   7.299   2.730 -1.5586  1.5284 -0.7879
   13MOL   H21611760   2.989   7.287   2.933  1.1382 -1.7053 -0.0261
   13MOL   H21711761   2.998   7.413   2.808 -1.4661  2.0564  4.0573
   13MOL   H21811762   3.096   7.494   3.032  4.4843  0.8663  2.9753
   13MOL   H21911763   3.212   7.377   3.019 -0.3983  1.4773  1.2452
   13MOL   H22011764   3.153   7.576   2.795 -0.3817  0.3328  1.2047
   13MOL   H22111765   3.300   7.498   2.811 -1.1495 -2.1006 -1.0198
   13MOL   H22211766   3.206   7.711   3.012  1.0642  1.8698 -0.6582
   13MOL   H22311767   3.312   7.730   2.875  0.9897 -2.7898 -1.7085
   13MOL   H22411768   3.468   7.551   2.960 -1.1136 -0.3290 -0.4171
   13MOL   H22511769   3.357   7.547   3.102 -0.2098  0.0456  0.8185
   13MOL   H22611770   3.555   7.659   3.167 -0.5304 -1.6677 -0.2815
   13MOL   H22711771   3.434   0.033   3.134  2.9261  0.7305  1.6241
   13MOL   H22811772   3.644   0.097   3.060  0.7737  0.8376 -0.8510
   13MOL   H22911773   3.516   0.088   2.937 -2.2491 -2.0714  0.7380
   13MOL   H23011774   3.722   7.619   2.975 -1.0603 -0.3619  1.3452
   13MOL   H23111775   3.621   7.658   2.832  0.2763  1.5475 -1.4979
   13MOL   H23211776   3.864   7.722   2.813  1.3166 -0.1948  3.6328
   13MOL   H23311777   3.838   0.071   2.939 -0.5040 -0.4849  0.5537
   13MOL   H23411778   3.635   0.430   2.725 -0.5869  0.3404 -1.0258
   13MOL   H23511779   3.705   0.343   2.602 -1.1430  0.8177 -1.0876
   13MOL   H23611780   3.469   0.218   2.733  3.1543 -1.5132  1.7397
   13MOL   H23711781   3.506   0.182   2.578  3.3453  0.3755 -1.4830
   13MOL   H23811782   3.458   0.406   2.494  0.5997  1.0516  1.2300
   13MOL   H23911783   3.413   0.453   2.658  0.4568 -0.7846 -0.4443
   13MOL   H24011784   3.221   0.295   2.651  0.7844 -0.7463  0.4293
   13MOL   H24111785   3.272   0.214   2.514  0.4930  0.3441 -1.5286
   13MOL   O24211786   3.117   0.501   2.559  0.1861 -0.3722  0.2560
   13MOL   C24311787   3.052   0.612   2.499  0.3056  0.2045 -0.0644
   13MOL   C24411788   3.010   0.724   2.601 -0.4846  0.5374 -0.0054
   13MOL   C24511789   2.933   0.673   2.720 -0.7241 -0.0633 -0.2883
   13MOL   C24611790   2.853   0.792   2.786  0.1671  0.2169 -1.7476
   13MOL   C24711791   2.746   0.841   2.695  0.0418  0.0835  0.1514
   13MOL   C24811792   2.650   0.934   2.776 -0.5249  0.4890 -0.0125
   13MOL   C24911793   2.535   1.007   2.685 -0.1579 -0.0960 -0.5804
   13MOL   C25011794   2.459   1.117   2.754  1.3911  0.0396  0.9348
   13MOL   C25111795   2.364   1.202   2.664  0.2146 -0.1720  0.1809
   13MOL   C25211796   2.245   1.269   2.722  0.6656  0.2339 -0.2235
   13MOL   O25311797   2.296   1.376   2.803  0.0151  0.0286 -0.2371
   13MOL   C25411798   2.213   1.462   2.861  0.4387  0.2920 -0.3603
   13MOL   O25511799   2.093   1.459   2.840  0.3962  0.0802  0.0220
   13MOL   C25611800   2.278   1.563   2.949 -0.6460 -0.5057 -0.2558
   13MOL   C25711801   2.272   1.534   3.103 -0.5881  0.5839  0.7309
   13MOL   C25811802   2.307   1.386   3.144  0.4820 -0.3223  0.2559
   13MOL   C25911803   2.291   1.347   3.288  0.1675 -0.2366  0.5363
   13MOL   C26011804   2.382   1.427   3.377  0.6933  0.3462  0.6154
   13MOL   O26111805   2.341   1.492   3.471  0.2635 -0.7491  0.3347
   13MOL   H26211806   3.117   0.662   2.427 -0.9030  2.2045  0.1941
   13MOL   H26311807   2.967   0.575   2.441 -1.4052  0.2589  2.3269
   13MOL   H26411808   2.964   0.795   2.532 -1.2841  0.2482  0.2206
   13MOL   H26511809   3.097   0.778   2.638 -2.2513  2.2782  1.7488
   13MOL   H26611810   2.863   0.598   2.685  1.4952 -1.4491 -1.9793
   13MOL   H26711811   3.002   0.628   2.792  0.6833 -1.1776 -2.2637
   13MOL   H26811812   2.922   0.866   2.829  0.6241  0.0819 -2.2404
   13MOL   H26911813   2.810   0.748   2.876  3.3996 -0.5958 -0.5201
   13MOL   H27011814   2.688   0.759   2.653 -1.3760  0.8250  0.6336
   13MOL   H27111815   2.791   0.894   2.612 -1.0751  1.8886  0.6666
   13MOL   H27211816   2.699   1.016   2.828  0.5176  0.3068 -0.7006
   13MOL   H27311817   2.600   0.882   2.858  0.2961  1.1244  0.9131
   13MOL   H27411818   2.455   0.940   2.652  0.5285 -0.9699 -0.4767
   13MOL   H27511819   2.575   1.042   2.589  0.5614  1.4943  0.2911
   13MOL   H27611820   2.528   1.188   2.801 -0.0829  2.0551  0.1489
   13MOL   H27711821   2.398   1.072   2.832 -0.8597 -0.8754 -1.2831
   13MOL   H27811822   2.415   1.275   2.601  0.4654 -0.3630  0.1616
   13MOL   H27911823   2.314   1.132   2.598  1.0444 -0.2367 -0.3891
   13MOL   H28011824   2.182   1.197   2.775  0.7186  1.3926  1.4334
   13MOL   H28111825   2.187   1.305   2.637  1.4649  0.6425 -0.6088
   13MOL   H28211826   2.383   1.568   2.921 -0.3580 -2.4475  0.3737
   13MOL   H28311827   2.236   1.662   2.930 -1.0492 -0.7048 -0.4206
   13MOL   H28411828   2.173   1.556   3.142  0.7087  1.1880  3.9087
   13MOL   H28511829   2.337   1.605   3.156  2.1164 -0.8326 -0.5554
   13MOL   H28611830   2.412   1.383   3.114  1.5189 -1.9222  3.7947
   13MOL   H28711831   2.266   1.306   3.082  0.1631  0.0335  0.0050
   13MOL   H28811832   2.302   1.240   3.308 -0.7603 -0.6101 -0.8787
   13MOL   H28911833   2.189   1.366   3.322 -0.3574  0.1481 -1.2025
   13MOL   O29011834   2.510   1.421   3.337  0.5270  0.1906 -0.2471
   13MOL   C29111835   2.612   1.494   3.400  0.7853 -0.9351  0.1298
   13MOL   C29211836   2.728   1.399   3.414 -0.4232  0.2859  0.1765
   13MOL   C29311837   2.833   1.453   3.505 -0.5154  0.1257  0.2862
   13MOL   C29411838   2.965   1.379   3.510 -0.7149 -0.5500  0.2603
   13MOL   C29511839   3.075   1.445   3.596  0.1687 -0.2573 -0.3687
   13MOL   C29611840   3.106   1.593   3.578 -0.6637  0.1951  0.6336
   13MOL   C29711841   3.227   1.653   3.655 -0.2474 -0.2356  0.6246
   13MOL   C29811842   3.201   1.664   3.803 -0.2215 -0.0794  0.0920
   13MOL   C29911843   3.326   1.717   3.878 -0.7784 -0.5594 -0.0159
   13MOL   C30011844   3.311   1.749   4.031 -0.2226 -0.2453  0.6903
   13MOL   O30111845   3.287   1.630   4.101 -0.2508  0.4839  0.9484
   13MOL   C30211846   3.160   1.605   4.156  0.1433  0.5741 -0.0572
   13MOL   O30311847   3.063   1.677   4.152  0.8167  0.4188 -0.0191
   13MOL   C30411848   3.144   1.463   4.210 -0.1016 -0.0312 -0.1526
   13MOL   C30511849   3.002   1.415   4.205  0.8164 -0.0045  0.3089
   13MOL   C30611850   2.974   1.288   4.297  0.4932 -0.1935  0.8219
   13MOL   C30711851   2.827   1.274   4.347  0.2730 -0.0073 -0.1839
   13MOL   C30811852   2.763   1.390   4.424 -0.4190  0.1615 -0.1486
   13MOL   O30911853   2.662   1.437   4.384 -0.0022  0.0187  0.3352
   13MOL   H31011854   2.635   1.573   3.329  1.2012 -0.7238  0.5021
   13MOL   H31111855   2.587   1.524   3.502 -0.0050 -2.8017  0.5059
   13MOL   H31211856   2.761   1.390   3.311  1.0738  0.4916  0.6284
   13MOL   H31311857   2.685   1.305   3.450 -2.0907  1.3047  0.9115
   13MOL   H31411858   2.862   1.555   3.479  0.7032 -0.4839 -0.8241
   13MOL   H31511859   2.791   1.453   3.606  0.0612 -0.1480  0.5293
   13MOL   H31611860   2.981   1.362   3.404 -1.5845 -0.4564  0.1108
   13MOL   H31711861   2.941   1.284   3.558 -3.6342 -0.3019 -0.6441
   13MOL   H31811862   3.166   1.390   3.573  0.3833 -0.3663  0.7038
   13MOL   H31911863   3.058   1.423   3.702 -0.5153  0.4508 -0.3256
   13MOL   H32011864   3.015   1.651   3.595  0.2157  1.7732  0.1357
   13MOL   H32111865   3.115   1.597   3.469 -2.2254  0.5688  0.5034
   13MOL   H32211866   3.266   1.748   3.619 -0.4242 -1.1499 -2.0636
   13MOL   H32311867   3.312   1.586   3.644  1.0700  1.5813 -0.4068
   13MOL   H32411868   3.166   1.567   3.837  0.6676 -0.0041  1.2418
   13MOL   H32511869   3.128   1.744   3.817  1.3250  1.5439 -0.8054
   13MOL   H32611870   3.403   1.640   3.872 -1.5988 -1.2561 -1.9722
   13MOL   H32711871   3.360   1.806   3.824  1.2968 -0.4695  1.4020
   13MOL   H32811872   3.238   1.825   4.060 -0.1154 -0.0370  0.4174
   13MOL   H32911873   3.411   1.782   4.059  0.3935 -1.4398 -0.0872
   13MOL   H33011874   3.209   1.391   4.159  0.3455 -0.5599  1.1476
   13MOL   H33111875   3.180   1.471   4.313 -2.2007  4.4935  0.3592
   13MOL   H33211876   2.971   1.402   4.101  0.3961  0.1996  0.4077
   13MOL   H33311877   2.932   1.492   4.237 -2.2643 -1.9372 -1.5811
   13MOL   H33411878   3.035   1.295   4.387 -1.4521  2.3979  2.0087
   13MOL   H33511879   3.005   1.201   4.240 -1.9384  0.3389 -1.3909
   13MOL   H33611880   2.809   1.187   4.410 -1.7483 -0.7854 -1.7946
   13MOL   H33711881   2.758   1.252   4.266 -0.6770  0.7927  0.3940
   13MOL   O33811882   2.828   1.429   4.537  0.4991  0.1362  0.3069
   13MOL   C33911883   2.773   1.517   4.625 -0.3769  0.7114 -0.6723
   13MOL   C34011884   2.883   1.551   4.729  0.5923  0.3570 -0.3428
   13MOL   C34111885   2.861   1.670   4.823 -0.2322  0.8666 -0.8339
   13MOL   C34211886   2.977   1.676   4.928 -0.2077 -0.5418 -0.1232
   13MOL   C34311887   2.960   1.798   5.030  0.0572  0.2512  0.0880
   13MOL   C34411888   3.097   1.823   5.088  1.3371  0.7372  1.1387
   13MOL   C34511889   3.103   1.946   5.183  0.5983  0.2090 -0.6338
   13MOL   C34611890   3.243   1.988   5.222 -0.1708 -1.0743 -0.3911
   13MOL   C34711891   3.249   2.109   5.317 -0.3504  0.4856  0.4586
   13MOL   C34811892   3.383   2.184   5.328  0.0083  0.0106  0.2691
   13MOL   O34911893   3.398   2.270   5.219  0.2056 -0.1949 -0.4489
   13MOL   C35011894   3.389   2.399   5.217 -0.2517 -0.5330 -0.3177
   13MOL   O35111895   3.354   2.472   5.310  0.6432  0.3759 -0.6775
   13MOL   C35211896   3.401   2.458   5.077  0.1737  0.4198  0.1041
   13MOL   C35311897   3.549   2.466   5.037  0.4846 -0.1357 -0.1549
   13MOL   C35411898   3.618   2.336   4.989 -0.9591  0.4397  0.7331
   13MOL   C35511899   3.758   2.366   4.927 -0.4813  1.0839  0.4647
   13MOL   C35611900   3.769   2.295   4.791  0.5064  0.4029 -0.3785
   13MOL   O35711901   3.678   2.237   4.736 -0.1872 -0.4298  0.1442
   13MOL   H35811902   2.735   1.605   4.573 -3.3574 -0.8760 -1.3032
   13MOL   H35911903   2.696   1.460   4.678  0.9366  2.5638  3.4553
   13MOL   H36011904   2.975   1.589   4.685 -0.2082  2.9921  0.1537
   13MOL   H36111905   2.919   1.463   4.782 -0.7078  0.4518  0.7230
   13MOL   H36211906   2.860   1.769   4.776 -1.5988  0.6841 -1.2053
   13MOL   H36311907   2.764   1.668   4.872 -0.1476  1.5587 -0.6309
   13MOL   H36411908   3.069   1.694   4.872 -0.9823 -1.5177 -1.7505
   13MOL   H36511909   2.988   1.577   4.973  0.6334  0.6565  2.4155
   13MOL   H36611910   2.893   1.791   5.116  2.1365 -1.3773  1.6266
   13MOL   H36711911   2.923   1.888   4.981  0.6161 -0.8308 -2.3821
   13MOL   H36811912   3.173   1.831   5.010 -0.2391 -1.5395 -0.7047
   13MOL   H36911913   3.127   1.727   5.130 -0.5864  0.1012  1.1201
   13MOL   H37011914   3.053   1.912   5.274 -1.4134  0.4129 -1.6278
   13MOL   H37111915   3.054   2.034   5.142  2.8544  1.8623  0.1303
   13MOL   H37211916   3.283   2.018   5.126 -1.7190  0.0920 -0.6934
   13MOL   H37311917   3.310   1.908   5.254 -0.5535 -1.0001  0.6285
   13MOL   H37411918   3.177   2.185   5.287 -1.5473 -1.5292 -1.9403
   13MOL   H37511919   3.225   2.066   5.415  0.5131 -3.2088 -0.8571
   13MOL   H37611920   3.470   2.120   5.338  0.4166  0.2690 -1.4286
   13MOL   H37711921   3.362   2.236   5.422  0.2794 -0.1772  0.4337
   13MOL   H37811922   3.332   2.404   5.013  0.7724  1.5946 -1.5642
   13MOL   H37911923   3.357   2.557   5.091 -2.2862 -0.5582 -0.5299
   13MOL   H38011924   3.614   2.503   5.116  1.2652 -0.9360 -0.4061
   13MOL   H38111925   3.554   2.540   4.958 -1.5968 -0.0157 -0.1889
   13MOL   H38211926   3.553   2.281   4.922 -0.8349 -0.6459  1.4969
   13MOL   H38311927   3.634   2.267   5.072 -0.0221 -2.9008 -2.0973
   13MOL   H38411928   3.830   2.319   4.993 -0.6301 -1.9058 -1.4380
   13MOL   H38511929   3.784   2.472   4.918 -2.0259  1.3811 -0.7755
   13MOL   O38611930   3.887   2.317   4.743 -0.2526 -0.7078 -0.0220
   13MOL   C38711931   3.931   2.236   4.637  0.3164  0.6528  0.0719
   13MOL   C38811932   4.059   2.283   4.578 -0.4539  0.4223  0.3697
   13MOL   C38911933   4.062   2.434   4.553  0.5380  0.4223 -0.0808
   13MOL   C39011934   4.200   2.461   4.493  0.3677 -0.6029  0.0981
   13MOL   C39111935   4.211   2.608   4.449  0.1354  0.2213  0.2081
   13MOL   C39211936   4.351   2.632   4.399 -0.9776 -0.2539  0.6711
   13MOL   C39311937   4.376   2.774   4.350 -0.4199  0.3668  0.2283
   13MOL   C39411938   4.266   2.821   4.245 -0.4245 -0.1313  0.7471
   13MOL   C39511939   4.281   2.761   4.106 -0.3528 -0.7759 -0.0566
   13MOL   C39611940   4.194   2.818   3.992  0.4003 -0.1737  0.7469
   13MOL   O39711941   4.237   2.766   3.874  0.3892  0.0091  0.0489
   13MOL   C39811942   4.201   2.643   3.833  0.7668 -0.1179  0.1609
   13MOL   O39911943   4.141   2.562   3.904 -0.9752 -0.9212 -0.2945
   13MOL   C40011944   4.236   2.615   3.691 -0.1840 -0.5246 -0.0223
   13MOL   C40111945   4.160   2.714   3.597 -1.0714  0.0415 -0.6203
   13MOL   C40211946   4.026   2.661   3.538  0.9780 -0.3115  0.1981
   13MOL   C40311947   3.971   2.745   3.423 -0.7275  0.5809 -0.1060
   13MOL   C40411948   3.831   2.718   3.376  0.2386 -0.2425 -0.4245
   13MOL   O40511949   3.825   2.644   3.276 -0.0195 -0.2926 -0.1736
   13MOL   H40611950   3.952   2.132   4.664 -0.5686  0.6222  0.6740
   13MOL   H40711951   3.854   2.243   4.560 -0.9063 -1.0637  1.1028
   13MOL   H40811952   4.065   2.223   4.487 -0.6972  1.2100 -0.1702
   13MOL   H40911953   4.141   2.250   4.641  1.0053 -0.1205 -1.7353
   13MOL   H41011954   3.983   2.468   4.486  1.0251  1.5462 -0.1003
   13MOL   H41111955   4.056   2.491   4.645  0.0477  0.8595 -0.3845
   13MOL   H41211956   4.220   2.396   4.408  2.3961 -0.7074  0.6276
   13MOL   H41311957   4.284   2.456   4.563  0.3729  2.9134  0.4094
   13MOL   H41411958   4.179   2.683   4.522 -0.1530  1.0670 -0.7800
   13MOL   H41511959   4.143   2.608   4.364 -0.1917 -1.8149  0.4428
   13MOL   H41611960   4.374   2.569   4.313 -0.7196 -1.3748  1.5538
   13MOL   H41711961   4.431   2.605   4.468  0.0519 -0.8226 -0.7275
   13MOL   H41811962   4.476   2.761   4.308 -0.3350  1.6942 -0.0251
   13MOL   H41911963   4.376   2.842   4.435  2.1624  1.3974 -0.5495
   13MOL   H42011964   4.280   2.928   4.232 -0.8729 -0.3567 -1.8739
   13MOL   H42111965   4.168   2.805   4.291  0.0346 -0.1723  1.7335
   13MOL   H42211966   4.389   2.760   4.089 -0.1234 -1.3732  1.3209
   13MOL   H42311967   4.247   2.658   4.114 -0.8998 -0.5452  0.6606
   13MOL   H42411968   4.206   2.927   3.992  0.0430 -0.1332 -0.0096
   13MOL   H42511969   4.088   2.798   4.000  0.2644  0.4807  0.6377
   13MOL   H42611970   4.344   2.627   3.686 -0.0316 -1.6737  0.3042
   13MOL   H42711971   4.213   2.515   3.654 -2.0521 -0.3655  0.6849
   13MOL   H42811972   4.221   2.744   3.512 -0.7439  0.5234 -0.2136
   13MOL   H42911973   4.142   2.806   3.651 -0.9432 -1.0669  1.3591
   13MOL   H43011974   3.946   2.643   3.610  0.7481  0.9203  0.2519
   13MOL   H43111975   4.049   2.561   3.502 -0.6833 -0.6066 -0.0770
   13MOL   H43211976   4.035   2.756   3.335 -1.0485  2.1646 -0.1497
   13MOL   H43311977   3.965   2.844   3.468  0.9033  0.5410  0.2610
   13MOL   O43411978   3.735   2.774   3.447 -0.1724  0.2361  0.0183
   13MOL   C43511979   3.599   2.746   3.421 -0.4781 -0.7858  0.0874
   13MOL   C43611980   3.551   2.614   3.489 -0.6328 -0.2029  0.8621
   13MOL   C43711981   3.569   2.611   3.639  0.2237 -0.4387 -0.3074
   13MOL   C43811982   3.520   2.488   3.705  0.1413 -0.0366 -0.0136
   13MOL   C43911983   3.594   2.365   3.667  0.0496  0.3464 -0.2700
   13MOL   C44011984   3.578   2.248   3.769 -0.0827  0.0535  0.1995
   13MOL   C44111985   3.686   2.145   3.767  0.1878  0.4257  0.3418
   13MOL   C44211986   3.660   2.010   3.842 -0.2744 -0.1325  0.6576
   13MOL   C44311987   3.748   1.890   3.804 -0.7695 -0.4283  0.2331
   13MOL   C44411988   3.743   1.783   3.917 -0.2401 -0.2705  0.1936
   13MOL   O44511989   3.841   1.690   3.883 -0.7581 -0.3198 -0.0696
   13MOL   C44611990   3.837   1.559   3.918 -0.0326 -0.2175  0.1420
   13MOL   O44711991   3.754   1.514   3.999 -0.1364  0.0859  0.6665
   13MOL   C44811992   3.952   1.476   3.855  0.4832  0.0254 -0.0182
   13MOL   C44911993   4.054   1.419   3.948 -0.1512  0.6084  0.2693
   13MOL   C45011994   4.164   1.334   3.876  0.8998  0.2231  0.7773
   13MOL   C45111995   4.277   1.284   3.970  0.1767  0.1940 -0.4922
   13MOL   C45211996   4.415   1.269   3.894 -0.2832 -0.8503  0.2969
   13MOL   O45311997   4.521   1.317   3.931 -0.6060 -0.0272  0.7357
   13MOL   H45411998   3.539   2.828   3.460 -0.0248 -0.0587 -0.7267
   13MOL   H45511999   3.592   2.744   3.313 -0.7254  1.0608  0.0498
   13MOL   H45612000   3.613   2.537   3.442 -0.4121  1.5033 -1.7636
   13MOL   H45712001   3.450   2.597   3.451 -0.5167  1.4051 -0.2015
   13MOL   H45812002   3.672   2.627   3.670 -0.1019 -2.3298  1.7978
   13MOL   H45912003   3.519   2.695   3.686  1.4691 -0.2753  0.7777
   13MOL   H46012004   3.412   2.485   3.691  0.1202  0.2688  0.0649
   13MOL   H46112005   3.526   2.498   3.814  1.6251  0.2638 -0.1201
   13MOL   H46212006   3.698   2.398   3.660  0.7430 -1.6198  0.1916
   13MOL   H46312007   3.562   2.329   3.569  2.4921 -0.0427 -0.9557
   13MOL   H46412008   3.476   2.215   3.751  0.1427 -0.7901  0.4591
   13MOL   H46512009   3.583   2.285   3.872  3.2249 -0.3948  0.2631
   13MOL   H46612010   3.780   2.190   3.800  0.5220  0.2372 -0.3436
   13MOL   H46712011   3.708   2.131   3.661 -0.2493 -0.7156  0.3931
   13MOL   H46812012   3.557   1.990   3.810  0.4806 -1.3952 -1.0611
   13MOL   H46912013   3.662   2.015   3.951 -2.1278 -0.3082  0.7181
   13MOL   H47012014   3.710   1.849   3.711 -4.0259 -0.4243  1.4759
   13MOL   H47112015   3.850   1.926   3.792 -0.9589  0.7579  1.9810
   13MOL   H47212016   3.645   1.737   3.919  0.1382 -1.5171 -4.2295
   13MOL   H47312017   3.764   1.828   4.014 -0.0193 -1.8192  0.8948
   13MOL   H47412018   3.901   1.403   3.793  2.2318 -0.8084 -0.5191
   13MOL   H47512019   4.001   1.538   3.779  0.4107 -0.2796 -0.3115
   13MOL   H47612020   3.996   1.368   4.025 -0.3886  0.0524 -0.2733
   13MOL   H47712021   4.109   1.499   3.999  1.3768 -0.1641 -0.1293
   13MOL   H47812022   4.201   1.390   3.790 -1.8758  0.0470 -0.5823
   13MOL   H47912023   4.115   1.247   3.833  4.5264 -0.9916 -1.1470
   13MOL   H48012024   4.261   1.186   4.014 -1.5789  1.4470  1.7888
   13MOL   H48112025   4.287   1.356   4.052 -1.1201 -1.4004  1.1164
   13MOL   O48212026   4.398   1.193   3.788 -0.4824  0.2239 -0.4959
   13MOL   C48312027   4.506   1.167   3.695  0.2142 -0.2236  0.1512
   13MOL   C48412028   4.516   1.275   3.578 -0.7033  0.6262 -0.0969
   13MOL   C48512029   4.512   1.426   3.626  0.2302  0.0965 -0.2895
   13MOL   C48612030   4.518   1.527   3.512 -0.0563 -1.0366 -1.1758
   13MOL   C48712031   4.523   1.673   3.562 -0.0206 -0.0934  0.2964
   13MOL   C48812032   4.568   1.789   3.469 -0.1546  0.1281  0.1604
   13MOL   C48912033   4.708   1.757   3.414 -0.0301 -0.4859 -0.5399
   13MOL   C49012034   4.780   1.869   3.352  0.6113  0.4588  0.0067
   13MOL   C49112035   4.927   1.830   3.314 -0.6263  0.1824 -0.8897
   13MOL   C49212036   5.009   1.937   3.244  0.6748  0.5035 -0.6795
   13MOL   O49312037   5.145   1.921   3.235  0.5703  0.1631  0.3917
   13MOL   C49412038   5.216   2.028   3.201 -0.2018 -0.4963  0.0039
   13MOL   O49512039   5.172   2.142   3.166  0.3676 -0.1588  0.2524
   13MOL   C49612040   5.368   1.999   3.198 -0.1492  0.3273  0.3565
   13MOL   C49712041   5.452   2.093   3.116  0.0955 -0.2645  0.7377
   13MOL   C49812042   5.599   2.066   3.131 -0.0625 -0.8985  0.2835
   13MOL   C49912043   5.685   2.188   3.075  0.3376  0.0962  0.1713
   13MOL   C50012044   5.682   2.222   2.928 -0.1786 -0.5870  0.4127
   13MOL   O50112045   5.682   2.338   2.882 -0.1100  0.1769 -0.0978
   13MOL   H50212046   4.596   1.168   3.756  0.5693 -0.0480 -0.3743
   13MOL   H50312047   4.492   1.064   3.662 -0.5460 -0.0518 -0.0724
   13MOL   H50412048   4.430   1.246   3.518 -1.1450 -3.4629  2.3599
   13MOL   H50512049   4.594   1.261   3.503 -0.8489 -0.2593 -0.0826
   13MOL   H50612050   4.418   1.437   3.680 -0.8076  1.1499 -2.2649
   13MOL   H50712051   4.591   1.447   3.698 -0.2450 -3.0236  1.2182
   13MOL   H50812052   4.439   1.511   3.438 -0.9279  0.1939 -0.5250
   13MOL   H50912053   4.610   1.495   3.464  1.7076 -0.6189  1.7687
   13MOL   H51012054   4.570   1.683   3.660 -1.8519  1.2808  1.0802
   13MOL   H51112055   4.422   1.701   3.591 -1.5561 -0.4103 -4.2896
   13MOL   H51212056   4.550   1.888   3.509  0.5130  0.8493 -1.2911
   13MOL   H51312057   4.509   1.795   3.377 -0.5366 -0.7640  0.3429
   13MOL   H51412058   4.693   1.663   3.361 -0.4263 -1.5006  1.3352
   13MOL   H51512059   4.762   1.728   3.504 -1.1111  2.2225  1.0302
   13MOL   H51612060   4.772   1.959   3.412 -0.8757 -0.0812  0.6382
   13MOL   H51712061   4.740   1.884   3.251  2.2337 -0.3614 -0.7909
   13MOL   H51812062   4.973   1.821   3.412 -0.0238 -1.5685 -1.3226
   13MOL   H51912063   4.931   1.733   3.264  1.8409  0.2113 -0.8030
   13MOL   H52012064   4.972   2.027   3.293 -1.0945  1.0227 -2.8760
   13MOL   H52112065   4.979   1.945   3.139 -1.2354 -0.5713 -0.2361
   13MOL   H52212066   5.418   1.989   3.294  0.5520  3.5531  0.3755
   13MOL   H52312067   5.362   1.901   3.150 -1.1222 -0.2387  1.6022
   13MOL   H52412068   5.422   2.192   3.149 -3.7112 -0.7589 -0.9572
   13MOL   H52512069   5.415   2.071   3.016  1.5007  0.3143  0.0820
   13MOL   H52612070   5.634   1.972   3.089 -0.4833  0.3829 -3.1150
   13MOL   H52712071   5.616   2.064   3.239  3.6490  4.9439  0.0363
   13MOL   H52812072   5.785   2.169   3.114  0.6207  0.3544 -0.4305
   13MOL   H52912073   5.646   2.278   3.122  2.5352  1.8058 -1.1646
   13MOL   O53012074   5.681   2.113   2.860  0.3862 -0.6057 -0.1034
   13MOL   C53112075   5.659   2.117   2.721  0.7129  1.2232  0.3170
   13MOL   C53212076   5.575   1.996   2.681  0.2508 -0.3339  0.7547
   13MOL   C53312077   5.557   1.957   2.533 -0.2605 -0.1013 -1.0554
   13MOL   C53412078   5.513   1.807   2.509  0.1833  0.1126 -0.4402
   13MOL   C53512079   5.511   1.759   2.362  0.2582  0.0842  0.4165
   13MOL   C53612080   5.476   1.607   2.348 -0.5118 -0.6222  0.2527
   13MOL   C53712081   5.489   1.562   2.201 -0.4271  0.3602 -0.8220
   13MOL   C53812082   5.365   1.599   2.117 -0.7350  0.5177 -0.4583
   13MOL   C53912083   5.347   1.499   1.999 -0.1982  0.0794 -0.1957
   13MOL   C54012084   5.225   1.527   1.906  0.7641  0.2189 -0.4041
   13MOL   O54112085   5.105   1.514   1.985 -0.1495  0.0589 -0.8202
   13MOL   C54212086   5.007   1.440   1.941  0.3384 -0.3804  0.8079
   13MOL   O54312087   5.011   1.371   1.842  0.4160  0.3210  0.8512
   13MOL   C54412088   4.869   1.469   2.003 -0.5886 -0.1425  0.3754
   13MOL   C54512089   4.766   1.366   2.004  0.2285 -0.2446 -0.0295
   13MOL   C54612090   4.787   1.265   2.111  0.2470 -0.3355  0.4085
   13MOL   C54712091   4.671   1.157   2.134  0.4733  0.1866  0.5570
   13MOL   C54812092   4.651   1.067   2.011  0.2975 -0.3961  0.5729
   13MOL   O54912093   4.747   1.032   1.940 -0.0096 -1.4749  0.5174
   13MOL   H55012094   5.603   2.201   2.678 -0.2402  0.5239  0.1981
   13MOL   H55112095   5.759   2.102   2.679  0.6583  0.5582  0.4236
   13MOL   H55212096   5.477   2.003   2.727  0.0640 -2.1239  0.6308
   13MOL   H55312097   5.626   1.917   2.735 -1.4594 -1.1010  1.2567
   13MOL   H55412098   5.512   2.036   2.472  0.4150  0.4247 -0.8803
   13MOL   H55512099   5.663   1.952   2.507  0.2334 -1.3279  1.1148
   13MOL   H55612100   5.414   1.800   2.553  0.2486 -3.3856 -0.7067
   13MOL   H55712101   5.577   1.739   2.564 -1.0435 -1.3849 -0.8143
   13MOL   H55812102   5.610   1.773   2.318 -0.2261  2.4053 -0.0472
   13MOL   H55912103   5.436   1.815   2.306  2.7009  1.7658 -1.2690
   13MOL   H56012104   5.370   1.592   2.367 -0.1399 -2.2538  1.1120
   13MOL   H56112105   5.548   1.550   2.407 -1.8479 -0.4668  2.0781
   13MOL   H56212106   5.493   1.454   2.214  2.3475  0.6535  1.1764
   13MOL   H56312107   5.587   1.583   2.158  0.3888 -1.1126  0.2859
   13MOL   H56412108   5.378   1.697   2.072 -2.9525  1.5307  1.0331
   13MOL   H56512109   5.274   1.608   2.177 -1.7272 -0.2333 -1.8243
   13MOL   H56612110   5.438   1.505   1.939  0.4788 -0.0905  0.7976
   13MOL   H56712111   5.333   1.399   2.041  0.5448 -0.1853 -0.5676
   13MOL   H56812112   5.223   1.472   1.812  0.4362 -0.7484  0.1503
   13MOL   H56912113   5.235   1.629   1.871  1.8927 -0.0471 -0.8717
   13MOL   H57012114   4.880   1.504   2.105 -0.6104  0.2525  0.2437
   13MOL   H57112115   4.823   1.559   1.961 -0.0022  0.6935  1.5062
   13MOL   H57212116   4.781   1.319   1.907  1.9392 -0.0309  0.1168
   13MOL   H57312117   4.662   1.401   2.007  0.0955 -0.6921  0.5092
   13MOL   H57412118   4.785   1.320   2.205 -1.0008  0.7068 -0.2160
   13MOL   H57512119   4.880   1.209   2.108 -0.6577 -1.9257  1.1801
   13MOL   H57612120   4.577   1.209   2.153 -1.2605 -1.8464 -2.1330
   13MOL   H57712121   4.698   1.092   2.217  0.4357 -1.7043 -0.8760
   13MOL   O57812122   4.526   1.023   1.998  0.1552 -0.6335 -0.1734
   13MOL   C57912123   4.494   0.945   1.883 -0.0139 -0.2330  0.0046
   13MOL   C58012124   4.351   0.985   1.830 -0.6418 -0.0706 -0.2091
   13MOL   C58112125   4.244   0.983   1.941  0.6962  0.1250 -0.0406
   13MOL   C58212126   4.105   1.008   1.883  0.0410 -0.8573 -0.3363
   13MOL   C58312127   4.003   1.014   1.991 -0.2250  0.3429 -0.0251
   13MOL   C58412128   4.007   1.139   2.087  0.1856 -0.1350  0.2699
   13MOL   C58512129   3.896   1.131   2.193 -1.2451 -0.3112  0.2942
   13MOL   C58612130   3.753   1.127   2.139  0.0472 -0.8492 -0.2009
   13MOL   C58712131   3.652   1.168   2.249 -0.3938  0.1653  0.1571
   13MOL   C58812132   3.508   1.186   2.193 -0.1478  0.8173 -0.4529
   13MOL   O58912133   3.435   1.192   2.318 -0.0836  0.2380 -0.0322
   13MOL   C59012134   3.295   1.215   2.334  0.5256  0.1563  0.1562
   13MOL   O59112135   3.215   1.232   2.238  0.1061  0.1851  0.3125
   13MOL   C59212136   3.241   1.212   2.480 -0.2445 -0.0157 -0.0482
   13MOL   C59312137   3.312   1.105   2.555 -0.1894  0.2843 -0.3338
   13MOL   C59412138   3.256   1.054   2.687  0.3837  0.3990 -0.7260
   13MOL   C59512139   3.343   0.957   2.769 -0.0951 -0.3722  0.1809
   13MOL   C59612140   3.474   1.025   2.812  0.1538  0.4054  0.6061
   13MOL   O59712141   3.583   0.984   2.781 -0.4632  0.2221  0.4209
   13MOL   H59812142   4.571   0.945   1.807 -0.9597  0.3413 -0.9726
   13MOL   H59912143   4.487   0.841   1.915  1.6147  0.5498  3.0839
   13MOL   H60012144   4.322   0.923   1.746  0.6016  0.3835 -0.9909
   13MOL   H60112145   4.358   1.087   1.792  1.1784 -0.5707 -1.2649
   13MOL   H60212146   4.253   0.886   1.990  1.7439  0.1168 -0.2442
   13MOL   H60312147   4.269   1.055   2.018 -0.1501  1.8631 -1.3726
   13MOL   H60412148   4.087   0.922   1.819 -0.2750  0.7384 -2.4253
   13MOL   H60512149   4.108   1.098   1.822  2.6894 -1.8764 -1.8134
   13MOL   H60612150   3.999   0.925   2.054 -0.6973  0.2073 -0.2444
   13MOL   H60712151   3.907   1.016   1.938 -1.0309 -1.6121  1.3256
   13MOL   H60812152   3.998   1.231   2.028  1.1953 -0.1888  0.0170
   13MOL   H60912153   4.105   1.157   2.131  0.1970 -1.0354  0.6191
   13MOL   H61012154   3.904   1.213   2.264  0.6293  0.8047 -1.1493
   13MOL   H61112155   3.904   1.039   2.252  0.5509 -0.6549 -0.4556
   13MOL   H61212156   3.734   1.034   2.084  0.8152 -2.7311  2.6111
   13MOL   H61312157   3.756   1.202   2.060  0.9920  1.3001  1.8228
   13MOL   H61412158   3.657   1.094   2.328  1.3193 -0.5128 -0.5529
   13MOL   H61512159   3.680   1.264   2.293 -1.7984 -0.1739  1.7998
   13MOL   H61612160   3.464   1.103   2.137 -3.0207  1.0096  1.4253
   13MOL   H61712161   3.493   1.277   2.134 -2.5898 -0.7561 -2.3704
   13MOL   H61812162   3.260   1.304   2.536 -1.7290 -0.3905  1.0815
   13MOL   H61912163   3.133   1.224   2.468 -0.2732 -0.3809 -0.1696
   13MOL   H62012164   3.407   1.148   2.588  0.4502 -0.7546 -0.7951
   13MOL   H62112165   3.329   1.016   2.495 -1.7583 -1.0166  1.0870
   13MOL   H62212166   3.158   1.007   2.687 -0.0317  1.1540  2.6444
   13MOL   H62312167   3.241   1.143   2.748  0.1716  0.7094 -1.2267
   13MOL   H62412168   3.375   0.862   2.727 -1.1540 -0.3974 -0.5633
   13MOL   H62512169   3.294   0.915   2.857  1.8722 -0.0804  1.4637
   13MOL   O62612170   3.456   1.139   2.871  0.0183 -0.1078  0.2452
   13MOL   C62712171   3.568   1.227   2.893  0.1520 -1.0781  0.2081
   13MOL   C62812172   3.519   1.371   2.928  0.5808 -0.4454  0.1099
   13MOL   C62912173   3.438   1.438   2.815 -0.2666 -0.1667 -0.0524
   13MOL   C63012174   3.402   1.583   2.853 -0.5411  0.3801 -0.3043
   13MOL   C63112175   3.308   1.649   2.755 -0.4394  0.2090  0.3953
   13MOL   C63212176   3.233   1.761   2.826 -0.5290 -0.4559  0.0049
   13MOL   C63312177   3.112   1.717   2.904  0.3426  0.2906 -0.6549
   13MOL   C63412178   3.039   1.822   2.983 -0.4100  0.7393  0.1554
   13MOL   C63512179   3.106   1.873   3.114 -0.2522  0.3075 -0.6419
   13MOL   C63612180   3.043   1.998   3.178 -0.3358  0.9072  0.9318
   13MOL   O63712181   3.131   2.082   3.249 -0.1142  0.2011  0.2894
   13MOL   C63812182   3.180   2.052   3.371 -0.3545  0.0734 -0.2592
   13MOL   O63912183   3.156   1.952   3.436 -0.2462 -0.6352  0.4094
   13MOL   C64012184   3.278   2.162   3.423  0.1063 -0.2769  1.2718
   13MOL   C64112185   3.214   2.288   3.490 -0.6171  0.1617 -0.0542
   13MOL   C64212186   3.163   2.249   3.637  0.2148 -0.4052 -0.0110
   13MOL   C64312187   3.066   2.348   3.702 -0.3663 -0.4514 -0.3670
   13MOL   C64412188   2.977   2.284   3.809 -0.3561 -0.1167  0.0236
   13MOL   O64512189   2.858   2.249   3.796  0.4307 -0.5995  0.0866
   13MOL   H64612190   3.619   1.188   2.981  1.2726 -0.5677 -0.2050
   13MOL   H64712191   3.634   1.220   2.807 -0.2245 -1.5120 -0.0490
   13MOL   H64812192   3.608   1.429   2.950  0.1700  0.3413 -0.2912
   13MOL   H64912193   3.462   1.362   3.021 -0.7425  0.0844 -0.6332
   13MOL   H65012194   3.483   1.433   2.715  2.2943  3.7044  0.7783
   13MOL   H65112195   3.346   1.382   2.803  0.2647 -1.2348  0.7716
   13MOL   H65212196   3.488   1.647   2.871 -0.2894  0.1469 -0.6767
   13MOL   H65312197   3.350   1.578   2.949  0.6300  0.8092  0.3606
   13MOL   H65412198   3.241   1.576   2.709 -0.8504  0.7749  0.0842
   13MOL   H65512199   3.365   1.704   2.680 -1.1111  0.0479 -0.2468
   13MOL   H65612200   3.215   1.834   2.747  0.9402  1.6680  1.5875
   13MOL   H65712201   3.301   1.806   2.899 -2.4325  0.3556  1.3327
   13MOL   H65812202   3.132   1.631   2.968 -0.6833  0.4520 -0.1016
   13MOL   H65912203   3.047   1.674   2.828  2.2424 -0.3090 -1.9562
   13MOL   H66012204   2.944   1.783   3.022  0.7833 -0.8200  1.5785
   13MOL   H66112205   3.021   1.902   2.911  0.6913  0.4835 -0.4126
   13MOL   H66212206   3.116   1.801   3.196 -1.4080  0.8918  0.0335
   13MOL   H66312207   3.208   1.905   3.095  0.0730 -0.2884  0.0509
   13MOL   H66412208   2.974   1.943   3.242 -1.4952 -1.1275 -1.9407
   13MOL   H66512209   2.990   2.058   3.105  0.6945  1.1792  0.4021
   13MOL   H66612210   3.351   2.116   3.490  2.2700  1.9969  0.5411
   13MOL   H66712211   3.330   2.195   3.333 -0.2968 -1.5381  0.5752
   13MOL   H66812212   3.127   2.324   3.436  0.1549 -0.7959 -1.9763
   13MOL   H66912213   3.292   2.364   3.499 -1.8888  1.3551  1.2605
   13MOL   H67012214   3.247   2.237   3.704  1.1597 -0.5155 -1.1983
   13MOL   H67112215   3.102   2.159   3.625 -0.0102 -0.5191  1.8422
   13MOL   H67212216   2.984   2.362   3.631 -0.8084  1.0172  0.4079
   13MOL   H67312217   3.101   2.448   3.728  2.1243 -2.0458  2.7302
   13MOL   O67412218   3.050   2.259   3.919 -0.3572  0.5595  0.5119
   13MOL   C67512219   2.979   2.186   4.029 -0.0187 -0.2328 -0.3784
   13MOL   C67612220   3.084   2.130   4.136 -0.2405 -0.1466  0.2041
   13MOL   C67712221   3.032   2.052   4.260  0.2251 -0.4314  0.7345
   13MOL   C67812222   3.151   1.992   4.346 -0.3980  0.0343  0.3706
   13MOL   C67912223   3.110   1.887   4.454 -0.0575 -0.0554 -0.5843
   13MOL   C68012224   3.231   1.844   4.538 -0.3040 -0.3785  0.2112
   13MOL   C68112225   3.254   1.939   4.654 -0.5546  0.4802  0.4663
   13MOL   C68212226   3.370   1.899   4.741  0.2963  0.3006 -0.2879
   13MOL   C68312227   3.419   2.008   4.827 -0.3059  0.0440 -0.3791
   13MOL   C68412228   3.511   1.971   4.939  0.2135  0.7447  0.2976
   13MOL   O68512229   3.471   1.868   5.022  0.2181 -0.3829 -0.8763
   13MOL   C68612230   3.560   1.799   5.079  0.4821 -0.3373 -0.3597
   13MOL   O68712231   3.681   1.805   5.054  0.1101  0.2944 -0.5720
   13MOL   C68812232   3.502   1.694   5.177 -0.1468  0.1249  0.1268
   13MOL   C68912233   3.534   1.549   5.142 -0.3065 -0.2509  0.6212
   13MOL   C69012234   3.459   1.487   5.021  0.0073 -1.0632  0.1671
   13MOL   C69112235   3.313   1.513   5.023 -0.0013 -0.2452  0.3345
   13MOL   C69212236   3.232   1.413   5.117  0.1686  0.2618  0.0389
   13MOL   O69312237   3.169   1.316   5.076  0.1360  0.3753 -0.3711
   13MOL   H69412238   2.917   2.259   4.081  1.1980  1.3428 -1.0951
   13MOL   H69512239   2.919   2.110   3.979  0.8064 -0.0964 -1.5935
   13MOL   H69612240   3.155   2.207   4.165 -0.5276 -0.0954  0.7709
   13MOL   H69712241   3.137   2.056   4.076 -1.6987 -0.2195 -0.9906
   13MOL   H69812242   2.968   2.107   4.330  1.1240 -0.3031  1.4573
   13MOL   H69912243   2.990   1.960   4.217 -1.0156 -0.2803  1.5870
   13MOL   H70012244   3.185   2.084   4.393 -0.1321  0.1058  0.0392
   13MOL   H70112245   3.227   1.966   4.273 -1.9084 -0.8254 -0.9439
   13MOL   H70212246   3.085   1.794   4.403 -1.9262 -0.3641  0.8023
   13MOL   H70312247   3.027   1.911   4.521  0.2120 -2.3063  0.6038
   13MOL   H70412248   3.313   1.823   4.469 -0.8239  1.6566 -1.0812
   13MOL   H70512249   3.205   1.751   4.589 -1.0024  0.6847  1.8173
   13MOL   H70612250   3.164   1.951   4.714  0.3810  2.3971  1.5455
   13MOL   H70712251   3.276   2.037   4.610  2.1377  0.5935  1.9332
   13MOL   H70812252   3.456   1.862   4.685 -0.3047 -0.5845 -0.6445
   13MOL   H70912253   3.338   1.811   4.797 -1.0386  0.9893  0.0580
   13MOL   H71012254   3.469   2.086   4.770  1.0572 -0.4816  0.0698
   13MOL   H71112255   3.335   2.056   4.877 -0.4925 -1.1491  0.4984
   13MOL   H71212256   3.515   2.061   5.001  0.2658  0.8145  0.1940
   13MOL   H71312257   3.613   1.957   4.903  0.6223 -0.4777  1.9259
   13MOL   H71412258   3.537   1.736   5.271 -0.2023 -2.2012  1.2165
   13MOL   H71512259   3.395   1.717   5.185 -0.4282 -0.9383 -0.4836
   13MOL   H71612260   3.503   1.486   5.225  2.1317 -0.3614  1.4640
   13MOL   H71712261   3.641   1.534   5.131 -0.2472  1.0118 -0.7248
   13MOL   H71812262   3.474   1.379   5.020 -1.7794 -1.3234  0.5904
   13MOL   H71912263   3.502   1.529   4.930 -2.3188  0.0531 -0.4380
   13MOL   H72012264   3.275   1.492   4.923 -0.1145  1.1815  0.0775
   13MOL   H72112265   3.295   1.620   5.031  0.1185 -0.3641  2.5362
   13MOL   O72212266   3.246   1.450   5.244 -0.2998  0.3950 -0.4731
   13MOL   C72312267   3.157   1.399   5.340 -0.0013 -0.5264  0.2369
   13MOL   C72412268   3.042   1.493   5.388  0.1827 -0.2470 -0.0873
   13MOL   C72512269   3.099   1.630   5.423  0.5413  0.0711  0.6488
   13MOL   C72612270   3.188   1.636   5.544 -0.4045 -0.1402 -0.8656
   13MOL   C72712271   3.306   1.740   5.542 -0.3448  0.4815  0.0324
   13MOL   C72812272   3.385   1.749   5.674  0.4994  0.4900 -0.0726
   13MOL   C72912273   3.472   1.628   5.728 -0.7068 -0.7255  0.1223
   13MOL   C73012274   3.508   1.658   5.868  0.8021 -0.2790  0.8205
   13MOL   C73112275   3.563   1.533   5.945  0.4771 -0.6055  0.1575
   13MOL   C73212276   3.621   1.558   6.088 -0.2149  0.7349 -0.0544
   13MOL   O73312277   3.730   1.653   6.083  0.0795  0.7131 -0.0260
   13MOL   C73412278   3.776   1.704   6.196 -0.9082 -0.9377 -0.4444
   13MOL   O73512279   3.731   1.682   6.305 -0.0805  0.2243  0.1658
   13MOL   C73612280   3.901   1.795   6.169  0.6101  1.2611 -0.1746
   13MOL   C73712281   3.855   1.923   6.092 -0.5552 -0.1460  0.1488
   13MOL   C73812282   3.962   2.029   6.062  0.0967  0.0210  0.3610
   13MOL   C73912283   4.025   2.088   6.189  0.2515 -0.1386 -0.1602
   13MOL   C74012284   3.930   2.146   6.290  0.0545  0.7681  0.2397
   13MOL   O74112285   3.889   2.261   6.283  0.0164  0.4824 -0.0670
   13MOL   H74212286   3.119   1.299   5.323 -1.8968  0.0446  0.9005
   13MOL   H74312287   3.228   1.383   5.421  0.1095 -1.8054 -0.1072
   13MOL   H74412288   3.001   1.443   5.475  0.1061 -3.6336 -1.9495
   13MOL   H74512289   2.966   1.498   5.310 -1.0833  0.7038  1.1916
   13MOL   H74612290   3.159   1.675   5.345  1.0485 -1.6868 -0.0057
   13MOL   H74712291   3.018   1.699   5.448  0.1185 -0.0664 -0.3308
   13MOL   H74812292   3.219   1.538   5.581  0.3430 -0.8719 -3.3571
   13MOL   H74912293   3.122   1.670   5.624  0.7082 -1.1112  0.4954
   13MOL   H75012294   3.258   1.836   5.521 -1.6737  0.4903  2.8670
   13MOL   H75112295   3.386   1.715   5.473  0.1680 -1.4277  1.2765
   13MOL   H75212296   3.302   1.766   5.743 -0.5721  1.1238 -1.4784
   13MOL   H75312297   3.445   1.839   5.683  1.4439 -0.0986 -0.4309
   13MOL   H75412298   3.557   1.601   5.665  0.3051  0.0561  1.1338
   13MOL   H75512299   3.413   1.537   5.730 -0.4165 -0.9057  0.5921
   13MOL   H75612300   3.423   1.697   5.924 -0.0731 -0.8907 -0.0770
   13MOL   H75712301   3.582   1.738   5.865 -2.2645  2.6444  0.3983
   13MOL   H75812302   3.490   1.452   5.952  0.8578 -0.9721 -0.1060
   13MOL   H75912303   3.643   1.487   5.887  1.6596  0.9754  0.4967
   13MOL   H76012304   3.662   1.467   6.130 -2.0374 -0.5413 -0.9913
   13MOL   H76112305   3.548   1.606   6.153 -0.4026 -0.1607  0.4001
   13MOL   H76212306   3.947   1.820   6.264 -0.0020 -0.4423  0.5827
   13MOL   H76312307   3.983   1.749   6.114 -1.2952  0.1826 -2.1848
   13MOL   H76412308   3.767   1.973   6.133 -0.4815  0.0362  0.0850
   13MOL   H76512309   3.814   1.891   5.996 -0.0389  0.5335 -0.3032
   13MOL   H76612310   3.918   2.114   6.010 -0.6900  0.2688  1.4117
   13MOL   H76712311   4.034   1.975   6.001  0.2830  1.1512 -0.4400
   13MOL   H76812312   4.085   2.171   6.151  1.6320  1.5724  5.3096
   13MOL   H76912313   4.088   2.013   6.235 -1.0049 -0.8414  0.4414
   13MOL   O77012314   3.886   2.048   6.376 -0.2750  0.2998  1.2271
   13MOL   C77112315   3.779   2.086   6.464 -0.1205 -0.8666  0.2592
   13MOL   C77212316   3.757   1.973   6.556 -0.0190 -0.2660 -0.4661
   13MOL   C77312317   3.632   1.998   6.645 -0.1042  0.6681 -0.4657
   13MOL   C77412318   3.605   1.860   6.712  0.2615  0.5466 -0.4880
   13MOL   C77512319   3.477   1.864   6.801  0.7613  0.2898 -0.3581
   13MOL   C77612320   3.506   1.932   6.941 -0.8886 -0.8456 -0.1396
   13MOL   C77712321   3.386   1.934   7.042  0.0009  0.0952  0.0417
   13MOL   C77812322   3.427   1.967   7.188 -0.3705 -0.4184 -0.0474
   13MOL   C77912323   3.324   1.927   7.303 -0.2460  0.2618  0.2971
   13MOL   C78012324   3.203   2.016   7.308 -0.0630 -0.0718 -0.4509
   13MOL   O78112325   3.248   2.132   7.383 -0.0362  0.2346  0.0031
   13MOL   C78212326   3.153   2.213   7.430 -0.3850  0.0178 -0.1875
   13MOL   O78312327   3.039   2.201   7.413  0.3133  0.1569  0.8380
   13MOL   C78412328   3.211   2.331   7.507  0.3586 -1.1361  0.2745
   13MOL   C78512329   3.207   2.452   7.408 -0.2756  0.6001 -0.1229
   13MOL   C78612330   3.305   2.438   7.287 -0.2006 -0.3346  0.2656
   13MOL   C78712331   3.444   2.488   7.317  0.3186  0.4234  0.7681
   13MOL   C78812332   3.522   2.543   7.197 -0.7670 -0.5807  0.3390
   13MOL   O78912333   3.471   2.545   7.084 -0.3302  0.4250  0.4877
   13MOL   H79012334   3.803   2.172   6.526 -0.8747 -1.0308  0.7819
   13MOL   H79112335   3.690   2.120   6.412 -0.3869 -0.5004  0.9458
   13MOL   H79212336   3.849   1.955   6.612  0.9884  0.2279 -1.9413
   13MOL   H79312337   3.742   1.891   6.485 -1.6702 -1.7403  1.5177
   13MOL   H79412338   3.656   2.076   6.717 -0.4037  1.0083 -0.7348
   13MOL   H79512339   3.555   2.025   6.573 -1.1714  0.7103  0.6667
   13MOL   H79612340   3.696   1.820   6.757  1.1606  1.7736 -1.1835
   13MOL   H79712341   3.575   1.790   6.634  1.1690 -2.1976  1.5268
   13MOL   H79812342   3.441   1.761   6.806  1.9524 -0.0521  1.8458
   13MOL   H79912343   3.406   1.929   6.749 -1.5326 -2.6289 -0.9836
   13MOL   H80012344   3.550   2.031   6.927  0.9316 -1.5105  0.6575
   13MOL   H80112345   3.586   1.874   6.987 -0.2537 -0.2253 -0.4529
   13MOL   H80212346   3.354   1.831   7.036  0.0890  0.0632  0.1091
   13MOL   H80312347   3.306   1.997   7.004  0.8628  0.5430 -1.0748
   13MOL   H80412348   3.449   2.074   7.199 -3.1060  0.1096  0.7339
   13MOL   H80512349   3.519   1.916   7.212 -0.8558 -1.3770 -0.2118
   13MOL   H80612350   3.296   1.827   7.267 -0.3735 -0.1424  1.4968
   13MOL   H80712351   3.371   1.931   7.401  0.2775  1.4161  0.0071
   13MOL   H80812352   3.117   1.972   7.360  0.9724 -1.5452  0.0442
   13MOL   H80912353   3.172   2.045   7.208 -2.0961  0.6637  0.3392
   13MOL   H81012354   3.145   2.342   7.593  0.6053 -0.2288  0.3571
   13MOL   H81112355   3.316   2.316   7.535  1.1015  0.8182 -1.2870
   13MOL   H81212356   3.222   2.541   7.470  1.2589 -0.7654  1.5092
   13MOL   H81312357   3.101   2.469   7.387 -0.5816 -1.6730 -0.5244
   13MOL   H81412358   3.261   2.506   7.214  0.5115 -1.7723 -1.5701
   13MOL   H81512359   3.293   2.344   7.232 -0.6785  0.9509 -1.8894
   13MOL   H81612360   3.498   2.408   7.369 -1.8730 -0.4760  1.7022
   13MOL   H81712361   3.439   2.571   7.387  0.0908  1.2537 -0.2103
   13MOL   O81812362   3.642   2.607   7.227  0.0135 -0.3286 -0.0062
   13MOL   C81912363   3.719   2.680   7.135  0.4328 -0.2509  0.4849
   13MOL   C82012364   3.868   2.649   7.160  0.5884  0.2929 -0.6834
   13MOL   C82112365   3.900   2.500   7.171  0.1431  0.4748  0.5426
   13MOL   C82212366   4.051   2.468   7.175 -0.1977  0.0624  0.1558
   13MOL   C82312367   4.081   2.320   7.147 -0.4306 -0.0321 -0.1303
   13MOL   C82412368   4.233   2.294   7.099 -0.3816 -0.6300 -0.1393
   13MOL   C82512369   4.264   2.144   7.056 -0.4933  0.9490  0.4955
   13MOL   C82612370   4.402   2.129   7.004  0.1860 -0.0321 -0.1905
   13MOL   C82712371   4.430   1.984   6.951  0.5497 -0.4827  0.4144
   13MOL   C82812372   4.577   1.957   6.907  0.2473  0.2557  0.2994
   13MOL   O82912373   4.592   1.847   6.828 -0.5997  0.0800  0.6060
   13MOL   C83012374   4.714   1.798   6.810 -0.3265  0.3954  0.2454
   13MOL   O83112375   4.824   1.838   6.857 -0.0768 -0.0801 -0.0259
   13MOL   C83212376   4.702   1.681   6.716  0.1767 -0.3880  0.5352
   13MOL   C83312377   4.822   1.598   6.689 -0.7022  0.8038 -0.2610
   13MOL   C83412378   4.826   1.468   6.770 -0.6424 -0.1195 -0.4560
   13MOL   C83512379   4.965   1.392   6.736  0.0690 -0.8689  0.2856
   13MOL   C83612380   4.985   1.285   6.836  0.6259  0.1997  0.0578
   13MOL   O83712381   5.097   1.260   6.879  0.2311  0.1123 -0.1230
   13MOL   H83812382   3.695   2.634   7.039  0.4989 -1.0555  0.8457
   13MOL   H83912383   3.688   2.783   7.124  0.7845 -0.4070 -2.4658
   13MOL   H84012384   3.906   2.684   7.256 -0.0331 -0.8013 -0.0235
   13MOL   H84112385   3.930   2.694   7.083 -0.4993 -1.3243 -2.5582
   13MOL   H84212386   3.850   2.453   7.255  0.8853 -1.0342  0.1572
   13MOL   H84312387   3.857   2.457   7.080  2.3648  0.2127 -0.4453
   13MOL   H84412388   4.092   2.487   7.274  0.0713  0.3054 -0.0002
   13MOL   H84512389   4.101   2.521   7.094 -1.4298 -0.0835 -0.7151
   13MOL   H84612390   4.013   2.312   7.062  0.2097  2.3322 -0.9124
   13MOL   H84712391   4.052   2.262   7.234  0.8675 -1.1378 -0.4226
   13MOL   H84812392   4.308   2.322   7.173  0.6395 -2.2438 -0.5379
   13MOL   H84912393   4.259   2.365   7.020 -0.0014 -0.8639 -0.2254
   13MOL   H85012394   4.194   2.121   6.976  1.2041  1.4286 -1.1659
   13MOL   H85112395   4.247   2.066   7.130 -0.9607  0.0752 -0.5106
   13MOL   H85212396   4.472   2.142   7.087 -1.1706 -3.5457  1.5988
   13MOL   H85312397   4.416   2.203   6.926 -2.3523 -1.2572 -1.8658
   13MOL   H85412398   4.394   1.904   7.015  1.4802 -0.2737  1.2070
   13MOL   H85512399   4.376   1.971   6.857 -1.1531 -1.0335  1.4678
   13MOL   H85612400   4.638   1.948   6.997  1.0599 -0.1652 -0.2912
   13MOL   H85712401   4.614   2.040   6.847  1.9598 -1.5295 -1.2040
   13MOL   H85812402   4.624   1.609   6.741  0.2079 -1.0730 -1.2197
   13MOL   H85912403   4.665   1.722   6.622 -1.7818  1.7285  2.1766
   13MOL   H86012404   4.913   1.651   6.719  0.3706 -1.9390  1.5338
   13MOL   H86112405   4.825   1.570   6.583  0.7601  0.6937 -0.2104
   13MOL   H86212406   4.740   1.406   6.745 -0.7425  0.0419 -0.5133
   13MOL   H86312407   4.822   1.490   6.876  0.1732  1.0513 -0.6504
   13MOL   H86412408   5.051   1.457   6.752 -0.4918  0.3841 -1.7262
   13MOL   H86512409   4.969   1.345   6.638 -0.6310 -0.7167  0.1856
   13MOL   O86612410   4.868   1.222   6.866  0.0244  0.0228  0.5349
   13MOL   C86712411   4.876   1.112   6.970 -0.4178 -0.3392  0.0200
   13MOL   C86812412   4.846   1.157   7.113 -0.2494 -0.3437 -0.1063
   13MOL   C86912413   4.819   1.032   7.202 -0.0824  0.3023  0.3741
   13MOL   C87012414   4.746   1.061   7.332 -0.1514  1.0372  0.5856
   13MOL   C87112415   4.818   1.162   7.416 -0.5344  0.0550 -0.5387
   13MOL   C87212416   4.959   1.123   7.455 -0.5974  0.3348  0.2127
   13MOL   C87312417   4.994   1.124   7.605 -0.1343  0.4391  0.6709
   13MOL   C87412418   5.143   1.129   7.640  0.0031 -0.1136 -0.0816
   13MOL   C87512419   5.166   1.102   0.024  0.7905  0.2479  0.0335
   13MOL   C87612420   5.313   1.096   0.081 -0.1201  0.1044 -0.4532
   13MOL   O87712421   5.301   1.061   0.220 -0.3710 -0.0046 -0.0359
   13MOL   C87812422   5.318   0.926   0.255 -0.3122 -0.5796 -0.7133
   13MOL   O87912423   5.368   0.844   0.180 -0.1994  0.1794  0.2651
   13MOL   C88012424   5.257   0.900   0.390 -0.3472 -0.3961 -0.4103
   13MOL   C88112425   5.317   0.941   0.520 -0.2515 -1.0436 -0.2012
   13MOL   C88212426   5.231   0.897   0.646 -0.8060 -0.1845  0.2129
   13MOL   C88312427   5.319   0.923   0.771 -0.2713 -0.2332  0.6845
   13MOL   C88412428   5.443   0.841   0.801 -0.2255 -0.2445  0.3884
   13MOL   O88512429   5.441   0.721   0.777  0.3912 -0.1913 -0.1522
   13MOL   H88612430   4.802   1.043   6.929  0.7829 -1.4016 -0.3920
   13MOL   H88712431   4.972   1.061   6.963  1.1150  2.5512 -0.7336
   13MOL   H88812432   4.763   1.228   7.115  0.7542  0.8242  0.2116
   13MOL   H88912433   4.935   1.204   7.155 -1.5207  1.3804  0.7307
   13MOL   H89012434   4.778   0.945   7.151 -0.0198 -0.6353  1.8919
   13MOL   H89112435   4.917   0.987   7.220  0.5382  1.5422  0.1513
   13MOL   H89212436   4.738   0.961   7.376  3.3132  1.3118  2.0139
   13MOL   H89312437   4.640   1.083   7.322  0.2757  1.7117 -3.2416
   13MOL   H89412438   4.770   1.177   7.512  0.7520  0.4090  0.0604
   13MOL   H89512439   4.813   1.260   7.368  1.5425  0.5951  0.2471
   13MOL   H89612440   5.027   1.182   7.393 -1.4679  1.0478 -0.0724
   13MOL   H89712441   4.972   1.017   7.429  0.5082  0.7257 -0.9097
   13MOL   H89812442   4.936   1.040   7.645  3.4057 -3.6331 -2.3016
   13MOL   H89912443   4.947   1.211   7.650 -1.7030 -0.4881  0.8872
   13MOL   H90012444   5.190   1.221   7.607  1.5788 -0.6428  0.6742
   13MOL   H90112445   5.188   1.050   7.580 -1.3951 -1.5737  0.7215
   13MOL   H90212446   5.111   1.184   0.071 -1.0530 -0.0511 -1.5717
   13MOL   H90312447   5.117   1.007   0.043 -0.5326  0.9663  0.3303
   13MOL   H90412448   5.350   1.196   0.059  1.7689 -0.7465 -1.1530
   13MOL   H90512449   5.380   1.035   0.020  0.7711  0.5581  0.0653
   13MOL   H90612450   5.163   0.955   0.390  0.0893  0.3617 -2.1812
   13MOL   H90712451   5.226   0.795   0.386 -1.0123 -0.1303 -3.8813
   13MOL   H90812452   5.349   1.046   0.518 -0.5574 -0.9553 -0.8471
   13MOL   H90912453   5.415   0.894   0.525  1.0808  1.8340  2.0760
   13MOL   H91012454   5.197   0.794   0.632  0.8788 -0.7097 -0.1694
   13MOL   H91112455   5.147   0.965   0.657 -2.1325 -1.9003  0.8915
   13MOL   H91212456   5.259   0.928   0.862  2.2054  2.1174  2.3006
   13MOL   H91312457   5.360   1.023   0.756  0.1484 -0.3064  1.3015
   13MOL   O91412458   5.535   0.904   0.867 -0.4441  0.2769  0.5626
   13MOL   C91512459   5.649   0.830   0.910  1.0154  0.3862  0.8170
   13MOL   C91612460   5.704   0.876   1.046  0.3690  0.5084 -0.0785
   13MOL   C91712461   5.832   0.798   1.074  0.4771 -0.0123 -0.8143
   13MOL   C91812462   5.895   0.835   1.212  0.4039  0.8455 -0.0712
   13MOL   C91912463   5.842   0.759   1.331  0.2328  0.0640 -0.1065
   13MOL   C92012464   5.887   0.826   1.466  0.6253 -0.4517  0.4230
   13MOL   C92112465   5.829   0.763   1.593  0.4620 -0.8384 -0.0474
   13MOL   C92212466   5.887   0.810   1.730  0.1103  0.6419  0.2180
   13MOL   C92312467   5.798   0.774   1.850  0.0933  0.6563  0.4682
   13MOL   C92412468   5.867   0.791   1.993  0.3909 -0.1661  0.4301
   13MOL   O92512469   5.860   0.929   2.025  0.2190 -0.0456  0.4562
   13MOL   C92612470   5.805   0.962   2.147  0.7791 -0.5705  0.0787
   13MOL   O92712471   5.734   0.901   2.227  0.0751 -0.4539 -0.0642
   13MOL   C92812472   5.847   1.098   2.191 -0.2150  0.1860 -0.2317
   13MOL   C92912473   5.754   1.198   2.121 -0.4858 -0.0049  0.6288
   13MOL   C93012474   5.812   1.258   1.988  1.0261 -0.4859 -0.8089
   13MOL   C93112475   5.743   1.387   1.950 -0.0773 -0.2222  0.4712
   13MOL   C93212476   5.788   1.445   1.815 -0.1744 -0.5586  0.2126
   13MOL   O93312477   5.835   1.379   1.731 -0.2469  0.2794  0.3511
   13MOL   H93412478   5.616   0.727   0.925 -2.0783  1.4282  1.4544
   13MOL   H93512479   5.724   0.831   0.831 -0.5985 -1.3680 -0.7826
   13MOL   H93612480   5.622   0.867   1.117 -0.3318  1.5907 -0.7207
   13MOL   H93712481   5.725   0.982   1.031 -0.8976  0.6771 -0.6940
   13MOL   H93812482   5.803   0.693   1.081  1.8112 -0.3522 -0.2823
   13MOL   H93912483   5.907   0.792   0.995  1.3225  1.8307 -0.1710
   13MOL   H94012484   5.879   0.942   1.227  1.1427  1.6426 -4.3839
   13MOL   H94112485   6.001   0.812   1.201 -0.2806 -2.3643 -0.3189
   13MOL   H94212486   5.880   0.656   1.329 -1.2762 -0.4800 -1.5187
   13MOL   H94312487   5.734   0.745   1.326 -0.0021  2.1884 -1.7350
   13MOL   H94412488   5.857   0.930   1.472 -0.4740 -0.8034  1.1627
   13MOL   H94512489   5.996   0.827   1.460  0.6826 -0.2149  1.3663
   13MOL   H94612490   5.831   0.654   1.584 -2.2041 -1.0371  1.2155
   13MOL   H94712491   5.722   0.785   1.590  0.5664 -0.1794  0.7247
   13MOL   H94812492   5.903   0.917   1.731  0.4639  0.6063 -0.9747
   13MOL   H94912493   5.986   0.770   1.750 -0.3826 -0.9885 -0.4762
   13MOL   H95012494   5.698   0.816   1.847  0.2522  1.0079  0.0966
   13MOL   H95112495   5.789   0.665   1.843  2.7359  0.5983 -3.4725
   13MOL   H95212496   5.967   0.746   1.999  0.9362  0.5268 -2.4961
   13MOL   H95312497   5.820   0.727   2.067  3.1720 -2.3725  0.3928
   13MOL   H95412498   5.855   1.111   2.299 -2.2175 -1.3479  0.1295
   13MOL   H95512499   5.952   1.116   2.166  0.1957  0.2335  1.4489
   13MOL   H95612500   5.748   1.280   2.192  1.3157 -1.3731  2.4173
   13MOL   H95712501   5.654   1.156   2.107  0.3143 -1.0957 -2.2384
   13MOL   H95812502   5.810   1.186   1.906 -0.9974  1.0366 -2.1396
   13MOL   H95912503   5.915   1.289   2.008  0.9129 -1.0611  0.7296
   13MOL   H96012504   5.756   1.456   2.034 -2.1780  0.4777  0.2774
   13MOL   H96112505   5.634   1.384   1.950 -0.1206  1.0496  0.0410
   13MOL   H96212506   5.759   1.550   1.809 -0.9151 -0.8807 -2.0351
   14MOL     O112507   3.892   1.727   0.551 -0.3202  0.9916 -0.0103
   14MOL     C212508   3.766   1.761   0.481  0.4997 -0.3236 -0.0437
   14MOL     C312509   3.766   1.706   0.340 -0.2969 -0.0801  0.8863
   14MOL     C412510   3.648   1.748   0.255  0.8548  0.0738  0.6095
   14MOL     C512511   3.657   1.681   0.111 -0.5563 -0.0743 -0.1443
   14MOL     C612512   3.618   1.533   0.109 -0.3242  0.2842 -0.1903
   14MOL     C712513   3.682   1.458   7.754 -0.2860  0.2588 -0.4064
   14MOL     C812514   3.685   1.308   0.017  0.1646  0.9906  1.0452
   14MOL     C912515   3.780   1.230   7.687 -0.5034 -0.3953 -0.3048
   14MOL    C1012516   3.785   1.082   7.711  0.0029 -0.2642 -0.4053
   14MOL    C1112517   3.881   1.017   7.615 -0.1376  0.7800  0.6237
   14MOL    O1212518   3.829   1.024   7.479  0.2946  0.0903  0.1725
   14MOL    C1312519   3.915   0.999   7.376  0.1533  0.3734  0.1298
   14MOL    O1412520   4.026   0.950   7.392 -0.5918 -0.3919 -0.0254
   14MOL    C1512521   3.859   1.032   7.236  0.4626  0.3606 -0.2295
   14MOL    C1612522   3.757   1.143   7.230 -0.6943  0.3862  0.7406
   14MOL    C1712523   3.607   1.100   7.259  0.5755  0.0295  0.4242
   14MOL    C1812524   3.513   1.219   7.228 -0.2708 -0.2665  0.9091
   14MOL    C1912525   3.516   1.325   7.333 -0.4427 -0.3118 -0.3793
   14MOL    O2012526   3.542   1.312   7.454 -0.8819  0.3931 -0.6130
   14MOL    H2112527   3.678   1.724   0.535  1.2825 -0.5141  1.1242
   14MOL    H2212528   3.744   1.867   0.486 -1.2261 -0.7254  1.7979
   14MOL    H2312529   3.785   1.599   0.346  2.6403  0.4058  0.6579
   14MOL    H2412530   3.856   1.745   0.294 -0.8940 -1.1103 -1.2149
   14MOL    H2512531   3.557   1.726   0.310 -0.5302 -2.2668 -2.4541
   14MOL    H2612532   3.649   1.856   0.235 -0.1314 -0.2848 -1.5450
   14MOL    H2712533   3.753   1.696   0.061 -0.8088  2.2195  0.0030
   14MOL    H2812534   3.584   1.731   0.047  0.4266  1.4834 -0.0739
   14MOL    H2912535   3.516   1.508   0.136 -0.5795  3.4958  2.2200
   14MOL    H3012536   3.676   1.503   0.197  0.9034  1.9613 -0.4072
   14MOL    H3112537   3.785   1.492   7.747 -0.1511 -0.3035 -1.2402
   14MOL    H3212538   3.624   1.467   7.661 -1.6360 -1.2489  0.2648
   14MOL    H3312539   3.581   1.276   0.011 -0.7711  4.0418  0.2137
   14MOL    H3412540   3.722   1.284   0.117  0.1700 -0.5937  0.6778
   14MOL    H3512541   3.880   1.270   7.699 -1.3697  2.2976 -1.4509
   14MOL    H3612542   3.744   1.243   7.585 -1.4148 -1.6864 -0.1634
   14MOL    H3712543   3.815   1.069   0.051  0.2669  2.3508 -0.1179
   14MOL    H3812544   3.690   1.031   7.697 -1.2388  2.1536 -1.0680
   14MOL    H3912545   3.919   0.918   7.639  0.4724  1.3052  1.8882
   14MOL    H4012546   3.970   1.078   7.601 -0.4570  0.5847 -2.7300
   14MOL    H4112547   3.931   1.053   7.157  0.9073  2.5137  0.7027
   14MOL    H4212548   3.812   0.939   7.206  0.2280  0.4161 -0.0373
   14MOL    H4312549   3.759   1.180   7.127 -0.5076  1.3847  1.0957
   14MOL    H4412550   3.770   1.222   7.304  1.6966 -0.5308  1.3666
   14MOL    H4512551   3.596   1.068   7.363 -2.1169  0.2473  0.2444
   14MOL    H4612552   3.577   1.023   7.189 -0.0935 -1.0755  1.9013
   14MOL    H4712553   3.411   1.178   7.227 -0.3693 -0.0161  0.2437
   14MOL    H4812554   3.526   1.266   7.131  1.1712 -1.5203  0.4810
   14MOL    H4912555   3.895   1.633   0.546  2.1574  1.0210  0.2538
   14MOL    O5012556   3.503   1.449   7.280  0.0157  0.1298 -0.1967
   14MOL    C5112557   3.518   1.565   7.363  0.2033 -0.5264  0.3480
   14MOL    C5212558   3.664   1.605   7.369 -0.2321  0.5528  0.0669
   14MOL    C5312559   3.684   1.726   7.454 -0.0092  0.3478  0.0698
   14MOL    C5412560   3.832   1.766   7.464 -0.4444 -1.2993 -0.2395
   14MOL    C5512561   3.888   1.830   7.342 -0.3522  0.8269 -0.0024
   14MOL    C5612562   4.036   1.872   7.352 -0.4548  0.0071  0.0188
   14MOL    C5712563   4.064   1.976   7.456 -0.2864 -0.2463 -0.1569
   14MOL    C5812564   4.214   2.009   7.476  0.7590 -0.4910 -0.6502
   14MOL    C5912565   4.301   1.897   7.533  0.0209 -0.2258  0.1347
   14MOL    C6012566   4.436   1.944   7.587  0.5138 -0.3114  0.5464
   14MOL    O6112567   4.416   2.002   7.721  0.6351  0.0726 -0.2654
   14MOL    C6212568   4.512   2.068   0.019  0.1295 -0.1649 -0.0654
   14MOL    O6312569   4.618   2.099   7.745 -0.6767 -0.2825  0.0667
   14MOL    C6412570   4.460   2.122   0.155 -0.0063  0.3098 -0.5523
   14MOL    C6512571   4.387   2.253   0.148 -0.5821  0.2941  0.2034
   14MOL    C6612572   4.467   2.373   0.091 -1.1899 -0.1146  0.0086
   14MOL    C6712573   4.612   2.399   0.138  0.3126 -0.0505 -0.0723
   14MOL    C6812574   4.613   2.444   0.283  0.1512  0.1103  0.1870
   14MOL    O6912575   4.639   2.560   0.311  1.0551  0.4324  0.1782
   14MOL    H7012576   3.458   1.642   7.315  0.1287 -1.5961 -1.3314
   14MOL    H7112577   3.477   1.559   7.464  0.0071 -0.0210  0.2997
   14MOL    H7212578   3.697   1.627   7.268 -0.0092  0.9160  0.2198
   14MOL    H7312579   3.713   1.513   7.402 -0.7281  0.2584  0.0049
   14MOL    H7412580   3.626   1.811   7.416 -0.3360 -1.0074 -2.6190
   14MOL    H7512581   3.648   1.702   7.554 -0.2313  0.7350  0.0853
   14MOL    H7612582   3.901   1.695   7.510  2.3096  0.7357 -1.1081
   14MOL    H7712583   3.832   1.845   7.538  1.8009 -2.2944  0.8873
   14MOL    H7812584   3.834   1.915   7.299  1.6248  1.4183 -1.4160
   14MOL    H7912585   3.872   1.759   7.261 -1.7488  0.0417  0.9371
   14MOL    H8012586   4.070   1.902   7.253 -0.4378 -0.0087  0.0209
   14MOL    H8112587   4.093   1.783   7.378  0.9967  0.5519 -1.2152
   14MOL    H8212588   4.023   1.945   7.552  1.3659 -0.7378  0.4205
   14MOL    H8312589   4.012   2.069   7.434 -0.4065  0.0520  1.3443
   14MOL    H8412590   4.232   2.098   7.536 -0.5965 -0.1757 -0.7083
   14MOL    H8512591   4.258   2.046   7.383 -1.4354  1.6032 -0.8857
   14MOL    H8612592   4.249   1.854   7.618 -1.7818  0.2485 -0.7046
   14MOL    H8712593   4.310   1.822   7.454 -0.6603  0.1026 -0.2570
   14MOL    H8812594   4.493   2.005   7.516  0.8921 -0.6489  0.5612
   14MOL    H8912595   4.501   1.857   7.592 -0.2518 -0.9620 -0.5711
   14MOL    H9012596   4.399   2.047   0.205  1.4100 -0.8334 -0.4749
   14MOL    H9112597   4.544   2.130   0.224 -0.7052 -2.4166  0.7019
   14MOL    H9212598   4.336   2.278   0.241  2.9159  1.8878  1.7765
   14MOL    H9312599   4.295   2.239   0.091 -0.9060  0.6796  0.6226
   14MOL    H9412600   4.419   2.470   0.106 -2.2241 -0.4436 -1.0407
   14MOL    H9512601   4.471   2.358   7.747 -0.7559  1.1416 -0.1596
   14MOL    H9612602   4.665   2.467   0.070  0.2413 -2.5427 -2.7071
   14MOL    H9712603   4.660   2.301   0.131  0.4931 -0.0175  0.6645
   14MOL    O9812604   4.567   2.346   0.368  0.2900  0.1689  0.5892
   14MOL    C9912605   4.557   2.378   0.503  0.0454 -0.3424  0.0267
   14MOL   C10012606   4.453   2.288   0.563  0.1509  0.3576  0.3802
   14MOL   C10112607   4.482   2.141   0.568  0.4329  0.1630 -0.1104
   14MOL   C10212608   4.356   2.059   0.593  0.6948  1.1870  0.4980
   14MOL   C10312609   4.389   1.915   0.573  0.3111  0.5050  0.4815
   14MOL   C10412610   4.261   1.827   0.552 -0.0149  0.6325 -0.3870
   14MOL   C10512611   4.289   1.676   0.528  0.1622  0.0652  0.7608
   14MOL   C10612612   4.395   1.643   0.422 -0.3750  0.0429  0.1996
   14MOL   C10712613   4.398   1.495   0.382  0.6606  0.0094  0.0607
   14MOL   C10812614   4.512   1.445   0.301 -0.9047 -0.0537 -0.4722
   14MOL   O10912615   4.619   1.438   0.396 -0.0893 -0.1774  0.1910
   14MOL   C11012616   4.742   1.414   0.352 -0.1261  0.4093  0.0238
   14MOL   O11112617   4.763   1.366   0.242 -0.7799 -0.1414 -0.4160
   14MOL   C11212618   4.850   1.438   0.455  0.1530 -0.0047 -0.5743
   14MOL   C11312619   4.939   1.323   0.510 -0.4816 -0.0580 -0.0901
   14MOL   C11412620   4.888   1.228   0.621 -0.0920 -0.4354  0.2337
   14MOL   C11512621   4.766   1.147   0.582  0.6087 -0.0315 -0.3481
   14MOL   C11612622   4.797   1.048   0.472  0.3222 -0.1859 -0.1955
   14MOL   O11712623   4.876   0.962   0.493  0.3437  0.4538 -0.3209
   14MOL   H11812624   4.649   2.352   0.554 -1.2818 -2.4979  1.4247
   14MOL   H11912625   4.534   2.484   0.510  0.1194 -0.3259  0.0150
   14MOL   H12012626   4.355   2.307   0.520 -0.2882  0.1187  1.2681
   14MOL   H12112627   4.442   2.320   0.667  1.2540  1.3779  0.2005
   14MOL   H12212628   4.522   2.102   0.474 -0.0984 -0.3963 -0.1072
   14MOL   H12312629   4.553   2.107   0.643  0.7974  0.3920 -0.3493
   14MOL   H12412630   4.288   2.090   0.514  0.1788  0.2535  0.5675
   14MOL   H12512631   4.316   2.073   0.694 -0.0080 -0.0834  0.4069
   14MOL   H12612632   4.449   1.883   0.657  0.6415  0.6695  0.3078
   14MOL   H12712633   4.454   1.894   0.488  0.9091  3.1724  0.2219
   14MOL   H12812634   4.205   1.855   0.462 -0.7658  1.9647  0.4762
   14MOL   H12912635   4.194   1.834   0.637 -2.1955 -1.1050 -1.9013
   14MOL   H13012636   4.200   1.620   0.499  0.4155  0.7974 -1.4862
   14MOL   H13112637   4.317   1.631   0.623 -1.4061 -0.7799  0.8372
   14MOL   H13212638   4.490   1.665   0.471  0.3899 -3.2307  0.3094
   14MOL   H13312639   4.372   1.710   0.339 -3.9726 -0.8125  0.4249
   14MOL   H13412640   4.394   1.429   0.469  0.5144 -0.1040 -0.0313
   14MOL   H13512641   4.310   1.470   0.322 -0.4124  1.0565  1.1652
   14MOL   H13612642   4.532   1.525   0.231  1.5244  0.2447  0.5036
   14MOL   H13712643   4.506   1.347   0.254  1.4158  0.2099 -1.4118
   14MOL   H13812644   4.918   1.510   0.410 -0.0457 -0.5782 -1.8168
   14MOL   H13912645   4.799   1.484   0.540  2.3059 -1.2650  1.4744
   14MOL   H14012646   5.028   1.369   0.552 -0.6536 -0.7390  1.0531
   14MOL   H14112647   4.982   1.263   0.430 -0.5184  1.3028 -1.1335
   14MOL   H14212648   4.866   1.293   0.705 -3.0589 -1.1729  0.0869
   14MOL   H14312649   4.968   1.162   0.653  0.2576 -0.5874 -0.9286
   14MOL   H14412650   4.680   1.207   0.552  0.2807 -0.4504 -0.2568
   14MOL   H14512651   4.744   1.098   0.677 -0.0294  0.2789 -0.3366
   14MOL   O14612652   4.738   1.072   0.352 -0.0621  0.0028  0.1309
   14MOL   C14712653   4.768   0.982   0.245 -0.7290  0.2047  0.4003
   14MOL   C14812654   4.678   1.001   0.127 -0.3226  0.2634  0.7386
   14MOL   C14912655   4.536   0.952   0.147  0.3542 -0.2557 -0.1047
   14MOL   C15012656   4.451   0.965   0.027  0.4753 -0.9942 -0.4349
   14MOL   C15112657   4.306   0.925   0.042 -0.3830  0.1337  0.3309
   14MOL   C15212658   4.247   1.015   0.146 -0.1196  0.7250 -0.0587
   14MOL   C15312659   4.095   1.008   0.138  0.2006 -0.1332  0.4302
   14MOL   C15412660   4.024   1.085   0.252 -0.2942  0.3495 -0.1606
   14MOL   C15512661   4.046   1.234   0.252  0.3219  0.6727  0.4816
   14MOL   C15612662   3.945   1.310   0.340 -0.1294 -0.3535  0.4421
   14MOL   O15712663   3.934   1.267   0.477 -0.1991  0.5266 -0.0562
   14MOL   C15812664   3.973   1.344   0.582  0.1173 -0.3874 -0.3413
   14MOL   O15912665   3.988   1.467   0.577  0.0694 -0.1318  0.8040
   14MOL   C16012666   3.965   1.275   0.713  0.4103  0.0374 -0.0897
   14MOL   C16112667   4.097   1.235   0.776  0.2435  0.7602 -1.0287
   14MOL   C16212668   4.201   1.350   0.806 -0.2931 -0.3699  0.1318
   14MOL   C16312669   4.322   1.301   0.891  0.5131 -0.4072 -0.1750
   14MOL   C16412670   4.408   1.218   0.803 -0.9385  0.2817 -0.1610
   14MOL   O16512671   4.492   1.258   0.716  0.2043 -0.4707 -0.1487
   14MOL   H16612672   4.873   1.001   0.219 -0.0100 -2.3830  1.2166
   14MOL   H16712673   4.757   0.878   0.275  1.4411  0.2188  1.3455
   14MOL   H16812674   4.726   0.938   0.052  0.4401  0.5042  1.0184
   14MOL   H16912675   4.680   1.104   0.092  1.9859  0.1897  0.6129
   14MOL   H17012676   4.511   0.863   0.206  0.1024 -1.3798 -1.8684
   14MOL   H17112677   4.490   1.027   0.211 -1.8877 -3.8496  2.7447
   14MOL   H17212678   4.491   0.897   7.717  0.4231 -0.9378 -0.5140
   14MOL   H17312679   4.452   1.065   7.750  1.6227  0.1169  2.1477
   14MOL   H17412680   4.293   0.818   0.059  1.4052  0.1879  2.2950
   14MOL   H17512681   4.257   0.957   7.715  1.0929  1.3774 -0.0281
   14MOL   H17612682   4.280   1.117   0.124 -2.0899  0.8123 -2.9415
   14MOL   H17712683   4.289   0.990   0.244  0.5978 -0.7055 -0.7071
   14MOL   H17812684   4.055   0.907   0.129 -0.4073  0.1894 -0.7350
   14MOL   H17912685   4.066   1.045   0.039  2.2377  0.8619  0.1962
   14MOL   H18012686   4.052   1.045   0.349 -3.2353 -1.0705  0.1495
   14MOL   H18112687   3.921   1.052   0.240  0.8099 -2.8855 -1.1815
   14MOL   H18212688   4.145   1.251   0.293  0.8887 -0.5237 -0.3429
   14MOL   H18312689   4.050   1.258   0.145 -2.8985  0.3610  0.2551
   14MOL   H18412690   3.848   1.295   0.293  0.6643 -0.8824 -1.0775
   14MOL   H18512691   3.964   1.415   0.318  1.3441 -1.0692 -1.9383
   14MOL   H18612692   3.917   1.335   0.791 -0.0403 -0.5591  0.1011
   14MOL   H18712693   3.895   1.191   0.714  1.1267 -0.5539  0.3972
   14MOL   H18812694   4.143   1.152   0.723  0.8647  0.7713 -0.5004
   14MOL   H18912695   4.065   1.178   0.863 -0.1064  1.4467 -0.7054
   14MOL   H19012696   4.150   1.433   0.856 -0.3933 -0.1637 -0.3156
   14MOL   H19112697   4.236   1.393   0.712  0.5885 -1.6952 -0.1552
   14MOL   H19212698   4.297   1.263   0.990  0.5897 -0.3504 -0.1339
   14MOL   H19312699   4.375   1.396   0.898  2.0979 -1.2845 -0.1347
   14MOL   O19412700   4.395   1.088   0.833 -0.0182 -0.2900  0.0102
   14MOL   C19512701   4.464   0.988   0.754  0.1728 -0.2624 -0.3564
   14MOL   C19612702   4.380   0.918   0.645  0.6151 -0.1403 -0.1850
   14MOL   C19712703   4.469   0.826   0.556  0.0226 -0.3985 -0.3348
   14MOL   C19812704   4.400   0.734   0.453  0.1250  0.4273 -0.0426
   14MOL   C19912705   4.484   0.641   0.366  0.3866  0.3674 -0.3796
   14MOL   C20012706   4.393   0.559   0.268 -0.0017 -0.5706 -0.1725
   14MOL   C20112707   4.477   0.484   0.157 -0.4842  1.1262  0.3592
   14MOL   C20212708   4.389   0.397   0.075  0.4685 -0.0450 -0.2563
   14MOL   C20312709   4.459   0.312   7.734  0.7308  0.0793 -0.6035
   14MOL   C20412710   4.367   0.214   7.664  1.3076  0.1097 -0.6713
   14MOL   O20512711   4.259   0.287   7.610 -0.1083  0.3430 -0.3980
   14MOL   C20612712   4.235   0.300   7.477 -0.6135 -0.1232  0.1853
   14MOL   O20712713   4.305   0.254   7.388 -0.8062  0.0183  0.1632
   14MOL   C20812714   4.127   0.402   7.440 -0.0482  0.0778  0.2614
   14MOL   C20912715   4.154   0.536   7.505 -0.2472  0.0744 -0.3583
   14MOL   C21012716   4.042   0.640   7.473 -0.8304  0.4582  0.3856
   14MOL   C21112717   3.909   0.634   7.555  0.3584 -0.5803 -0.1797
   14MOL   C21212718   3.927   0.630   7.703 -0.2903  0.4742 -0.0036
   14MOL   O21312719   3.966   0.724   0.004  0.0545  0.0699  0.0218
   14MOL   H21412720   4.554   1.027   0.707  0.0562 -0.3341 -0.6437
   14MOL   H21512721   4.499   0.910   0.821  0.2382 -0.9124 -1.1327
   14MOL   H21612722   4.329   0.996   0.588  3.1711 -0.2641 -2.7890
   14MOL   H21712723   4.300   0.861   0.692 -1.3970  1.8109 -1.1422
   14MOL   H21812724   4.545   0.889   0.510 -2.4044  3.1617  0.3449
   14MOL   H21912725   4.523   0.766   0.629  0.3080 -0.9908 -1.0322
   14MOL   H22012726   4.329   0.791   0.392 -0.1125 -0.2464 -0.3974
   14MOL   H22112727   4.322   0.673   0.499  1.7018 -1.9264 -0.4145
   14MOL   H22212728   4.542   0.576   0.433 -0.0597 -0.6216 -0.9434
   14MOL   H22312729   4.554   0.709   0.318 -1.5993  2.3933 -0.4821
   14MOL   H22412730   4.314   0.619   0.223  1.8197  2.4254  0.4064
   14MOL   H22512731   4.333   0.484   0.318 -3.9285  1.8986 -0.9583
   14MOL   H22612732   4.546   0.421   0.213 -2.0378 -0.9729 -0.0302
   14MOL   H22712733   4.527   0.553   0.089  0.8225 -2.2238 -2.1970
   14MOL   H22812734   4.327   0.466   0.017  1.0915  1.1554  0.5140
   14MOL   H22912735   4.324   0.332   0.134 -2.2847  1.4839 -1.4792
   14MOL   H23012736   4.511   0.376   7.663 -0.2033  1.7465  0.1804
   14MOL   H23112737   4.541   0.255   0.014  0.1502 -1.4010 -1.3952
   14MOL   H23212738   4.329   0.134   7.728 -0.2813  1.0911 -0.3677
   14MOL   H23312739   4.423   0.170   7.581  0.6589  0.0965 -1.1021
   14MOL   H23412740   4.128   0.423   7.333 -2.8205  1.6698  0.4871
   14MOL   H23512741   4.027   0.358   7.447  0.6318 -1.7489 -1.2609
   14MOL   H23612742   4.247   0.564   7.455 -0.7571 -0.0243 -1.3839
   14MOL   H23712743   4.179   0.531   7.611 -1.3143 -0.9904 -0.1479
   14MOL   H23812744   4.016   0.648   7.368  0.6379  0.5895  0.0117
   14MOL   H23912745   4.083   0.738   7.499 -0.2976 -0.3748  2.8834
   14MOL   H24012746   3.859   0.542   7.525  2.2572 -1.0933 -1.9270
   14MOL   H24112747   3.850   0.724   7.538 -0.0417 -0.1934  2.9074
   14MOL   O24212748   3.897   0.512   7.755  0.0304  0.1995  0.1058
   14MOL   C24312749   3.943   0.480   0.120  0.5212 -1.2403 -0.2888
   14MOL   C24412750   3.841   0.399   0.205  0.3619  0.8245  0.3445
   14MOL   C24512751   3.918   0.330   0.321 -0.4261  0.0491  0.0791
   14MOL   C24612752   3.841   0.238   0.418  0.0246  0.8158  0.6344
   14MOL   C24712753   3.927   0.181   0.527 -0.1737  0.0867 -0.3219
   14MOL   C24812754   3.846   0.094   0.625 -0.7480 -0.6300  0.1116
   14MOL   C24912755   3.926   0.002   0.725 -0.6627  0.6145  0.1333
   14MOL   C25012756   4.021   7.666   0.655 -0.3297  0.2886  0.2511
   14MOL   C25112757   3.953   7.542   0.594  0.1058  1.1441  0.1389
   14MOL   C25212758   4.058   7.437   0.548  0.5636 -0.0389 -0.8489
   14MOL   O25312759   4.165   7.409   0.636  0.0658 -0.2839 -0.0786
   14MOL   C25412760   4.291   7.396   0.596  0.2528  0.4589 -0.2823
   14MOL   O25512761   4.323   7.410   0.475 -0.5463 -0.0885  0.1454
   14MOL   C25612762   4.403   7.377   0.705  0.0332  0.0761  0.7723
   14MOL   C25712763   4.429   7.503   0.798  0.6483 -0.2586 -0.2702
   14MOL   C25812764   4.473   7.465   0.939  0.0699  0.3461 -0.2779
   14MOL   C25912765   4.537   7.573   1.019  0.5108  0.5153 -0.2914
   14MOL   C26012766   4.591   7.515   1.152  0.2114  0.1823 -0.2992
   14MOL   O26112767   4.715   7.493   1.150  0.0076 -0.3640  0.7570
   14MOL   H26212768   4.035   0.422   0.116  0.7953 -0.9562  1.7163
   14MOL   H26312769   3.968   0.569   0.177  0.9958 -2.9703  2.2686
   14MOL   H26412770   3.796   0.327   0.137 -2.1085 -0.5163  3.2936
   14MOL   H26512771   3.767   0.471   0.243 -3.3469 -2.3271 -0.5931
   14MOL   H26612772   3.997   0.271   0.274 -1.0197 -1.3603  0.8334
   14MOL   H26712773   3.983   0.403   0.370  1.9449 -1.7452 -0.2837
   14MOL   H26812774   3.788   0.156   0.370  1.7924  0.0048  0.0298
   14MOL   H26912775   3.762   0.301   0.460 -0.4774  1.3073 -0.9950
   14MOL   H27012776   3.996   0.250   0.576  0.4387 -0.5309 -0.3002
   14MOL   H27112777   3.979   0.116   0.457  0.5449  0.7483 -0.4148
   14MOL   H27212778   3.774   0.037   0.567 -2.5381  0.7346  0.9765
   14MOL   H27312779   3.786   0.165   0.683 -0.0405 -0.0090  0.0919
   14MOL   H27412780   3.861   7.711   0.792  1.5651 -1.3768  0.6791
   14MOL   H27512781   3.998   0.065   0.777 -0.6300 -1.0316  2.1293
   14MOL   H27612782   4.083   7.638   0.740  2.7828  0.8163 -1.7759
   14MOL   H27712783   4.088   7.715   0.585  1.9855 -0.1588  2.0763
   14MOL   H27812784   3.886   7.482   0.656  0.2970  0.8040  0.0189
   14MOL   H27912785   3.888   7.570   0.511  1.2024  0.1984 -1.0651
   14MOL   H28012786   4.102   7.474   0.455  1.9823 -0.3791 -0.3251
   14MOL   H28112787   4.014   7.341   0.518 -0.3570  0.5305 -1.3227
   14MOL   H28212788   4.379   7.295   0.773 -0.5710  0.5703  1.1643
   14MOL   H28312789   4.493   7.349   0.652  0.2385  0.3164  0.9943
   14MOL   H28412790   4.344   7.572   0.796  0.6124 -0.3072 -0.4720
   14MOL   H28512791   4.509   7.563   0.753  0.5793 -0.9472 -1.3377
   14MOL   H28612792   4.524   7.368   0.934  1.0652  0.5596  3.9367
   14MOL   H28712793   4.388   7.432   0.999 -0.2715  1.4784 -0.1276
   14MOL   H28812794   4.471   7.656   1.045  0.3392 -0.3672  2.1846
   14MOL   H28912795   4.614   7.617   0.956 -0.9525 -0.2929 -2.7373
   14MOL   O29012796   4.506   7.502   1.259 -0.1460 -0.2433  0.1016
   14MOL   C29112797   4.553   7.443   1.383  0.3773 -0.3731 -0.2982
   14MOL   C29212798   4.588   7.291   1.376  0.1076  0.2634 -0.0361
   14MOL   C29312799   4.610   7.224   1.509  0.5875 -0.1090 -0.0995
   14MOL   C29412800   4.476   7.181   1.573  0.6295 -0.8566  0.0510
   14MOL   C29512801   4.425   7.044   1.509 -0.1351 -0.2390  0.1959
   14MOL   C29612802   4.331   6.968   1.601 -0.4754  0.3790  0.4696
   14MOL   C29712803   4.287   6.837   1.543  0.2362 -0.0594  0.0461
   14MOL   C29812804   4.237   6.741   1.645 -0.6414 -0.8009  0.6675
   14MOL   C29912805   4.163   6.617   1.600 -0.1809 -0.2861 -0.4622
   14MOL   C30012806   4.127   6.528   1.723 -0.1712  0.2523  0.0134
   14MOL   O30112807   4.234   6.445   1.765 -0.3661  0.4016  0.5341
   14MOL   C30212808   4.208   6.328   1.823  0.2524  0.2714  0.1987
   14MOL   O30312809   4.093   6.273   1.845  0.0411 -0.0750  0.6083
   14MOL   C30412810   4.332   6.257   1.875 -0.6299 -0.1727  0.0298
   14MOL   C30512811   4.454   6.286   1.791  0.3526 -0.1194 -0.0165
   14MOL   C30612812   4.437   6.251   1.643 -0.1499  0.7666 -0.7533
   14MOL   C30712813   4.557   6.292   1.559 -0.0816 -0.3198 -0.6251
   14MOL   C30812814   4.558   6.444   1.519 -0.5076 -0.4781 -0.5224
   14MOL   O30912815   4.495   6.487   1.424  0.3292  0.1840  0.1126
   14MOL   H31012816   4.629   7.510   1.422  0.3117  1.1448 -2.7106
   14MOL   H31112817   4.469   7.443   1.453 -0.8375  0.7925 -1.7312
   14MOL   H31212818   4.682   7.291   1.321 -0.1898  0.6697 -0.5546
   14MOL   H31312819   4.516   7.224   1.327 -1.9693  1.8192  0.8249
   14MOL   H31412820   4.666   7.134   1.482 -2.5763 -2.5281  1.0482
   14MOL   H31512821   4.677   7.280   1.575 -0.9777 -1.0438  2.3543
   14MOL   H31612822   4.401   7.259   1.572  1.3363 -0.1763 -0.4679
   14MOL   H31712823   4.501   7.160   1.677 -0.7509  2.4008  1.0840
   14MOL   H31812824   4.507   6.979   1.478  0.1174  0.0275  0.3020
   14MOL   H31912825   4.366   7.065   1.420 -3.2547 -1.5176  1.8799
   14MOL   H32012826   4.246   7.031   1.628 -1.0358 -0.3549  0.4622
   14MOL   H32112827   4.384   6.959   1.696 -0.8807 -1.0587  0.5800
   14MOL   H32212828   4.368   6.799   1.481  1.4879 -0.9215  2.1823
   14MOL   H32312829   4.209   6.852   1.469 -0.5602 -0.7945  0.7300
   14MOL   H32412830   4.165   6.782   1.717 -1.7523 -2.9432  0.8450
   14MOL   H32512831   4.324   6.708   1.702 -0.7988 -1.4603  0.5307
   14MOL   H32612832   4.082   6.645   1.533  1.0146 -2.2320 -2.8194
   14MOL   H32712833   4.228   6.555   1.539  1.0091  0.7457 -0.2525
   14MOL   H32812834   4.039   6.464   1.714  0.8081 -1.2276  0.6804
   14MOL   H32912835   4.095   6.589   1.807  0.6422  0.0007  0.5166
   14MOL   H33012836   4.353   6.292   1.976  1.6661  0.1404 -0.5387
   14MOL   H33112837   4.311   6.150   1.884 -0.2784 -0.2237  0.2547
   14MOL   H33212838   4.546   6.239   1.825 -0.8741 -0.0476  3.5589
   14MOL   H33312839   4.483   6.391   1.793 -0.2464  0.0294  3.2378
   14MOL   H33412840   4.345   6.293   1.604 -0.3478  1.3147  0.2882
   14MOL   H33512841   4.438   6.143   1.630 -2.0121  0.9748 -2.9975
   14MOL   H33612842   4.550   6.233   1.467  1.3578 -0.3779 -0.7072
   14MOL   H33712843   4.651   6.274   1.610 -1.9828 -2.2871  2.3163
   14MOL   O33812844   4.638   6.516   1.599  0.0583  0.0367 -0.3240
   14MOL   C33912845   4.676   6.648   1.569  0.1807 -1.4909 -0.0588
   14MOL   C34012846   4.787   6.677   1.668 -0.5666 -0.4413 -0.5058
   14MOL   C34112847   4.851   6.822   1.652  0.8587 -0.6372 -0.1688
   14MOL   C34212848   4.747   6.935   1.682 -0.5844 -0.4154 -1.1136
   14MOL   C34312849   4.731   6.965   1.830 -0.5142  0.4403 -0.0351
   14MOL   C34412850   4.860   7.016   1.905 -0.1114 -0.2813  0.2549
   14MOL   C34512851   4.837   7.025   2.053  0.1413 -0.0286 -0.1171
   14MOL   C34612852   4.931   7.120   2.122  0.3457 -1.1802 -0.2643
   14MOL   C34712853   4.907   7.124   2.274 -0.1786  0.0434 -0.0995
   14MOL   C34812854   5.019   7.200   2.357 -0.0582 -0.1837  0.9328
   14MOL   O34912855   4.984   7.185   2.486 -0.5523  0.1515  0.1102
   14MOL   C35012856   4.970   7.299   2.560  0.5214  0.0595  0.3543
   14MOL   O35112857   4.989   7.419   2.525  0.4473  0.0172 -0.7721
   14MOL   C35212858   4.909   7.259   2.695 -0.0261 -0.7579 -0.0221
   14MOL   C35312859   4.753   7.259   2.695  0.1449 -0.3629 -1.2126
   14MOL   C35412860   4.700   7.400   2.736  0.3097 -0.0849  0.7184
   14MOL   C35512861   4.685   7.495   2.618  0.0726 -1.2881 -0.2194
   14MOL   C35612862   4.589   7.615   2.638 -0.3081 -0.1252  0.8765
   14MOL   O35712863   4.517   7.654   2.544  0.6261 -0.3617 -0.0058
   14MOL   H35812864   4.722   6.639   1.471 -2.0961 -0.2735 -1.2876
   14MOL   H35912865   4.593   6.719   1.579  1.9389  0.8133 -1.3259
   14MOL   H36012866   4.870   6.608   1.656  1.0755  1.3620  0.2236
   14MOL   H36112867   4.746   6.661   1.767 -1.6260  1.3180 -0.6375
   14MOL   H36212868   4.943   6.835   1.710  1.3684  0.5369 -1.2263
   14MOL   H36312869   4.883   6.832   1.549 -1.0942 -0.3259 -0.7659
   14MOL   H36412870   4.649   6.916   1.638  0.0579 -1.6914 -2.0175
   14MOL   H36512871   4.773   7.024   1.624 -1.9780  1.0547  0.4802
   14MOL   H36612872   4.687   6.879   1.880  1.6598 -0.4843  0.3684
   14MOL   H36712873   4.650   7.038   1.836  2.3160  3.7389 -0.0517
   14MOL   H36812874   4.894   7.110   1.862 -1.9771 -0.1600 -1.0417
   14MOL   H36912875   4.943   6.946   1.891 -0.4068 -0.4684 -0.6008
   14MOL   H37012876   4.842   6.925   2.097  1.8397  0.6912  1.3757
   14MOL   H37112877   4.739   7.055   2.089  0.8875 -1.2195  3.0377
   14MOL   H37212878   4.906   7.221   2.089 -0.9769 -1.1895  0.6777
   14MOL   H37312879   5.035   7.098   2.097  0.3292  1.1805 -2.5974
   14MOL   H37412880   4.814   7.172   2.302 -0.4603  0.1594 -1.2063
   14MOL   H37512881   4.894   7.023   2.312  0.0457 -0.8375 -2.2705
   14MOL   H37612882   5.009   7.305   2.330 -3.6256 -0.4645  1.0286
   14MOL   H37712883   5.117   7.161   2.329  0.8540  1.0220  2.3854
   14MOL   H37812884   4.933   7.153   2.710 -0.4125 -0.5567  2.1745
   14MOL   H37912885   4.962   7.325   2.762 -1.4281  1.8702 -1.4164
   14MOL   H38012886   4.735   7.194   2.780  2.1060 -0.6058 -0.9438
   14MOL   H38112887   4.705   7.224   2.604 -0.1258 -0.0231 -1.2034
   14MOL   H38212888   4.757   7.447   2.816 -0.4216 -1.0493  1.8160
   14MOL   H38312889   4.607   7.374   2.786 -0.7098  0.0619 -1.0375
   14MOL   H38412890   4.653   7.442   2.528 -0.2121 -0.3878 -0.6506
   14MOL   H38512891   4.784   7.537   2.601 -1.2809  1.9312 -0.4375
   14MOL   O38612892   4.590   7.662   2.759  0.0917  0.0639 -0.4273
   14MOL   C38712893   4.516   0.010   2.791  0.8755  0.7374 -0.1867
   14MOL   C38812894   4.535   0.039   2.934  0.7697  0.1161  0.5839
   14MOL   C38912895   4.480   0.173   2.989  0.6463  0.6929 -0.1029
   14MOL   C39012896   4.506   0.194   3.145  0.6373 -0.5111 -0.7574
   14MOL   C39112897   4.648   0.221   3.197  1.1012  0.1875 -0.1666
   14MOL   C39212898   4.712   0.353   3.149 -0.3241 -0.4452  0.4385
   14MOL   C39312899   4.848   0.382   3.222  0.1514 -0.2838 -0.3836
   14MOL   C39412900   4.964   0.281   3.191  0.1834  0.1190  0.4081
   14MOL   C39512901   5.097   0.329   3.245 -0.7497  0.0417 -0.0670
   14MOL   C39612902   5.199   0.218   3.224  0.5111  0.6679 -0.3415
   14MOL   O39712903   5.314   0.245   3.296  0.1381  0.2059  0.5991
   14MOL   C39812904   5.367   0.152   3.381 -0.1022  0.0282  0.1826
   14MOL   O39912905   5.320   0.043   3.410 -0.4465 -0.3832  0.2786
   14MOL   C40012906   5.506   0.201   3.432 -0.2082 -0.6861 -0.1667
   14MOL   C40112907   5.571   0.090   3.513  0.1033  0.4678 -0.4733
   14MOL   C40212908   5.712   0.134   3.557  0.0855 -0.2665 -0.0542
   14MOL   C40312909   5.793   0.021   3.614 -0.4561  0.4244 -0.4759
   14MOL   C40412910   5.918   0.068   3.687  0.3850  1.0183  1.0124
   14MOL   O40512911   5.977   0.169   3.654  0.3778 -0.3317  0.5863
   14MOL   H40612912   4.568   0.091   2.739  0.8487  1.0655  0.2950
   14MOL   H40712913   4.410   0.007   2.768  0.9213  1.4098 -0.5076
   14MOL   H40812914   4.641   0.045   2.959  0.5072  0.0704  1.7603
   14MOL   H40912915   4.481   7.726   2.989  1.6197 -0.6125  0.4195
   14MOL   H41012916   4.530   0.251   2.931  1.6060  1.0016  1.1257
   14MOL   H41112917   4.374   0.178   2.963  0.5431  0.7578  0.3295
   14MOL   H41212918   4.482   0.101   3.197 -0.2702 -0.3510 -0.8780
   14MOL   H41312919   4.435   0.270   3.179 -0.0691 -1.6128  0.2775
   14MOL   H41412920   4.707   0.136   3.167  0.9048  0.2478 -0.7370
   14MOL   H41512921   4.650   0.230   3.305 -0.1173 -0.6271 -0.0647
   14MOL   H41612922   4.652   0.444   3.160 -0.2296 -0.1206 -1.5058
   14MOL   H41712923   4.725   0.347   3.041 -0.6103 -1.1971  0.4454
   14MOL   H41812924   4.828   0.378   3.330 -3.1777 -2.4894 -1.0054
   14MOL   H41912925   4.878   0.482   3.192 -1.9695  0.3041 -0.6315
   14MOL   H42012926   4.975   0.260   3.085  1.7056 -3.3806  1.1852
   14MOL   H42112927   4.941   0.186   3.239  0.9576 -1.6745 -2.6374
   14MOL   H42212928   5.133   0.421   3.200  1.2218  0.0780  1.5121
   14MOL   H42312929   5.091   0.353   3.351  0.8045  0.0912  0.0331
   14MOL   H42412930   5.224   0.206   3.118  2.2113 -1.1716  0.2361
   14MOL   H42512931   5.151   0.131   3.269  0.9711 -0.5876 -2.2357
   14MOL   H42612932   5.567   0.217   3.344 -1.2933 -0.4555 -0.8888
   14MOL   H42712933   5.486   0.291   3.490  1.8166 -1.5230  1.9172
   14MOL   H42812934   5.578   7.762   3.456 -2.5832 -1.1724  1.7001
   14MOL   H42912935   5.515   0.061   3.602  1.4148 -0.6325  0.0235
   14MOL   H43012936   5.695   0.206   3.637 -0.7746 -0.9191  0.3587
   14MOL   H43112937   5.756   0.192   3.477  0.5036  0.0482  0.4001
   14MOL   H43212938   5.826   7.720   3.533 -0.6169 -0.3547  0.0923
   14MOL   H43312939   5.734   7.734   3.689  0.2594 -0.0672 -0.2497
   14MOL   O43412940   5.956   7.752   3.787 -0.1789  0.8055 -0.1672
   14MOL   C43512941   6.090   7.765   3.853 -0.1114 -0.2627  0.8934
   14MOL   C43612942   6.054   0.076   3.987  0.3717 -0.1084  0.2638
   14MOL   C43712943   6.008   7.751   4.101 -0.2595  0.1404 -0.0574
   14MOL   C43812944   5.966   0.063   4.233 -0.4509  0.1136 -0.0933
   14MOL   C43912945   5.900   7.759   4.354  0.6051  0.0566 -0.2797
   14MOL   C44012946   5.908   0.081   4.479 -0.5766 -0.1671 -1.0707
   14MOL   C44112947   6.045   0.089   4.551 -0.1042 -0.3133 -0.2164
   14MOL   C44212948   6.034   0.166   4.684 -0.9598  0.6971  0.0011
   14MOL   C44312949   6.173   0.192   4.746 -0.1397  0.8524  0.4225
   14MOL   C44412950   6.169   0.262   4.881 -0.1651 -0.5428 -0.1047
   14MOL   O44512951   6.095   0.190   4.976 -0.1231 -0.3667 -0.1540
   14MOL   C44612952   6.038   0.239   5.085  0.1741 -0.3040 -0.0838
   14MOL   O44712953   6.065   0.350   5.127 -0.3013 -0.4820 -0.3429
   14MOL   C44812954   5.958   0.141   5.165  0.5225  0.0818  0.2011
   14MOL   C44912955   6.046   0.018   5.218 -0.7898 -0.1949  0.4674
   14MOL   C45012956   5.961   7.663   5.247 -0.4621 -0.0907 -0.5836
   14MOL   C45112957   6.037   7.533   5.276  0.6458  0.3242  0.3401
   14MOL   C45212958   6.134   7.550   5.394 -1.1301 -0.8834  1.2459
   14MOL   O45312959   6.256   7.519   5.389 -0.0127 -0.1777 -0.2815
   14MOL   H45412960   6.139   7.671   3.878 -1.9543 -1.1423  1.3399
   14MOL   H45512961   6.150   0.060   3.785  0.1201  0.0565  1.3785
   14MOL   H45612962   5.980   0.154   3.968  1.0483  0.7146  0.9842
   14MOL   H45712963   6.142   0.131   4.021  0.9984 -0.6702 -0.4320
   14MOL   H45812964   5.921   7.697   4.063  0.2153 -0.9672  0.4018
   14MOL   H45912965   6.076   7.671   4.129 -1.3499 -0.5379  0.7118
   14MOL   H46012966   5.899   0.144   4.207  0.1492  0.5377 -0.3206
   14MOL   H46112967   6.057   0.107   4.274  0.0195  0.6169 -1.6336
   14MOL   H46212968   5.930   7.654   4.357 -1.0255 -0.3769  3.4302
   14MOL   H46312969   5.795   7.736   4.334  0.9160 -0.2978 -1.5415
   14MOL   H46412970   5.830   0.055   4.551  2.1449 -2.4260  1.1824
   14MOL   H46512971   5.886   0.183   4.447 -0.7202 -0.1710 -0.9840
   14MOL   H46612972   6.117   0.135   4.483 -0.8848  2.0001  0.4786
   14MOL   H46712973   6.086   7.757   4.581 -1.9314 -0.8089  0.7401
   14MOL   H46812974   5.971   0.108   4.752  0.8180 -3.1571 -1.4605
   14MOL   H46912975   5.979   0.260   4.677 -1.0523  0.5428 -1.4775
   14MOL   H47012976   6.221   0.094   4.748 -1.8895 -0.0843 -1.6652
   14MOL   H47112977   6.234   0.255   4.681  0.1037  0.5342  0.3376
   14MOL   H47212978   6.134   0.365   4.871  3.4467  0.9235  1.3731
   14MOL   H47312979   6.273   0.282   4.907 -0.1271  0.2667 -0.8520
   14MOL   H47412980   5.925   0.198   5.252 -0.8736  0.5647 -0.6144
   14MOL   H47512981   5.869   0.098   5.119  0.8688 -1.1568  0.6712
   14MOL   H47612982   6.117   0.033   5.299 -0.8933 -0.3071  0.5775
   14MOL   H47712983   6.112   7.763   5.133 -1.9076  0.4103 -0.5468
   14MOL   H47812984   5.892   7.640   5.165  0.3322  1.3405 -1.6857
   14MOL   H47912985   5.909   7.671   5.342  1.0446 -0.7360  0.3059
   14MOL   H48012986   6.085   7.490   5.188 -1.0782 -2.4673  0.7117
   14MOL   H48112987   5.970   7.451   5.303 -0.5394  1.4441  0.8871
   14MOL   O48212988   6.070   7.609   5.497 -0.0566  0.1177 -0.2348
   14MOL   C48312989   6.137   7.696   5.593  0.2798 -0.0545  0.4940
   14MOL   C48412990   6.032   0.029   5.658  0.0152  0.0913  0.5678
   14MOL   C48512991   5.935   7.738   5.763  0.0062  0.4963  0.1701
   14MOL   C48612992   5.806   7.692   5.690 -0.3289  0.5623 -0.6559
   14MOL   C48712993   5.711   7.633   5.788 -0.5968 -0.2169 -0.4378
   14MOL   C48812994   5.570   7.612   5.728  0.0396 -0.0420 -0.5063
   14MOL   C48912995   5.478   7.546   5.831  0.1147 -0.3378 -0.7202
   14MOL   C49012996   5.337   7.492   5.784  0.4887 -0.1095 -0.2313
   14MOL   C49112997   5.271   7.400   5.885 -0.3639  0.0989  0.2733
   14MOL   C49212998   5.131   7.377   5.857  0.4006 -0.2967 -0.3568
   14MOL   O49312999   5.099   7.247   5.796 -0.3891  0.1332  0.3327
   14MOL   C49413000   5.020   7.154   5.856  1.2647 -0.6028  0.5982
   14MOL   O49513001   4.980   7.162   5.969  0.3085  0.5181 -0.0624
   14MOL   C49613002   4.976   7.039   5.773  0.0390 -0.1101 -0.4044
   14MOL   C49713003   5.082   6.931   5.780 -0.0991  0.4162 -0.3257
   14MOL   C49813004   5.061   6.820   5.679 -0.1109 -0.1065  0.5297
   14MOL   C49913005   5.188   6.743   5.635 -0.5272  0.0355  0.3059
   14MOL   C50013006   5.173   6.609   5.576  0.6168 -0.1558  0.3991
   14MOL   O50113007   5.068   6.553   5.542  0.8054 -0.0906 -0.6446
   14MOL   H50213008   6.173   7.619   5.660  2.0922 -1.0254 -1.5294
   14MOL   H50313009   6.225   7.747   5.554 -0.5340  1.0607  0.0739
   14MOL   H50413010   5.976   0.078   5.579  1.1613  1.1412  0.3853
   14MOL   H50513011   6.078   0.122   5.692  0.0286  0.2375  0.1451
   14MOL   H50613012   5.973   7.647   5.810 -2.6484 -1.1454 -0.7259
   14MOL   H50713013   5.912   0.042   5.844  2.0926  1.5701 -0.1015
   14MOL   H50813014   5.831   7.619   5.614 -1.4802 -2.1498  1.4760
   14MOL   H50913015   5.758   0.014   5.643 -2.6125 -0.2368  0.1079
   14MOL   H51013016   5.713   7.692   5.880  2.0491  1.8019 -1.7402
   14MOL   H51113017   5.746   7.541   5.835 -1.7271  0.2076  1.3067
   14MOL   H51213018   5.577   7.539   5.647 -0.3610 -0.6980  0.0404
   14MOL   H51313019   5.532   7.706   5.689  2.4409  0.6990 -1.1534
   14MOL   H51413020   5.476   7.603   5.924  1.2548 -1.2355 -0.1278
   14MOL   H51513021   5.541   7.462   5.862 -0.1813  0.2020  1.4090
   14MOL   H51613022   5.338   7.447   5.685 -1.6515 -0.3631 -0.1633
   14MOL   H51713023   5.283   7.582   5.756 -1.8681 -1.6357 -0.6744
   14MOL   H51813024   5.336   7.313   5.894  0.2698  0.5649  0.2632
   14MOL   H51913025   5.278   7.439   5.987 -0.5831  1.8101 -0.3578
   14MOL   H52013026   5.100   7.455   5.788 -0.6736  0.5043  1.0074
   14MOL   H52113027   5.064   7.399   5.941  0.5989  0.7392 -0.4701
   14MOL   H52213028   4.878   7.001   5.801  0.2858 -1.6880 -1.6103
   14MOL   H52313029   4.971   7.072   5.669 -0.0275 -2.5597 -1.2097
   14MOL   H52413030   5.090   6.892   5.882  0.3604 -0.4839 -0.7005
   14MOL   H52513031   5.168   6.987   5.743 -0.9307  1.4632 -0.6887
   14MOL   H52613032   5.020   6.875   5.594 -1.9440  0.4534  1.7375
   14MOL   H52713033   4.985   6.746   5.703  1.4229 -1.9061 -0.0512
   14MOL   H52813034   5.263   6.725   5.712 -0.9372  0.5809  0.8404
   14MOL   H52913035   5.238   6.800   5.556 -1.2124  0.4686  0.1851
   14MOL   O53013036   5.294   6.547   5.562  0.0896 -0.1987  0.2497
   14MOL   C53113037   5.301   6.407   5.518  0.4588 -0.0478 -0.1064
   14MOL   C53213038   5.353   6.379   5.378  0.5250 -0.6361 -0.1417
   14MOL   C53313039   5.367   6.232   5.364  0.0517 -0.0287 -0.3169
   14MOL   C53413040   5.377   6.200   5.211 -0.2429 -0.5213  0.0185
   14MOL   C53513041   5.388   6.048   5.188  0.0872  0.5848 -0.0126
   14MOL   C53613042   5.417   6.019   5.035  0.3754 -0.3916 -0.4514
   14MOL   C53713043   5.430   5.862   5.016 -0.3571 -0.1388  0.7295
   14MOL   C53813044   5.458   5.829   4.871  0.1202 -0.3063 -0.0096
   14MOL   C53913045   5.495   5.674   4.848 -0.1227  0.4290  0.1440
   14MOL   C54013046   5.497   5.634   4.699 -0.3024  0.0129 -0.4636
   14MOL   O54113047   5.526   5.492   4.696  0.6453  0.2517 -0.5058
   14MOL   C54213048   5.462   5.404   4.618  0.4306  0.6699 -0.4191
   14MOL   O54313049   5.366   5.432   4.550 -0.3224  0.2961 -0.8587
   14MOL   C54413050   5.533   5.271   4.614  0.6150  0.2195 -0.1906
   14MOL   C54513051   5.642   5.245   4.505 -0.5689  0.6507 -0.5025
   14MOL   C54613052   5.598   5.276   4.367  0.6185  0.6576 -0.5113
   14MOL   C54713053   5.476   5.199   4.316  0.6926  0.6960  0.7056
   14MOL   C54813054   5.511   5.052   4.288 -0.2010 -0.6093 -0.4225
   14MOL   O54913055   5.438   4.970   4.337 -0.0703  0.1258  0.1119
   14MOL   H55013056   5.366   6.353   5.587  2.4939  0.8461 -1.2823
   14MOL   H55113057   5.204   6.359   5.533 -1.5906  3.7882 -0.2596
   14MOL   H55213058   5.452   6.423   5.360 -0.0410 -0.0370 -1.9901
   14MOL   H55313059   5.282   6.421   5.307  0.8442  0.2139  0.0321
   14MOL   H55413060   5.441   6.181   5.425 -3.6149 -2.2464  2.4997
   14MOL   H55513061   5.272   6.194   5.402 -0.3050  0.4897 -0.6777
   14MOL   H55613062   5.466   6.247   5.168  0.1912 -0.1247  1.3060
   14MOL   H55713063   5.302   6.253   5.151 -1.6424 -2.9502 -0.4284
   14MOL   H55813064   5.295   5.997   5.213  1.0921 -0.5971  1.3836
   14MOL   H55913065   5.467   5.999   5.244 -0.6657  1.1995  1.6216
   14MOL   H56013066   5.501   6.082   5.006 -0.2157  0.9634  0.7104
   14MOL   H56113067   5.337   6.067   4.979 -0.4750 -2.1414 -0.7757
   14MOL   H56213068   5.330   5.821   5.027 -0.7892  0.5199 -0.7019
   14MOL   H56313069   5.490   5.809   5.090 -0.7145  0.7537  1.6789
   14MOL   H56413070   5.545   5.886   4.839 -0.8179  1.3683  0.3543
   14MOL   H56513071   5.373   5.850   4.806 -0.7239  3.1793  2.0833
   14MOL   H56613072   5.591   5.647   4.891 -1.9953 -2.7967  2.5487
   14MOL   H56713073   5.419   5.613   4.898  0.8121 -0.4578  0.5018
   14MOL   H56813074   5.573   5.691   4.645 -0.2631 -0.2399 -0.6723
   14MOL   H56913075   5.409   5.652   4.638 -0.1868  0.4962 -0.4906
   14MOL   H57013076   5.564   5.239   4.713  0.3689 -1.5556 -0.6587
   14MOL   H57113077   5.444   5.208   4.601  1.4967 -0.9051 -0.8928
   14MOL   H57213078   5.672   5.140   4.515  1.0331  1.1881  0.6145
   14MOL   H57313079   5.735   5.295   4.533  1.0530 -2.6195  0.2268
   14MOL   H57413080   5.696   5.260   4.322  0.1240  1.0885 -1.7641
   14MOL   H57513081   5.577   5.382   4.376 -0.3797  0.3246  1.3325
   14MOL   H57613082   5.436   5.239   4.223 -0.7437  1.3086  1.5574
   14MOL   H57713083   5.384   5.189   4.374 -0.0920  0.7918 -0.5149
   14MOL   O57813084   5.605   5.038   4.202 -0.3014 -0.6384  0.2176
   14MOL   C57913085   5.653   4.911   4.164 -0.4996  0.1678  0.2003
   14MOL   C58013086   5.580   4.865   4.034 -0.5352 -0.3391 -0.3825
   14MOL   C58113087   5.628   4.735   3.967  0.0625  0.3724  0.0576
   14MOL   C58213088   5.563   4.712   3.826 -0.1464 -0.6153  0.1260
   14MOL   C58313089   5.551   4.560   3.777  0.4213 -0.4983 -0.1183
   14MOL   C58413090   5.428   4.542   3.684  0.2191  0.3098  0.6063
   14MOL   C58513091   5.447   4.619   3.554  0.8828  0.2407  0.1598
   14MOL   C58613092   5.342   4.573   3.453 -0.1951  0.5029 -0.3000
   14MOL   C58713093   5.353   4.642   3.321 -0.0052 -0.7105  0.3983
   14MOL   C58813094   5.242   4.625   3.214 -0.2291  0.3354 -0.8311
   14MOL   O58913095   5.123   4.675   3.272  0.2952  0.2550 -0.2565
   14MOL   C59013096   5.084   4.796   3.234 -0.8390  0.1970 -0.3743
   14MOL   O59113097   5.152   4.882   3.170  0.2539 -0.2507 -0.0326
   14MOL   C59213098   4.944   4.826   3.290 -0.2946  0.4169 -0.3979
   14MOL   C59313099   4.839   4.894   3.200  0.0366  0.6247  0.2545
   14MOL   C59413100   4.850   5.049   3.200 -0.5313  0.2773 -0.1307
   14MOL   C59513101   4.734   5.116   3.123  0.4403 -0.2825 -0.8284
   14MOL   C59613102   4.768   5.259   3.062  1.2685  0.3385 -0.4754
   14MOL   O59713103   4.732   5.362   3.116 -0.3737 -0.1522 -0.3925
   14MOL   H59813104   5.761   4.912   4.149  0.0790 -1.2736  3.6973
   14MOL   H59913105   5.640   4.850   4.254 -0.0451 -2.1045 -1.2405
   14MOL   H60013106   5.575   4.944   3.959  0.0035 -1.3198 -1.4721
   14MOL   H60113107   5.473   4.858   4.055 -0.6487  0.1441 -0.7756
   14MOL   H60213108   5.736   4.732   3.949  0.1175 -1.0736  0.5708
   14MOL   H60313109   5.616   4.648   4.032  0.4132  0.8524  0.7642
   14MOL   H60413110   5.620   4.771   3.755 -0.0833  0.0288  0.7125
   14MOL   H60513111   5.464   4.757   3.834 -0.1040 -0.5476  0.2791
   14MOL   H60613112   5.549   4.494   3.864 -0.8341  3.7804  3.2774
   14MOL   H60713113   5.640   4.545   3.716 -0.4613  0.5957 -1.6907
   14MOL   H60813114   5.338   4.567   3.740  0.4263  1.7890  0.2851
   14MOL   H60913115   5.409   4.438   3.657  0.7636 -0.5272  3.2346
   14MOL   H61013116   5.549   4.604   3.517  0.8861  2.0661 -0.6601
   14MOL   H61113117   5.436   4.728   3.561 -0.6636  0.0572  0.7311
   14MOL   H61213118   5.244   4.601   3.494  0.6176  1.4895  1.0108
   14MOL   H61313119   5.337   4.467   3.431 -1.2228  0.7155 -1.1573
   14MOL   H61413120   5.364   4.750   3.335 -0.8526 -0.3706 -1.4085
   14MOL   H61513121   5.443   4.603   3.274  0.5911 -0.7690  1.5522
   14MOL   H61613122   5.214   4.524   3.185 -0.3618 -0.4823  1.9872
   14MOL   H61713123   5.271   4.687   3.129 -0.4599  1.1264 -0.3430
   14MOL   H61813124   4.907   4.733   3.333  2.4370 -0.2832  0.5680
   14MOL   H61913125   4.967   4.881   3.381  0.8587 -2.2091  0.9478
   14MOL   H62013126   4.739   4.854   3.221  0.0371  0.8814  0.7547
   14MOL   H62113127   4.853   4.863   3.097  0.0623 -0.1496  0.4843
   14MOL   H62213128   4.950   5.071   3.166 -0.8475 -1.0801 -1.9944
   14MOL   H62313129   4.849   5.079   3.305  0.6692  1.5021 -0.4717
   14MOL   H62413130   4.645   5.117   3.186  1.1353  1.9575  0.1746
   14MOL   H62513131   4.714   5.051   3.037 -1.3541  2.1401 -2.3302
   14MOL   O62613132   4.845   5.254   2.951  0.2066 -0.0733 -0.0728
   14MOL   C62713133   4.896   5.372   2.891  0.2814 -0.3346 -0.1379
   14MOL   C62813134   4.794   5.433   2.804  0.8944 -0.4050  0.5994
   14MOL   C62913135   4.752   5.366   2.667  0.5081 -0.2674  0.1185
   14MOL   C63013136   4.682   5.471   2.577  0.4182  0.0644 -0.0447
   14MOL   C63113137   4.605   5.404   2.458  0.1802  0.2491 -0.1399
   14MOL   C63213138   4.521   5.502   2.371  0.2777 -0.5428  0.7209
   14MOL   C63313139   4.418   5.421   2.287 -0.3984 -0.5287 -0.2571
   14MOL   C63413140   4.288   5.505   2.265 -0.6238  0.1227 -0.0788
   14MOL   C63513141   4.166   5.426   2.209  0.2432 -0.1705 -0.1694
   14MOL   C63613142   4.048   5.507   2.157  0.0482 -0.1380  0.3711
   14MOL   O63713143   4.074   5.556   2.022 -0.2221 -0.0325  0.2648
   14MOL   C63813144   4.059   5.478   1.914  0.3047  0.5578  0.4323
   14MOL   O63913145   4.049   5.353   1.909 -0.0805  0.4843 -0.0399
   14MOL   C64013146   4.060   5.567   1.791 -0.2793  0.0082  0.0092
   14MOL   C64113147   4.190   5.647   1.772  0.0021 -0.0147 -0.1295
   14MOL   C64213148   4.209   5.697   1.626 -0.0855  0.0480  0.0401
   14MOL   C64313149   4.325   5.799   1.605  0.3590  0.5035 -0.4814
   14MOL   C64413150   4.345   5.825   1.455 -0.0700 -0.3515 -0.2041
   14MOL   O64513151   4.447   5.776   1.403 -0.0615 -0.5521  0.1640
   14MOL   H64613152   4.947   5.440   2.959 -3.2755  2.6488 -0.2674
   14MOL   H64713153   4.976   5.345   2.822  2.2487 -1.8243  2.6355
   14MOL   H64813154   4.848   5.519   2.765  1.2051 -0.1924  1.4966
   14MOL   H64913155   4.710   5.462   2.867  0.4155  0.1532 -0.2966
   14MOL   H65013156   4.843   5.332   2.617 -0.3573  0.9439 -2.3774
   14MOL   H65113157   4.690   5.280   2.695  0.3609  0.2323  1.3644
   14MOL   H65213158   4.752   5.549   2.546 -0.3027  0.7227 -0.0327
   14MOL   H65313159   4.623   5.532   2.644  0.2155  0.0827 -0.2390
   14MOL   H65413160   4.534   5.334   2.500 -0.5533  1.3227  0.4487
   14MOL   H65513161   4.676   5.345   2.400  0.5208 -0.3779  0.9079
   14MOL   H65613162   4.581   5.561   2.303 -1.4191  0.3512 -0.0154
   14MOL   H65713163   4.474   5.563   2.449 -0.4974 -1.2038  0.7812
   14MOL   H65813164   4.391   5.328   2.336 -0.6989 -0.6457 -0.6359
   14MOL   H65913165   4.459   5.389   2.191  0.0861 -2.0546  0.4389
   14MOL   H66013166   4.316   5.573   2.185  0.5757 -0.4790 -0.1831
   14MOL   H66113167   4.251   5.561   2.351  0.3774  1.6935 -0.6440
   14MOL   H66213168   4.198   5.349   2.139  0.7423  0.9346 -1.1754
   14MOL   H66313169   4.127   5.373   2.296 -1.9903  1.6321 -0.0140
   14MOL   H66413170   4.027   5.589   2.226 -1.4195  0.3313 -0.6157
   14MOL   H66513171   3.962   5.440   2.163 -1.9439  2.5008  3.1411
   14MOL   H66613172   4.048   5.509   1.699 -1.7576  1.2764 -0.6028
   14MOL   H66713173   3.982   5.643   1.789 -0.6516 -0.3795 -0.5360
   14MOL   H66813174   4.280   5.589   1.796  0.2420  0.6935  0.7078
   14MOL   H66913175   4.196   5.732   1.840  1.5463  0.1153 -0.4094
   14MOL   H67013176   4.116   5.745   1.597 -1.2069 -2.9715 -1.4292
   14MOL   H67113177   4.233   5.622   1.552  1.3203  1.9555 -1.4977
   14MOL   H67213178   4.416   5.771   1.657  0.0849  1.8345  0.7369
   14MOL   H67313179   4.289   5.889   1.655  0.2234 -0.0946  0.5094
   14MOL   O67413180   4.251   5.899   1.388  1.0497  0.0994 -0.0705
   14MOL   C67513181   4.281   5.968   1.265 -0.3945  0.6694  0.2586
   14MOL   C67613182   4.198   6.095   1.259 -0.1033  0.2421  0.1596
   14MOL   C67713183   4.231   6.179   1.134 -0.0645  0.5605  0.0182
   14MOL   C67813184   4.160   6.322   1.137  0.1218  0.0933 -0.0576
   14MOL   C67913185   4.225   6.426   1.222 -0.1308 -0.0071 -0.1621
   14MOL   C68013186   4.182   6.571   1.184 -0.5789 -0.3711  0.2786
   14MOL   C68113187   4.033   6.599   1.203 -0.3889 -0.5295  0.0106
   14MOL   C68213188   4.010   6.744   1.172  0.7954 -0.3909 -0.1553
   14MOL   C68313189   3.866   6.788   1.174 -0.4275 -0.4882  0.8761
   14MOL   C68413190   3.849   6.936   1.155 -0.2538  0.3907 -0.6201
   14MOL   O68513191   3.713   6.961   1.169 -0.1087  0.1294  0.0843
   14MOL   C68613192   3.648   7.045   1.084  0.6039  0.4042  0.4857
   14MOL   O68713193   3.706   7.103   0.990 -0.0729 -0.0458 -0.2898
   14MOL   C68813194   3.497   7.050   1.107  0.4020  0.2559  0.1437
   14MOL   C68913195   3.410   7.101   0.991 -0.5483  0.3249 -0.0202
   14MOL   C69013196   3.259   7.091   1.005  0.2211 -0.7690  0.2335
   14MOL   C69113197   3.200   6.945   1.010 -0.3497 -0.5118  0.2582
   14MOL   C69213198   3.149   6.901   1.140 -0.0220 -0.1149 -0.1410
   14MOL   O69313199   3.197   6.944   1.245  1.0165  0.4324 -0.1934
   14MOL   H69413200   4.384   5.998   1.249 -0.2096  1.8624  3.2917
   14MOL   H69513201   4.252   5.896   1.189  4.4743 -1.6951  0.4328
   14MOL   H69613202   4.220   6.151   1.350  0.5499  1.2155 -0.5777
   14MOL   H69713203   4.092   6.071   1.262 -0.2424  0.9407  0.9541
   14MOL   H69813204   4.339   6.192   1.126 -0.3782  2.1814 -1.6863
   14MOL   H69913205   4.197   6.110   1.056  0.0046  1.3304 -0.6970
   14MOL   H70013206   4.055   6.302   1.157  0.6260 -1.3991  1.2971
   14MOL   H70113207   4.157   6.359   1.035  1.0885  0.8701  0.1922
   14MOL   H70213208   4.332   6.417   1.205 -0.1650 -1.6431  0.3759
   14MOL   H70313209   4.203   6.401   1.326  0.5098 -0.6872 -0.1871
   14MOL   H70413210   4.211   6.580   1.080  0.8181 -2.2680  0.4809
   14MOL   H70513211   4.245   6.635   1.247  1.2643 -0.1242 -1.7585
   14MOL   H70613212   4.011   6.581   1.309 -2.7006 -1.2046 -0.5587
   14MOL   H70713213   3.966   6.535   1.146  1.3720  0.1593 -2.8948
   14MOL   H70813214   4.052   6.753   1.072 -0.4730  1.0033 -0.5737
   14MOL   H70913215   4.068   6.812   1.234  2.2116 -2.4804  0.8655
   14MOL   H71013216   3.813   6.733   1.097  0.3821  2.6418 -2.0247
   14MOL   H71113217   3.818   6.763   1.269 -0.3882 -1.2900  0.6854
   14MOL   H71213218   3.879   6.945   1.051  1.6164  1.1639 -0.0492
   14MOL   H71313219   3.914   6.996   1.219 -2.4131  2.8861 -0.6592
   14MOL   H71413220   3.471   6.949   1.141  2.3948  0.2482  1.7110
   14MOL   H71513221   3.483   7.109   1.198 -0.8332 -0.8991  0.7302
   14MOL   H71613222   3.440   7.037   0.908 -0.5837 -0.1434  0.3250
   14MOL   H71713223   3.444   7.200   0.962  1.9367 -0.5060 -0.0350
   14MOL   H71813224   3.210   7.141   0.922 -1.6627 -0.3696  1.5365
   14MOL   H71913225   3.237   7.146   1.097  0.8457  0.5411 -0.3891
   14MOL   H72013226   3.283   6.876   0.998 -1.2168 -1.6486  0.7544
   14MOL   H72113227   3.126   6.926   0.933  1.0620  0.2038 -1.3041
   14MOL   O72213228   3.048   6.809   1.120  0.0532 -0.2688  0.1577
   14MOL   C72313229   2.967   6.776   1.226  0.3412 -0.8541  0.2996
   14MOL   C72413230   2.896   6.638   1.212 -0.0034  0.1371  0.1027
   14MOL   C72513231   3.002   6.528   1.187 -0.1098  0.4506 -0.4267
   14MOL   C72613232   2.937   6.406   1.130 -0.7808  0.7680  0.1231
   14MOL   C72713233   3.002   6.275   1.165  0.1257 -0.7855  0.0362
   14MOL   C72813234   3.140   6.268   1.115 -0.4782 -0.1088 -0.6836
   14MOL   C72913235   3.199   6.126   1.118  0.2249 -0.2528 -0.0255
   14MOL   C73013236   3.342   6.121   1.063 -0.3708 -0.2454 -0.4961
   14MOL   C73113237   3.453   6.143   1.165 -0.1714 -0.4916  0.0611
   14MOL   C73213238   3.600   6.148   1.118 -0.3060 -0.1191  0.1950
   14MOL   O73313239   3.688   6.153   1.234 -0.0722 -0.1934 -0.0561
   14MOL   C73413240   3.777   6.252   1.244 -0.2159  0.0160  0.1171
   14MOL   O73513241   3.788   6.346   1.168 -0.5871 -0.1878 -0.2267
   14MOL   C73613242   3.858   6.248   1.371 -0.3221  0.4543  0.1416
   14MOL   C73713243   3.829   6.365   1.470  0.2495 -0.6126 -0.5113
   14MOL   C73813244   3.685   6.387   1.523 -0.0800  0.0821 -0.5419
   14MOL   C73913245   3.672   6.512   1.612 -0.0640  0.4364  0.1891
   14MOL   C74013246   3.744   6.523   1.736 -1.0388  0.6961 -0.1366
   14MOL   O74113247   3.805   6.620   1.766  0.0567 -0.0057 -0.0873
   14MOL   H74213248   3.029   6.775   1.316  0.3388 -0.5417  0.3073
   14MOL   H74313249   2.899   6.858   1.249  2.5397  0.7016  1.5383
   14MOL   H74413250   2.818   6.644   1.136  0.7088 -0.0170 -0.6480
   14MOL   H74513251   2.847   6.612   1.306 -2.1587 -0.7103 -1.2163
   14MOL   H74613252   3.068   6.558   1.106 -0.9416 -0.4691 -1.4634
   14MOL   H74713253   3.072   6.505   1.267 -0.9530  1.5647  0.6537
   14MOL   H74813254   2.928   6.423   1.023 -0.6576 -0.3720 -0.0703
   14MOL   H74913255   2.834   6.397   1.165 -0.1189  1.0177  2.2338
   14MOL   H75013256   2.948   6.189   1.127  1.2434 -1.5347  0.1242
   14MOL   H75113257   2.988   6.264   1.272 -2.1719  0.6850 -0.0833
   14MOL   H75213258   3.198   6.344   1.166 -1.8572 -0.8502  2.0779
   14MOL   H75313259   3.149   6.305   1.013 -1.6028 -1.8452 -1.4412
   14MOL   H75413260   3.130   6.062   1.064  1.5779 -2.2706  0.5831
   14MOL   H75513261   3.202   6.090   1.221  2.6571  0.2694  0.1221
   14MOL   H75613262   3.355   6.196   0.985 -2.0272  1.9376  1.2720
   14MOL   H75713263   3.365   6.019   1.030 -1.6786 -0.0522 -2.0910
   14MOL   H75813264   3.429   6.235   1.219 -1.0492 -0.6305 -0.0839
   14MOL   H75913265   3.441   6.057   1.231  1.0854 -1.0991 -0.4741
   14MOL   H76013266   3.613   6.227   1.044 -2.2880 -2.2533 -2.5557
   14MOL   H76113267   3.617   6.057   1.061 -0.4827  1.3208 -2.2374
   14MOL   H76213268   3.854   6.151   1.421  2.2036  1.6234  2.7750
   14MOL   H76313269   3.965   6.261   1.351 -0.4282 -0.1527 -0.9109
   14MOL   H76413270   3.860   6.462   1.433  0.1292 -1.5532 -3.1981
   14MOL   H76513271   3.894   6.350   1.556 -1.5137 -2.9307  0.4653
   14MOL   H76613272   3.658   6.297   1.578 -0.0647 -1.2378 -2.6560
   14MOL   H76713273   3.621   6.399   1.435  0.6458 -1.8206 -1.3461
   14MOL   H76813274   3.563   6.524   1.617 -0.0599 -0.2406  2.2952
   14MOL   H76913275   3.696   6.600   1.552  0.1537  0.0626 -0.2694
   14MOL   O77013276   3.744   6.412   1.818  0.1064  0.1534 -0.3338
   14MOL   C77113277   3.838   6.398   1.918 -0.0083  0.1933 -0.5656
   14MOL   C77213278   3.759   6.433   2.052  0.1126 -0.2014 -0.0956
   14MOL   C77313279   3.831   6.414   2.181 -0.3957  0.1340 -0.1179
   14MOL   C77413280   3.964   6.485   2.188 -0.1891 -0.4326  0.1245
   14MOL   C77513281   4.044   6.464   2.322 -0.1710 -0.3019 -0.7420
   14MOL   C77613282   4.190   6.486   2.322 -0.1084  0.5226 -0.0992
   14MOL   C77713283   4.270   6.357   2.331  0.7701 -0.6991 -0.3995
   14MOL   C77813284   4.263   6.297   2.474  0.3327  0.0180 -0.6042
   14MOL   C77913285   4.266   6.142   2.468  0.3746 -0.3063  0.4684
   14MOL   C78013286   4.228   6.069   2.588  0.2911 -0.2728 -0.0074
   14MOL   O78113287   4.227   5.934   2.549  0.3499 -0.3954 -0.1641
   14MOL   C78213288   4.192   5.837   2.635  0.2998  0.1061 -0.3829
   14MOL   O78313289   4.147   5.867   2.746 -0.6278 -0.1183  0.4846
   14MOL   C78413290   4.208   5.692   2.583 -0.0060 -1.0335 -0.7477
   14MOL   C78513291   4.174   5.576   2.684  0.0879  0.3914  0.1859
   14MOL   C78613292   4.250   5.444   2.649 -0.3067  0.5696 -0.0103
   14MOL   C78713293   4.233   5.334   2.744 -0.0792  0.8235 -0.0044
   14MOL   C78813294   4.092   5.274   2.742 -0.7522 -0.2995  0.0060
   14MOL   O78913295   4.037   5.243   2.846  0.1725  0.1801 -0.1650
   14MOL   H79013296   3.864   6.292   1.922  1.2903  0.5271  0.2451
   14MOL   H79113297   3.933   6.451   1.906  0.8833 -1.2778 -0.1982
   14MOL   H79213298   3.666   6.378   2.053  0.0131 -0.0418 -0.5323
   14MOL   H79313299   3.732   6.538   2.039  2.1655  0.4714  0.7353
   14MOL   H79413300   3.768   6.444   2.265 -1.2337 -0.3452 -0.5595
   14MOL   H79513301   3.841   6.306   2.189  0.5912  0.2969  0.8923
   14MOL   H79613302   3.931   6.588   2.175 -0.7166 -0.5886  0.2421
   14MOL   H79713303   4.030   6.451   2.107 -0.9122  0.9284 -1.0638
   14MOL   H79813304   4.029   6.357   2.335  2.2491 -0.6402 -0.5850
   14MOL   H79913305   3.997   6.503   2.412 -0.0533 -0.6175 -0.5449
   14MOL   H80013306   4.222   6.555   2.401  1.0349 -0.6087  0.4389
   14MOL   H80113307   4.214   6.545   2.233 -0.6024  2.6154  1.1216
   14MOL   H80213308   4.376   6.382   2.317  0.7376 -0.6439 -0.5402
   14MOL   H80313309   4.234   6.284   2.259 -1.0959 -0.6952  0.5112
   14MOL   H80413310   4.168   6.323   2.520 -0.2008 -0.9914 -1.1216
   14MOL   H80513311   4.354   6.336   2.521  0.2338  0.2269 -0.5875
   14MOL   H80613312   4.215   6.106   2.378 -0.6676 -1.5780  1.5448
   14MOL   H80713313   4.366   6.114   2.437  0.5856  0.4931  0.4108
   14MOL   H80813314   4.130   6.109   2.613 -0.6382 -2.1382 -0.5856
   14MOL   H80913315   4.292   6.081   2.675  2.1407 -0.6657 -1.2749
   14MOL   H81013316   4.147   5.682   2.493 -2.7704  2.1102  0.6545
   14MOL   H81113317   4.310   5.680   2.548  0.2271  0.8102 -0.7349
   14MOL   H81213318   4.067   5.554   2.679  0.0560  0.7630 -0.7850
   14MOL   H81313319   4.190   5.608   2.787  0.5008  0.7285  0.0200
   14MOL   H81413320   4.358   5.459   2.643 -0.3388  0.2111 -1.9836
   14MOL   H81513321   4.218   5.411   2.550  0.0286 -0.1401  0.1183
   14MOL   H81613322   4.253   5.380   2.841 -2.4177 -1.8334  1.8224
   14MOL   H81713323   4.304   5.254   2.724 -0.5417 -0.1173  1.9380
   14MOL   O81813324   4.033   5.271   2.618 -0.3239  0.0680  0.5401
   14MOL   C81913325   3.898   5.227   2.609  0.5346 -0.3114  0.1932
   14MOL   C82013326   3.842   5.287   2.481  1.4194  0.1907 -0.1848
   14MOL   C82113327   3.824   5.444   2.495  0.5513 -0.2714 -0.0744
   14MOL   C82213328   3.730   5.490   2.388  0.1204 -0.6113  0.5802
   14MOL   C82313329   3.705   5.640   2.395 -0.0325  0.3977  0.1909
   14MOL   C82413330   3.566   5.680   2.337  0.3806  0.0707 -0.3402
   14MOL   C82513331   3.531   5.829   2.344  0.4133 -0.1671  0.4601
   14MOL   C82613332   3.406   5.854   2.252  0.1455 -0.1775  0.3335
   14MOL   C82713333   3.360   6.000   2.253  0.0859 -0.2987 -0.1478
   14MOL   C82813334   3.236   6.022   2.159 -0.3751  0.0418  0.1153
   14MOL   O82913335   3.266   5.994   2.018  0.0054  0.0082  0.4140
   14MOL   C83013336   3.319   6.095   1.944  0.2576  0.2741  0.3100
   14MOL   O83113337   3.350   6.205   1.989 -0.0498  0.2581 -0.0549
   14MOL   C83213338   3.358   6.058   1.796 -0.3884 -0.1205 -0.4873
   14MOL   C83313339   3.273   6.114   1.686  0.0159 -0.0989 -0.0383
   14MOL   C83413340   3.304   6.257   1.643 -0.2940 -0.1544 -0.1600
   14MOL   C83513341   3.216   6.315   1.528  0.1524 -0.2768 -0.5423
   14MOL   C83613342   3.242   6.462   1.491  0.2501  0.4615 -0.4556
   14MOL   O83713343   3.157   6.545   1.503  0.4578 -0.0560 -0.5604
   14MOL   H83813344   3.892   5.118   2.617  0.8994 -0.3373  0.1199
   14MOL   H83913345   3.841   5.270   2.691 -1.4156 -0.6035 -0.9692
   14MOL   H84013346   3.754   5.237   2.442  2.9941 -1.2279 -2.0542
   14MOL   H84113347   3.917   5.263   2.405 -0.0926 -0.2177 -1.5692
   14MOL   H84213348   3.779   5.462   2.593 -1.2311  2.0361 -1.2736
   14MOL   H84313349   3.921   5.494   2.490  0.9935 -0.9751  1.0754
   14MOL   H84413350   3.634   5.443   2.407  0.8078 -2.5239 -0.5759
   14MOL   H84513351   3.754   5.451   2.289 -0.8550  1.1312 -0.3708
   14MOL   H84613352   3.785   5.694   2.345 -0.7884 -0.0753 -1.5485
   14MOL   H84713353   3.712   5.679   2.497 -1.3013  1.1126  0.0139
   14MOL   H84813354   3.490   5.627   2.395 -0.7855 -0.0494 -1.9468
   14MOL   H84913355   3.557   5.632   2.240  1.3565 -1.3606  0.2604
   14MOL   H85013356   3.612   5.896   2.315  0.1247  0.3146  0.7555
   14MOL   H85113357   3.508   5.853   2.448  1.0470 -0.4146  0.6603
   14MOL   H85213358   3.330   5.789   2.295  0.6574 -1.4878 -0.7002
   14MOL   H85313359   3.418   5.828   2.147  0.0149 -1.8286  0.7053
   14MOL   H85413360   3.346   6.029   2.356  2.5604 -0.1021  0.1798
   14MOL   H85513361   3.437   6.068   2.216  1.3800 -1.6150  0.0739
   14MOL   H85613362   3.185   6.119   2.154 -0.6361 -0.1081 -0.1131
   14MOL   H85713363   3.162   5.961   2.210 -1.1771 -1.4895 -2.8232
   14MOL   H85813364   3.463   6.080   1.778 -0.2128 -0.8253 -0.3483
   14MOL   H85913365   3.360   5.951   1.779  1.5379  0.1770 -2.3972
   14MOL   H86013366   3.165   6.109   1.705 -0.0000 -1.6020 -0.5136
   14MOL   H86113367   3.299   6.059   1.596 -0.1883 -2.0130  1.0581
   14MOL   H86213368   3.408   6.283   1.626 -0.1028 -1.8626 -1.6473
   14MOL   H86313369   3.285   6.311   1.736 -1.6175 -2.0018  0.6576
   14MOL   H86413370   3.111   6.319   1.557  0.2584  1.7362 -0.3627
   14MOL   H86513371   3.225   6.253   1.439 -1.3421 -0.8182 -0.3265
   14MOL   O86613372   3.365   6.474   1.441 -0.5473 -0.1758  0.0550
   14MOL   C86713373   3.400   6.592   1.358 -0.6878 -0.3010 -0.6246
   14MOL   C86813374   3.493   6.555   1.243 -0.5592 -0.0529  0.5036
   14MOL   C86913375   3.504   6.667   1.139 -0.5491  0.5055 -0.1115
   14MOL   C87013376   3.566   6.621   1.006 -0.1973 -0.3363  0.0460
   14MOL   C87113377   3.590   6.731   0.905 -0.1386  0.1451 -0.4879
   14MOL   C87213378   3.631   6.662   0.768  0.3423 -0.3796  0.6726
   14MOL   C87313379   3.769   6.606   0.767  0.2618  0.2117  0.1328
   14MOL   C87413380   3.874   6.717   0.737 -0.1529 -0.2520  0.1776
   14MOL   C87513381   4.023   6.667   0.725  0.5143 -0.3641 -1.1374
   14MOL   C87613382   4.132   6.776   0.725 -0.1864 -0.2374  0.6001
   14MOL   O87713383   4.149   6.844   0.599  0.6788 -0.2513  0.3842
   14MOL   C87813384   4.219   6.952   0.589  0.2346  0.0422  0.1905
   14MOL   O87913385   4.277   7.016   0.677 -0.1509 -0.5573  0.6695
   14MOL   C88013386   4.221   7.010   0.450  0.4318 -0.2152 -0.5092
   14MOL   C88113387   4.353   7.080   0.394 -0.1545  0.9262 -0.5630
   14MOL   C88213388   4.469   6.987   0.353  0.2513 -0.0152  0.2422
   14MOL   C88313389   4.549   7.058   0.247 -0.1753  0.5195  0.6115
   14MOL   C88413390   4.650   6.970   0.180  0.4578 -0.4419  0.0398
   14MOL   O88513391   4.663   6.944   0.061 -0.0162  0.0156 -0.5335
   14MOL   H88613392   3.309   6.638   1.320  0.3829  2.1599 -0.2876
   14MOL   H88713393   3.462   6.658   1.419 -3.3181  2.0960 -0.4657
   14MOL   H88813394   3.460   6.460   1.203 -1.0053  0.2967  0.0477
   14MOL   H88913395   3.592   6.556   1.291 -0.7497 -0.4562  0.9074
   14MOL   H89013396   3.401   6.700   1.126  0.2100  2.4309 -1.4820
   14MOL   H89113397   3.560   6.746   1.188 -0.3429  0.1919  0.1612
   14MOL   H89213398   3.503   6.544   0.962  1.1635  0.5150 -3.5666
   14MOL   H89313399   3.663   6.577   1.027  0.0486  0.3607  0.3955
   14MOL   H89413400   3.677   6.783   0.946  0.5640 -1.6445  0.3779
   14MOL   H89513401   3.501   6.793   0.909 -0.8271 -0.8971  0.7899
   14MOL   H89613402   3.625   6.738   0.690  0.2715 -0.1965  0.8556
   14MOL   H89713403   3.562   6.582   0.742  1.8288 -1.0254 -1.4041
   14MOL   H89813404   3.757   6.530   0.690  0.1608  1.0475 -0.6780
   14MOL   H89913405   3.783   6.545   0.857  2.5237  1.7719  0.8787
   14MOL   H90013406   3.867   6.788   0.820 -0.2195 -0.2439  0.1651
   14MOL   H90113407   3.852   6.782   0.652 -4.0064 -0.9568  0.5594
   14MOL   H90213408   4.032   6.593   0.805 -0.7347  1.5965  0.8609
   14MOL   H90313409   4.028   6.604   0.637 -2.6472 -1.2643 -0.7312
   14MOL   H90413410   4.233   6.749   0.755  0.8118  2.3055 -0.3166
   14MOL   H90513411   4.106   6.849   0.802 -4.0697 -0.1817 -0.6135
   14MOL   H90613412   4.172   6.951   0.373 -0.0742 -1.7499  0.9582
   14MOL   H90713413   4.147   7.087   0.469  0.4104 -0.1440 -0.8711
   14MOL   H90813414   4.398   7.143   0.470  0.4169 -2.1522  1.7439
   14MOL   H90913415   4.327   7.135   0.303 -2.3207 -0.3650 -0.7590
   14MOL   H91013416   4.441   6.885   0.328  0.8480 -0.2498  0.5240
   14MOL   H91113417   4.533   6.983   0.441 -1.4798 -1.2378  1.4513
   14MOL   H91213418   4.604   7.142   0.288  1.2134 -0.8399  1.5447
   14MOL   H91313419   4.481   7.092   0.168 -2.3214 -1.6289  1.4728
   14MOL   O91413420   4.731   6.926   0.273  0.0868 -0.2513  0.2672
   14MOL   C91513421   4.842   6.843   0.247  0.3937 -0.3997  0.0553
   14MOL   C91613422   4.808   6.703   0.198 -0.4908 -0.2846 -0.2858
   14MOL   C91713423   4.727   6.626   0.311 -0.6160 -0.9943 -0.8149
   14MOL   C91813424   4.734   6.473   0.300 -0.1055 -0.1646 -0.4926
   14MOL   C91913425   4.634   6.402   0.202  0.1535 -0.4516 -0.1084
   14MOL   C92013426   4.644   6.245   0.181 -0.1256 -0.0141  0.5580
   14MOL   C92113427   4.600   6.162   0.290 -0.4205  0.0099 -0.4805
   14MOL   C92213428   4.655   6.018   0.294 -0.2746 -0.7009 -0.1834
   14MOL   C92313429   4.587   5.927   0.394  0.0225  0.3367 -0.3912
   14MOL   C92413430   4.584   5.781   0.345  0.2337  0.2563 -1.3092
   14MOL   O92513431   4.550   5.696   0.457 -0.2644  0.0825 -0.3756
   14MOL   C92613432   4.506   5.575   0.444 -0.3798 -0.5050 -0.8710
   14MOL   O92713433   4.494   5.515   0.339 -0.1125 -0.2881  0.3916
   14MOL   C92813434   4.467   5.511   0.577  0.2420 -0.6094 -0.5088
   14MOL   C92913435   4.316   5.517   0.610 -0.2923  0.8610 -0.2698
   14MOL   C93013436   4.274   5.402   0.705  0.1300  0.2471  0.3452
   14MOL   C93113437   4.123   5.406   0.747  0.2786 -0.3896 -0.1221
   14MOL   C93213438   4.100   5.501   0.864  0.6401  0.0996  0.1871
   14MOL   O93313439   4.080   5.620   0.846  0.1246 -0.0494 -0.2121
   14MOL   H93413440   4.899   6.889   0.166  0.1839 -1.8820 -0.9747
   14MOL   H93513441   4.913   6.834   0.329  0.2033  0.0127  0.2604
   14MOL   H93613442   4.907   6.656   0.190  0.1875  1.4521 -3.1575
   14MOL   H93713443   4.757   6.697   0.101  0.0093 -1.8408 -0.4643
   14MOL   H93813444   4.774   6.652   0.406 -2.1671 -0.4661 -0.1852
   14MOL   H93913445   4.626   6.663   0.322 -0.3209 -0.5557  0.5406
   14MOL   H94013446   4.711   6.430   0.397  2.4962  2.6543  1.4754
   14MOL   H94113447   4.838   6.452   0.273  0.4164  2.0554 -0.3226
   14MOL   H94213448   4.649   6.458   0.109 -1.7709 -0.6473 -0.5533
   14MOL   H94313449   4.529   6.424   0.221  0.1089 -0.6628 -0.1155
   14MOL   H94413450   4.751   6.222   0.180 -0.5701 -2.1417 -0.7698
   14MOL   H94513451   4.600   6.212   0.087 -0.4790 -0.7837  0.9889
   14MOL   H94613452   4.491   6.155   0.287 -0.2417 -3.0858 -2.0528
   14MOL   H94713453   4.622   6.196   0.392 -0.7164 -3.1971  0.7197
   14MOL   H94813454   4.763   6.013   0.310 -0.5005 -0.3302  1.5857
   14MOL   H94913455   4.640   5.986   0.191 -0.6117  2.0939 -1.0519
   14MOL   H95013456   4.626   5.945   0.494  2.2219 -0.6170 -1.0521
   14MOL   H95113457   4.482   5.951   0.409  0.1856  0.9655 -0.2325
   14MOL   H95213458   4.668   5.739   0.290  0.1795  0.3556 -1.4654
   14MOL   H95313459   4.498   5.768   0.280 -1.0402 -1.7666  0.7135
   14MOL   H95413460   4.509   5.411   0.589 -0.9906 -0.9528  1.0604
   14MOL   H95513461   4.518   5.571   0.653 -1.4555 -0.9083  0.8909
   14MOL   H95613462   4.251   5.510   0.523 -1.5674  2.4830  0.5252
   14MOL   H95713463   4.296   5.614   0.656  3.3576  1.1364  0.8987
   14MOL   H95813464   4.348   5.397   0.785 -0.6878 -0.7997  1.0562
   14MOL   H95913465   4.285   5.313   0.643 -1.5426  0.0023  0.3730
   14MOL   H96013466   4.094   5.308   0.788  1.1499  0.0837  1.7088
   14MOL   H96113467   4.064   5.432   0.660  4.4042 -3.8187 -4.2264
   14MOL   H96213468   4.107   5.455   0.963 -1.7997  0.8522  0.7441
   15MOL     O113469   0.500   5.587   2.587 -0.1724  0.9752  0.0702
   15MOL     C213470   0.582   5.685   2.520 -0.3584  0.3784 -0.1308
   15MOL     C313471   0.730   5.665   2.536 -0.4858 -0.2201  0.8261
   15MOL     C413472   0.778   5.694   2.678 -0.5666  0.3205 -0.1534
   15MOL     C513473   0.930   5.692   2.702  0.0094 -0.1638 -0.0568
   15MOL     C613474   0.979   5.740   2.849 -0.8150  1.1262 -0.1347
   15MOL     C713475   1.138   5.728   2.860 -0.0529  0.8594  0.2305
   15MOL     C813476   1.187   5.802   2.986 -0.9480  0.5267  0.0301
   15MOL     C913477   1.135   5.745   3.121  0.2776  0.2939 -0.6709
   15MOL    C1013478   1.199   5.622   3.174 -1.1929 -0.4529  0.1883
   15MOL    C1113479   1.117   5.561   3.291  0.9536 -0.0878 -0.0541
   15MOL    O1213480   1.173   5.435   3.344  0.2101 -0.8690 -0.1372
   15MOL    C1313481   1.270   5.439   3.434  0.4260  0.1528 -0.1253
   15MOL    O1413482   1.303   5.527   3.511  0.5735 -0.0919 -0.2556
   15MOL    C1513483   1.334   5.303   3.435  0.3714 -0.0279 -0.1072
   15MOL    C1613484   1.442   5.269   3.326  0.3937  0.0522  0.1603
   15MOL    C1713485   1.374   5.240   3.200 -0.5547  0.4946  0.6726
   15MOL    C1813486   1.469   5.179   3.094  0.0953  0.3759  0.7019
   15MOL    C1913487   1.577   5.271   3.049 -0.3112 -0.1731 -0.7505
   15MOL    O2013488   1.571   5.395   3.066 -0.6026 -0.0393 -0.0072
   15MOL    H2113489   0.561   5.691   2.414 -2.8619 -1.3325  0.2223
   15MOL    H2213490   0.557   5.781   2.565  1.3505  0.9381 -0.3388
   15MOL    H2313491   0.773   5.740   2.469 -0.3709 -1.6754 -0.7480
   15MOL    H2413492   0.762   5.568   2.500  1.1214  1.3970 -2.2576
   15MOL    H2513493   0.739   5.789   2.715 -0.1009 -0.5842  2.7388
   15MOL    H2613494   0.723   5.612   2.723  2.6755 -1.1345  1.3267
   15MOL    H2713495   0.975   5.767   2.637 -1.0834  0.3112 -0.2630
   15MOL    H2813496   0.973   5.594   2.678 -1.9352 -1.0235 -0.1510
   15MOL    H2913497   0.932   5.678   2.925  1.7980 -0.0850  0.5251
   15MOL    H3013498   0.950   5.844   2.865 -1.6425  0.8345  0.3008
   15MOL    H3113499   1.193   5.766   2.774  0.4665  2.5069  1.2581
   15MOL    H3213500   1.166   5.623   2.869 -2.3073  0.2858  0.8733
   15MOL    H3313501   1.152   5.904   2.973 -0.4906  0.7857  0.8105
   15MOL    H3413502   1.296   5.813   2.989 -0.9361  0.3797  0.1164
   15MOL    H3513503   1.029   5.720   3.113  0.1638  0.5638 -0.0139
   15MOL    H3613504   1.145   5.825   3.193 -2.5345 -0.1719  0.3302
   15MOL    H3713505   1.216   5.546   3.098 -0.5689 -1.5677  1.4407
   15MOL    H3813506   1.297   5.648   3.214 -1.0215  1.0975 -1.1412
   15MOL    H3913507   1.016   5.554   3.251  0.0065  0.3573  2.1866
   15MOL    H4013508   1.097   5.632   3.371 -2.9044  0.4031 -1.3616
   15MOL    H4113509   1.385   5.310   3.531 -1.0830 -0.0540  0.6972
   15MOL    H4213510   1.257   5.226   3.446  0.3518  0.0607  0.3885
   15MOL    H4313511   1.507   5.190   3.364  1.2034  0.1453 -0.9937
   15MOL    H4413512   1.503   5.358   3.309  0.6036  0.2222  1.7058
   15MOL    H4513513   1.324   5.328   3.161  1.0070  0.4041 -1.6694
   15MOL    H4613514   1.291   5.171   3.214 -0.4159  0.4369  1.2724
   15MOL    H4713515   1.419   5.146   3.003  0.8592  0.6258  0.1963
   15MOL    H4813516   1.509   5.088   3.139 -0.2093  1.3251  2.9949
   15MOL    H4913517   0.502   5.507   2.537 -0.9025  0.6258  0.5780
   15MOL    O5013518   1.672   5.205   2.983  0.1149 -0.1593  0.1125
   15MOL    C5113519   1.772   5.279   2.914  0.9705  0.3186 -0.4012
   15MOL    C5213520   1.871   5.180   2.848 -0.4361 -0.5736  0.0813
   15MOL    C5313521   1.966   5.252   2.755 -1.2566 -0.3479  0.3705
   15MOL    C5413522   2.097   5.308   2.829 -0.1720  0.2960  0.0281
   15MOL    C5513523   2.193   5.200   2.889 -0.4410  0.0646  0.2798
   15MOL    C5613524   2.327   5.266   2.938  0.8964  0.3717  0.3265
   15MOL    C5713525   2.392   5.167   3.044 -0.0754 -0.9635 -0.4712
   15MOL    C5813526   2.504   5.253   3.107 -0.9377 -0.3606 -0.4282
   15MOL    C5913527   2.538   5.192   3.243  0.1189 -0.8060  0.1203
   15MOL    C6013528   2.669   5.251   3.297  0.2834  0.8927  0.6310
   15MOL    O6113529   2.699   5.185   3.420 -0.7503  0.2069  0.2709
   15MOL    C6213530   2.798   5.227   3.506  0.2654 -0.2160  0.2227
   15MOL    O6313531   2.873   5.322   3.489 -0.1011 -0.3254  0.3500
   15MOL    C6413532   2.823   5.141   3.631  0.1915  0.1040 -0.3365
   15MOL    C6513533   2.812   4.989   3.595 -0.1666 -0.7388  0.1190
   15MOL    C6613534   2.805   4.904   3.720  0.3541  0.5035  0.7860
   15MOL    C6713535   2.665   4.921   3.778  0.7419  0.2053  0.1886
   15MOL    C6813536   2.629   4.796   3.858 -0.4708  0.4437  0.5089
   15MOL    O6913537   2.532   4.731   3.839  0.3766  0.1288  0.2614
   15MOL    H7013538   1.734   5.346   2.837  1.5279  0.3823 -0.6265
   15MOL    H7113539   1.827   5.339   2.986  0.8544 -1.5762  1.3096
   15MOL    H7213540   1.817   5.107   2.788  0.9749 -0.9428 -0.7584
   15MOL    H7313541   1.928   5.123   2.921 -0.6000  0.6876  1.2242
   15MOL    H7413542   1.997   5.200   2.664 -1.9009 -1.1049  0.5825
   15MOL    H7513543   1.897   5.328   2.717 -1.3543 -0.0917  1.0490
   15MOL    H7613544   2.079   5.380   2.909 -2.3269 -0.4358  0.2271
   15MOL    H7713545   2.143   5.376   2.757  0.1426 -0.2480 -0.2882
   15MOL    H7813546   2.217   5.127   2.811 -0.6175 -0.1984  0.4703
   15MOL    H7913547   2.149   5.138   2.967  1.5618 -2.1971 -0.3125
   15MOL    H8013548   2.314   5.366   2.980  1.2799  0.1985  0.8672
   15MOL    H8113549   2.393   5.284   2.853  0.6484 -0.1275  0.0252
   15MOL    H8213550   2.413   5.075   2.989 -0.7055 -0.8855 -0.8492
   15MOL    H8313551   2.321   5.139   3.122  1.5623 -1.9536  0.6847
   15MOL    H8413552   2.478   5.357   3.126  1.3293  0.6070 -2.3283
   15MOL    H8513553   2.594   5.260   3.046 -1.5160  0.7131 -1.1732
   15MOL    H8613554   2.465   5.228   3.315  0.3255  0.7713 -0.4414
   15MOL    H8713555   2.542   5.084   3.253 -0.0652 -0.6753  1.6406
   15MOL    H8813556   2.666   5.357   3.322  1.7580  1.3777 -1.1289
   15MOL    H8913557   2.747   5.246   3.221  0.4313 -0.0418  0.8364
   15MOL    H9013558   2.928   5.157   3.654  0.3097 -0.7903 -0.2400
   15MOL    H9113559   2.751   5.171   3.707  0.4574 -0.7848  0.2742
   15MOL    H9213560   2.900   4.977   3.532 -0.5138  1.8199 -0.9372
   15MOL    H9313561   2.726   4.966   3.531 -0.0166  1.1749 -0.8347
   15MOL    H9413562   2.882   4.934   3.791  1.8477 -0.2239 -0.4798
   15MOL    H9513563   2.811   4.799   3.690 -2.0436 -0.2392  2.7022
   15MOL    H9613564   2.581   4.930   3.709  0.1256  0.0934  0.9216
   15MOL    H9713565   2.662   5.013   3.836 -0.2530  0.0801  0.3553
   15MOL    O9813566   2.723   4.780   3.953  0.0348  0.5540  0.6009
   15MOL    C9913567   2.704   4.708   4.079 -0.1231  0.2607 -0.2935
   15MOL   C10013568   2.763   4.566   4.081 -0.4053  0.0894  0.0354
   15MOL   C10113569   2.777   4.506   4.226 -0.5981 -0.7464  0.4855
   15MOL   C10213570   2.853   4.371   4.224  0.1226  0.0548  0.2917
   15MOL   C10313571   2.881   4.323   4.371  0.3268  0.4429 -0.1123
   15MOL   C10413572   2.760   4.243   4.435 -0.7505  0.1865 -0.4555
   15MOL   C10513573   2.794   4.200   4.582  0.2472  0.3061 -0.5061
   15MOL   C10613574   2.680   4.126   4.641  0.5359 -0.4813 -0.1919
   15MOL   C10713575   2.697   4.103   4.782 -0.1530  0.2836  0.3342
   15MOL   C10813576   2.672   3.958   4.840  0.2779  0.5623  0.0257
   15MOL   O10913577   2.548   3.907   4.810 -0.0671 -0.6263 -0.1088
   15MOL   C11013578   2.449   3.910   4.908 -0.3410  0.2806 -0.3067
   15MOL   O11113579   2.463   3.929   5.030  0.3380  0.3831  0.2320
   15MOL   C11213580   2.315   3.863   4.848  0.4169 -0.1272 -0.3447
   15MOL   C11313581   2.330   3.725   4.789  0.7991 -0.4343  0.2463
   15MOL   C11413582   2.192   3.651   4.768  0.3450  0.4402 -0.6934
   15MOL   C11513583   2.206   3.507   4.707 -0.0114  0.4739 -0.9985
   15MOL   C11613584   2.292   3.412   4.791  0.2422 -0.3794  0.1759
   15MOL   O11713585   2.396   3.368   4.749  0.1324  0.2774  0.0901
   15MOL   H11813586   2.753   4.777   4.148  0.4954 -0.3189 -0.1514
   15MOL   H11913587   2.599   4.713   4.108  0.6277  1.2084  2.3531
   15MOL   H12013588   2.859   4.574   4.031 -0.9199 -0.2651 -1.0269
   15MOL   H12113589   2.702   4.494   4.027 -0.7998  0.5978 -0.1958
   15MOL   H12213590   2.822   4.578   4.294 -1.8024 -1.9661  2.6150
   15MOL   H12313591   2.680   4.504   4.274 -1.1920  1.1941 -0.5897
   15MOL   H12413592   2.948   4.385   4.172 -0.4997  0.4572 -0.7532
   15MOL   H12513593   2.807   4.289   4.169  0.7118 -0.9043  1.2178
   15MOL   H12613594   2.884   4.411   4.436  0.5210  2.0903 -2.2989
   15MOL   H12713595   2.973   4.269   4.394  0.1392 -0.3144 -1.0945
   15MOL   H12813596   2.741   4.152   4.378  2.3175 -1.0058  0.2688
   15MOL   H12913597   2.673   4.308   4.436 -0.4272  0.6144  0.0466
   15MOL   H13013598   2.818   4.293   4.633 -1.2782  0.5787 -0.2432
   15MOL   H13113599   2.878   4.131   4.580  1.1642  1.2947  1.9721
   15MOL   H13213600   2.662   4.028   4.597 -0.2811 -0.4036 -0.0412
   15MOL   H13313601   2.591   4.189   4.630  1.5611  1.1076  0.4322
   15MOL   H13413602   2.792   4.144   4.816 -0.3438  2.1319 -1.2455
   15MOL   H13513603   2.632   4.172   4.836 -1.9828 -1.3998  0.3363
   15MOL   H13613604   2.685   3.952   4.948 -1.1883 -0.7339  0.1488
   15MOL   H13713605   2.744   3.890   4.795 -0.8559 -1.3568  1.0968
   15MOL   H13813606   2.239   3.870   4.926  2.6598 -0.2494  1.9044
   15MOL   H13913607   2.293   3.942   4.776 -2.1659  0.8703  1.4779
   15MOL   H14013608   2.387   3.671   4.865  0.7735  0.7392  1.1099
   15MOL   H14113609   2.394   3.729   4.701  1.3440  0.0407  0.6575
   15MOL   H14213610   2.126   3.711   4.705  0.6990  3.6795  1.9132
   15MOL   H14313611   2.154   3.640   4.869  3.7309  0.1577  0.5901
   15MOL   H14413612   2.256   3.511   4.610  1.5498 -0.4949 -0.2731
   15MOL   H14513613   2.113   3.453   4.688  0.6102 -0.0097 -2.8245
   15MOL   O14613614   2.233   3.393   4.913 -0.3705  0.1938 -0.2119
   15MOL   C14713615   2.301   3.301   5.003  0.3619 -0.5182  0.4791
   15MOL   C14813616   2.196   3.214   5.063  0.8506 -0.4190  0.8887
   15MOL   C14913617   2.253   3.155   5.184 -0.0652  0.1738 -0.2132
   15MOL   C15013618   2.160   3.077   5.274  0.4394  0.6615 -0.3388
   15MOL   C15113619   2.229   3.046   5.405  0.1588 -0.7006 -0.0854
   15MOL   C15213620   2.140   2.961   5.492  0.9543 -0.3983  0.2641
   15MOL   C15313621   2.176   2.960   5.642 -0.2818  0.1096 -0.4158
   15MOL   C15413622   2.067   2.902   5.736 -0.1865  0.0422  1.2785
   15MOL   C15513623   2.071   2.950   5.882 -0.1844  0.5699 -0.1327
   15MOL   C15613624   2.199   2.921   5.955 -0.1940  0.5893 -1.0640
   15MOL   O15713625   2.212   2.790   6.000  0.1806 -0.5066 -0.2561
   15MOL   C15813626   2.180   2.758   6.134  0.0214  0.1550  0.1327
   15MOL   O15913627   2.135   2.835   6.219 -0.2116 -0.1873  0.2913
   15MOL   C16013628   2.183   2.609   6.167 -0.5902  0.2903 -0.1190
   15MOL   C16113629   2.291   2.528   6.093 -0.8538 -0.4501 -0.1621
   15MOL   C16213630   2.239   2.454   5.963  0.5932 -0.1998 -0.0438
   15MOL   C16313631   2.346   2.367   5.905 -0.1647  0.0769 -0.5078
   15MOL   C16413632   2.474   2.432   5.853  0.0846  0.1814 -0.3480
   15MOL   O16513633   2.579   2.371   5.877  0.2654 -0.3529 -0.3892
   15MOL   H16613634   2.381   3.237   4.963  0.7535 -0.1391  0.6531
   15MOL   H16713635   2.353   3.362   5.076  0.1300 -0.8512  0.9264
   15MOL   H16813636   2.172   3.139   4.987 -0.4100  1.1947 -0.3341
   15MOL   H16913637   2.114   3.281   5.088 -0.1988 -1.5466  0.5155
   15MOL   H17013638   2.324   3.082   5.148 -0.0663  1.2899 -2.5828
   15MOL   H17113639   2.316   3.233   5.227  0.4710 -1.1471  1.4473
   15MOL   H17213640   2.127   2.986   5.224 -0.0168 -0.4066  1.8629
   15MOL   H17313641   2.068   3.136   5.278  0.6665  0.9546  0.6590
   15MOL   H17413642   2.260   3.139   5.454  1.9114 -1.6689  0.6744
   15MOL   H17513643   2.317   2.988   5.378  0.1151 -0.8654  0.1282
   15MOL   H17613644   2.142   2.856   5.464 -1.2452 -0.4571  0.2233
   15MOL   H17713645   2.036   2.981   5.465  1.0835 -1.0139 -0.7085
   15MOL   H17813646   2.171   3.066   5.667  0.6326 -0.1672  0.9615
   15MOL   H17913647   2.273   2.917   5.666  0.0991  1.5904  0.7460
   15MOL   H18013648   2.085   2.794   5.737  2.0108  0.3453 -0.2936
   15MOL   H18113649   1.968   2.918   5.693  0.3255  2.1009  0.8241
   15MOL   H18213650   2.045   3.056   5.888  1.5838  1.1713 -2.4877
   15MOL   H18313651   1.987   2.905   5.935  0.2205 -0.8358 -0.6736
   15MOL   H18413652   2.210   2.989   6.039 -0.5446 -0.9429  0.2281
   15MOL   H18513653   2.293   2.946   5.905 -0.3162  0.3446 -1.4171
   15MOL   H18613654   2.205   2.617   6.274  1.8837  0.1511 -0.5889
   15MOL   H18713655   2.080   2.576   6.153 -0.5857 -1.4760  3.3599
   15MOL   H18813656   2.321   2.447   6.159  0.7897 -0.2609 -0.6511
   15MOL   H18913657   2.380   2.586   6.069 -0.0293 -1.3815  0.6366
   15MOL   H19013658   2.211   2.523   5.883  2.4205 -0.8914 -1.3109
   15MOL   H19113659   2.147   2.399   5.979 -0.4854  2.2292  2.8443
   15MOL   H19213660   2.308   2.321   5.814  2.6281  0.3618 -1.8894
   15MOL   H19313661   2.367   2.287   5.975 -2.7997  1.3161  1.8003
   15MOL   O19413662   2.461   2.547   5.794 -0.0472  0.4382 -0.0210
   15MOL   C19513663   2.579   2.622   5.769 -0.2648  0.5118  1.3188
   15MOL   C19613664   2.532   2.751   5.694  0.3287 -0.0779  0.4091
   15MOL   C19713665   2.640   2.823   5.619 -0.3999  0.4088 -0.1236
   15MOL   C19813666   2.729   2.885   5.726 -0.2339  0.2887  0.3987
   15MOL   C19913667   2.836   2.957   5.648  0.3166 -0.9817 -0.4140
   15MOL   C20013668   2.947   3.001   5.749  0.2160 -0.1739 -0.2007
   15MOL   C20113669   3.065   3.072   5.684 -0.5235  0.1728  0.0240
   15MOL   C20213670   3.170   3.134   5.785 -0.3267 -0.1622 -0.3337
   15MOL   C20313671   3.285   3.212   5.711 -0.1924 -0.1272  0.7128
   15MOL   C20413672   3.369   3.309   5.796  0.1155 -0.1738  0.2847
   15MOL   O20513673   3.297   3.419   5.844  0.5888  0.1526  0.1750
   15MOL   C20613674   3.271   3.521   5.765  0.0620  0.5198 -0.2867
   15MOL   O20713675   3.315   3.534   5.654  0.0499  1.0467  0.1485
   15MOL   C20813676   3.174   3.626   5.824  0.2778  0.0285  0.2021
   15MOL   C20913677   3.048   3.634   5.742 -0.1197 -0.6166  0.6818
   15MOL   C21013678   2.959   3.504   5.761  0.0351  0.8908  0.4475
   15MOL   C21113679   2.830   3.504   5.676 -0.1203 -0.6994  0.5032
   15MOL   C21213680   2.740   3.379   5.688 -0.3936  0.4420 -0.3609
   15MOL   O21313681   2.768   3.289   5.771  0.0568  0.3989  0.1407
   15MOL   H21413682   2.629   2.659   5.858 -0.9254  2.8170  0.7601
   15MOL   H21513683   2.652   2.561   5.715 -0.5558  1.9401 -0.7649
   15MOL   H21613684   2.491   2.813   5.775 -1.6047 -0.0623 -0.5510
   15MOL   H21713685   2.451   2.718   5.629  1.7984  0.4615 -1.7349
   15MOL   H21813686   2.682   2.759   5.542  1.0825  0.7248  0.4118
   15MOL   H21913687   2.586   2.897   5.559  0.0598  1.4873  0.7792
   15MOL   H22013688   2.781   2.813   5.789  0.8504  0.5791 -0.1553
   15MOL   H22113689   2.679   2.956   5.793  1.6399 -0.0656  2.2382
   15MOL   H22213690   2.796   3.041   5.590 -0.6616 -1.0384  0.1649
   15MOL   H22313691   2.885   2.879   5.590  1.1797 -0.3244 -0.5745
   15MOL   H22413692   2.977   2.927   5.823 -2.0875 -0.3415  0.6069
   15MOL   H22513693   2.916   3.085   5.810 -2.3724 -1.3024  0.0977
   15MOL   H22613694   3.030   3.159   5.628  1.5302  1.2515  0.3769
   15MOL   H22713695   3.121   3.009   5.615  0.0447  0.7865 -0.0826
   15MOL   H22813696   3.214   3.060   5.852 -1.4438 -0.6681 -0.1540
   15MOL   H22913697   3.119   3.204   5.850 -0.2873  1.6402 -2.1914
   15MOL   H23013698   3.343   3.133   5.662 -0.4165  0.7477 -1.0033
   15MOL   H23113699   3.246   3.268   5.626 -1.4964 -1.6317  0.2912
   15MOL   H23213700   3.450   3.348   5.735  0.8320  1.6035  2.2853
   15MOL   H23313701   3.414   3.264   5.885 -1.0356  1.3265  1.6677
   15MOL   H23413702   3.148   3.594   5.925 -1.4504 -0.5666 -0.4204
   15MOL   H23513703   3.219   3.722   5.851  0.0434 -0.0387  0.8431
   15MOL   H23613704   3.081   3.658   5.641 -1.2230  1.9109  0.8665
   15MOL   H23713705   2.999   3.724   5.780 -0.6880 -2.4479  4.5415
   15MOL   H23813706   2.938   3.492   5.868 -3.7909 -0.9207 -0.4210
   15MOL   H23913707   3.017   3.414   5.740  1.4441  2.0606 -0.7853
   15MOL   H24013708   2.855   3.518   5.571 -0.0526  0.6954  0.6979
   15MOL   H24113709   2.771   3.591   5.705  1.0258 -0.4794  2.2766
   15MOL   O24213710   2.640   3.392   5.599  0.2570  0.0089  0.0529
   15MOL   C24313711   2.549   3.282   5.578  0.0483 -0.0230  0.1784
   15MOL   C24413712   2.570   3.224   5.440 -0.6457  0.7400 -0.2330
   15MOL   C24513713   2.589   3.339   5.335  0.1013 -0.0187  0.1936
   15MOL   C24613714   2.643   3.307   5.195  0.0503  0.4661  0.4909
   15MOL   C24713715   2.661   3.427   5.093 -0.8868  0.6876 -0.4928
   15MOL   C24813716   2.690   3.385   4.951  0.4329  0.1753  0.3175
   15MOL   C24913717   2.674   3.498   4.854 -0.4175 -0.7973  0.2925
   15MOL   C25013718   2.724   3.468   4.710 -0.0839  0.1188 -0.5353
   15MOL   C25113719   2.713   3.585   4.621  0.8383  0.3781  0.2119
   15MOL   C25213720   2.806   3.571   4.495  0.0597 -1.1879  0.0834
   15MOL   O25313721   2.812   3.686   4.411  0.5101 -0.0026  0.1339
   15MOL   C25413722   2.708   3.727   4.340  0.4534 -0.3269  0.2100
   15MOL   O25513723   2.603   3.659   4.330  0.2726 -0.1453  0.6082
   15MOL   C25613724   2.713   3.877   4.299  0.4572 -0.0158  0.0793
   15MOL   C25713725   2.607   3.929   4.191  0.1205  0.3266  0.5781
   15MOL   C25813726   2.452   3.908   4.203  0.3303  0.1947  0.3764
   15MOL   C25913727   2.406   3.983   4.330 -0.2196 -0.0068  0.3841
   15MOL   C26013728   2.369   4.139   4.327  0.3651  0.8785  0.7894
   15MOL   O26113729   2.321   4.189   4.231 -0.2791  0.0771 -0.0384
   15MOL   H26213730   2.561   3.199   5.648 -3.0212  1.0586  2.0695
   15MOL   H26313731   2.441   3.297   5.585  0.2340  1.3673  0.1469
   15MOL   H26413732   2.501   3.146   5.409 -1.0043  1.1431 -0.4490
   15MOL   H26513733   2.668   3.179   5.457  0.0985  2.3297 -0.1674
   15MOL   H26613734   2.488   3.375   5.316 -0.1199 -1.1457 -0.8717
   15MOL   H26713735   2.657   3.416   5.371 -1.2653  0.5277  1.6740
   15MOL   H26813736   2.584   3.234   5.140 -0.4672  1.0300  0.2941
   15MOL   H26913737   2.738   3.254   5.204 -1.2254 -1.9591  0.0325
   15MOL   H27013738   2.738   3.497   5.121  0.5144 -1.4235  1.0605
   15MOL   H27113739   2.566   3.479   5.083 -1.3626 -0.0271  0.2623
   15MOL   H27213740   2.618   3.312   4.916 -0.8467  2.3024 -1.6268
   15MOL   H27313741   2.785   3.335   4.931 -0.4408 -2.0053  1.5495
   15MOL   H27413742   2.740   3.575   4.895 -2.2254  1.2341 -0.5341
   15MOL   H27513743   2.575   3.542   4.852 -1.1908 -2.4896  0.1491
   15MOL   H27613744   2.672   3.386   4.661 -1.7710  0.0021  1.3472
   15MOL   H27713745   2.826   3.434   4.724 -0.4803 -0.8754  0.0330
   15MOL   H27813746   2.606   3.593   4.599  0.5992 -2.8568  0.0584
   15MOL   H27913747   2.741   3.676   4.674 -1.6519  0.4692  1.4450
   15MOL   H28013748   2.761   3.485   4.445 -3.6767 -1.3336  3.4761
   15MOL   H28113749   2.908   3.549   4.526  0.0003  2.1745  2.9753
   15MOL   H28213750   2.720   3.933   4.392 -0.4180 -0.8450  0.6511
   15MOL   H28313751   2.806   3.899   4.246  0.9542 -1.6324  0.2734
   15MOL   H28413752   2.637   3.905   4.089 -1.7713 -1.2682  0.3773
   15MOL   H28513753   2.618   4.038   4.197  0.8757  0.3123 -0.4243
   15MOL   H28613754   2.433   3.801   4.195  1.6217 -0.0382  0.2946
   15MOL   H28713755   2.400   3.955   4.119 -0.6728 -2.2776 -0.4180
   15MOL   H28813756   2.492   3.971   4.396 -0.5951  1.8612  1.2403
   15MOL   H28913757   2.328   3.925   4.379 -0.6838 -0.0574 -0.4110
   15MOL   O29013758   2.388   4.200   4.446 -0.2588  0.3273  0.8812
   15MOL   C29113759   2.371   4.339   4.462 -0.2261  0.0539  0.2264
   15MOL   C29213760   2.277   4.369   4.577  0.1687  0.2150 -0.2034
   15MOL   C29313761   2.321   4.318   4.710  0.4712  0.2860 -0.1598
   15MOL   C29413762   2.224   4.353   4.826 -0.1876 -0.0645 -0.3980
   15MOL   C29513763   2.237   4.267   4.950 -0.4026  0.0943 -0.1138
   15MOL   C29613764   2.147   4.313   5.073  0.4199 -0.1186  0.2625
   15MOL   C29713765   2.136   4.222   5.197 -0.4153 -0.5557  0.0206
   15MOL   C29813766   2.077   4.081   5.165  0.2998  0.1574  0.0064
   15MOL   C29913767   2.038   4.001   5.287 -0.0476 -0.6711  0.4481
   15MOL   C30013768   1.925   3.895   5.268 -0.1711  0.1000  0.3732
   15MOL   O30113769   1.907   3.825   5.387  0.0381  0.4621 -0.4772
   15MOL   C30213770   1.800   3.850   5.473  0.3242  0.3698 -1.1447
   15MOL   O30313771   1.720   3.941   5.466 -0.0538  0.4488  0.2174
   15MOL   C30413772   1.810   3.753   5.592  0.2256  0.5949 -0.0560
   15MOL   C30513773   1.841   3.817   5.732  0.7387  0.3554  0.9965
   15MOL   C30613774   1.901   3.717   5.831 -0.3213  0.2899  0.2892
   15MOL   C30713775   1.948   3.795   5.953 -0.7885 -0.2204  0.2103
   15MOL   C30813776   1.958   3.708   6.071  0.1112  0.6119 -0.0284
   15MOL   O30913777   2.063   3.662   6.115  0.2731 -0.2875 -0.3915
   15MOL   H31013778   2.467   4.390   4.474 -0.2949 -0.0767  1.3550
   15MOL   H31113779   2.332   4.390   4.373  2.1644  1.6050 -0.0037
   15MOL   H31213780   2.178   4.335   4.546  0.0730 -0.3448  0.7100
   15MOL   H31313781   2.256   4.474   4.597  1.8108  0.7681 -1.2600
   15MOL   H31413782   2.320   4.210   4.700 -1.3927  0.2533  0.2758
   15MOL   H31513783   2.419   4.354   4.742  1.9899 -3.6867 -0.1666
   15MOL   H31613784   2.122   4.367   4.790 -0.1997  1.2540  0.1304
   15MOL   H31713785   2.270   4.448   4.853 -1.7866  0.8832 -0.9737
   15MOL   H31813786   2.342   4.250   4.974 -0.4560 -1.4489 -0.9101
   15MOL   H31913787   2.213   4.167   4.914 -4.1226  0.6502  0.6327
   15MOL   H32013788   2.050   4.333   5.029  1.3543  1.6866 -1.0502
   15MOL   H32113789   2.175   4.415   5.100 -1.8409  0.1728  1.5467
   15MOL   H32213790   2.069   4.270   5.268 -1.9774 -1.2410 -0.9418
   15MOL   H32313791   2.233   4.216   5.245 -0.8502 -1.2698  0.8252
   15MOL   H32413792   2.140   4.024   5.097 -1.3320  0.1252 -1.5429
   15MOL   H32513793   1.991   4.112   5.105  0.5052  1.5115  0.3829
   15MOL   H32613794   2.123   3.959   5.341 -0.4295 -1.0061  0.7825
   15MOL   H32713795   2.002   4.068   5.365 -0.4946 -1.7299  1.1589
   15MOL   H32813796   1.962   3.824   5.194  0.4945  0.0086  0.7943
   15MOL   H32913797   1.834   3.940   5.227  0.1684  2.2095  1.8659
   15MOL   H33013798   1.710   3.711   5.596 -0.1293  1.4845  0.6013
   15MOL   H33113799   1.871   3.666   5.566 -2.5611 -1.4300 -0.0213
   15MOL   H33213800   1.747   3.858   5.768 -1.7378  0.3162 -4.8964
   15MOL   H33313801   1.902   3.907   5.721  2.6612 -0.9736  0.6114
   15MOL   H33413802   1.981   3.665   5.778  1.2622  1.4614  1.4471
   15MOL   H33513803   1.825   3.649   5.869  1.8668 -2.6958 -0.4739
   15MOL   H33613804   1.873   3.874   5.966  0.9930  1.6073 -0.4351
   15MOL   H33713805   2.044   3.844   5.936 -0.6700  0.0934  1.7048
   15MOL   O33813806   1.838   3.668   6.121  0.0512 -0.3387  0.0277
   15MOL   C33913807   1.824   3.602   6.251  0.4779  0.0358 -0.3586
   15MOL   C34013808   1.680   3.568   6.278  0.2292 -0.0547  0.7211
   15MOL   C34113809   1.665   3.482   6.404  0.7351 -0.0162 -0.6000
   15MOL   C34213810   1.522   3.425   6.407 -0.3318 -0.2004 -0.5731
   15MOL   C34313811   1.478   3.326   6.295 -0.1982 -0.3986 -0.5386
   15MOL   C34413812   1.334   3.277   6.321  0.2114 -0.0812 -0.4288
   15MOL   C34513813   1.283   3.176   6.215 -0.8747  0.1904 -0.3802
   15MOL   C34613814   1.138   3.137   6.246  0.1397 -0.2398  0.0687
   15MOL   C34713815   1.044   3.265   6.214  0.4356  0.3312  0.3668
   15MOL   C34813816   0.895   3.228   6.214 -0.1925  0.4618  0.5907
   15MOL   O34913817   0.846   3.224   6.343 -0.2854  0.1128  0.1250
   15MOL   C35013818   0.726   3.167   6.386  0.9120  0.6450 -0.1274
   15MOL   O35113819   0.629   3.151   6.317  0.2253 -0.2768 -0.1649
   15MOL   C35213820   0.703   3.156   6.537  0.1886  0.3166 -0.9385
   15MOL   C35313821   0.694   3.006   6.583 -0.6868 -0.6059  0.0464
   15MOL   C35413822   0.820   2.930   6.576 -0.5611 -0.2570  0.2358
   15MOL   C35513823   0.910   2.929   6.703  0.1082 -0.5290 -0.9151
   15MOL   C35613824   0.975   3.066   6.735  0.2219  1.2394  0.6907
   15MOL   O35713825   0.947   3.128   6.832 -0.0627 -0.5605 -0.0059
   15MOL   H35813826   1.880   3.508   6.244  0.7100  0.1552 -0.1327
   15MOL   H35913827   1.873   3.662   6.328  0.1158 -0.4578  0.2548
   15MOL   H36013828   1.630   3.538   6.186  0.0987 -2.1588  1.4472
   15MOL   H36113829   1.630   3.664   6.290  2.4417  0.9129  2.4743
   15MOL   H36213830   1.726   3.394   6.381 -0.7158 -1.1265 -0.2658
   15MOL   H36313831   1.697   3.524   6.499  1.1958  1.4728 -1.4095
   15MOL   H36413832   1.452   3.509   6.412  0.0601  0.2140 -1.9979
   15MOL   H36513833   1.508   3.384   6.507  0.3269  0.9080 -0.0133
   15MOL   H36613834   1.544   3.240   6.287 -0.1893 -0.5132  0.6436
   15MOL   H36713835   1.475   3.381   6.201 -2.4201  0.0430 -0.2492
   15MOL   H36813836   1.276   3.369   6.316 -1.0368 -0.7082  1.4594
   15MOL   H36913837   1.321   3.231   6.419  1.3438 -0.9583 -0.6879
   15MOL   H37013838   1.336   3.083   6.230  1.0250  1.1203 -1.1360
   15MOL   H37113839   1.299   3.201   6.110  2.2314 -0.9064 -0.2060
   15MOL   H37213840   1.134   3.112   6.351 -1.3294 -1.7731 -0.3391
   15MOL   H37313841   1.115   3.046   6.191 -1.5000  0.8638 -1.1385
   15MOL   H37413842   1.065   3.354   6.274 -1.4528  1.2431 -0.2926
   15MOL   H37513843   1.068   3.301   6.114  0.0162 -0.7995 -0.1433
   15MOL   H37613844   0.866   3.135   6.164 -0.5423  1.4148 -1.0446
   15MOL   H37713845   0.833   3.304   6.165 -0.7848 -0.8103 -0.6822
   15MOL   H37813846   0.777   3.207   6.598 -1.4211  0.9675  0.5130
   15MOL   H37913847   0.609   3.205   6.562 -0.8342 -2.2995  0.4791
   15MOL   H38013848   0.631   2.965   6.504 -0.8368 -0.9281  0.3278
   15MOL   H38113849   0.640   2.989   6.677  0.4396  0.5775  0.9231
   15MOL   H38213850   0.880   2.949   6.487  0.4313 -2.4074  0.4126
   15MOL   H38313851   0.796   2.825   6.556 -1.8772 -0.1767  1.2821
   15MOL   H38413852   0.986   2.851   6.706  1.3793  0.7430  1.0571
   15MOL   H38513853   0.846   2.903   6.788  0.5081  0.8086 -0.2004
   15MOL   O38613854   1.068   3.096   6.639  0.2175  0.0448  0.2105
   15MOL   C38713855   1.167   3.185   6.682 -0.7816  0.4684 -0.2080
   15MOL   C38813856   1.149   3.321   6.607 -0.2700 -0.3367  0.2245
   15MOL   C38913857   1.052   3.423   6.673  0.1475 -0.2020  0.0741
   15MOL   C39013858   1.044   3.542   6.581 -0.0177 -0.2018 -0.5155
   15MOL   C39113859   0.934   3.647   6.623  0.6423 -0.6200  0.1465
   15MOL   C39213860   0.938   3.767   6.539  0.4166 -0.2897 -0.3323
   15MOL   C39313861   1.028   3.873   6.593  0.1524  0.3295  0.1574
   15MOL   C39413862   1.050   3.986   6.501  0.5413  0.1990 -0.2148
   15MOL   C39513863   1.159   4.095   6.547  0.1030  0.2915  0.3250
   15MOL   C39613864   1.147   4.222   6.471 -0.0147 -0.2433  0.3350
   15MOL   O39713865   1.200   4.203   6.338  0.0553  0.2729  0.1654
   15MOL   C39813866   1.171   4.287   6.231  0.1932 -0.0034  0.8761
   15MOL   O39913867   1.132   4.404   6.250  0.2579 -0.3000  0.0594
   15MOL   C40013868   1.181   4.214   6.098 -0.9827  0.0930 -0.3478
   15MOL   C40113869   1.311   4.140   6.065 -0.5374 -0.7696 -0.6681
   15MOL   C40213870   1.438   4.217   6.056 -0.4955  0.1028 -0.1208
   15MOL   C40313871   1.567   4.145   6.003  0.1286  0.1878  0.4170
   15MOL   C40413872   1.626   4.028   6.085  0.0748 -0.3862 -0.0457
   15MOL   O40513873   1.606   3.913   6.054 -0.0259  0.3591  0.3541
   15MOL   H40613874   1.166   3.209   6.788 -1.7997  1.2623 -0.3869
   15MOL   H40713875   1.264   3.139   6.661 -1.0688  0.6536 -1.9989
   15MOL   H40813876   1.117   3.294   6.506  0.5381  0.6188 -0.2909
   15MOL   H40913877   1.243   3.376   6.606  2.2586 -4.4559 -1.1452
   15MOL   H41013878   0.958   3.370   6.684 -0.2637  0.6391  0.5890
   15MOL   H41113879   1.095   3.443   6.771  0.2614  1.7166 -0.3495
   15MOL   H41213880   1.033   3.514   6.476 -1.1370 -2.3192  0.1307
   15MOL   H41313881   1.140   3.593   6.590  0.9376 -2.4103  2.7830
   15MOL   H41413882   0.940   3.672   6.729 -1.5513 -2.2250  0.6905
   15MOL   H41513883   0.834   3.605   6.610  0.7100 -0.0973 -2.3200
   15MOL   H41613884   0.834   3.799   6.537  1.8124  4.8110  1.3020
   15MOL   H41713885   0.950   3.748   6.432  1.6176 -0.6493 -0.1422
   15MOL   H41813886   1.123   3.824   6.609  0.0759  0.0052 -0.3638
   15MOL   H41913887   1.003   3.919   6.689 -0.7037  1.9145 -0.8000
   15MOL   H42013888   0.951   4.031   6.487  0.5471 -0.3652 -2.3757
   15MOL   H42113889   1.085   3.956   6.402  1.1625  1.5859 -0.4249
   15MOL   H42213890   1.142   4.122   6.651 -3.1401 -0.7066  0.1158
   15MOL   H42313891   1.256   4.053   6.521 -0.2155 -0.6692  0.6730
   15MOL   H42413892   1.191   4.306   6.525  1.0940  0.2939 -1.3674
   15MOL   H42513893   1.044   4.256   6.466  0.7731  2.1763  0.1382
   15MOL   H42613894   1.109   4.132   6.097 -2.7094  1.5454  0.7293
   15MOL   H42713895   1.149   4.281   6.018  2.0572  2.2070  0.1492
   15MOL   H42813896   1.305   4.071   5.981 -1.2578 -2.5044  0.7668
   15MOL   H42913897   1.330   4.078   6.153 -0.2884 -0.2768 -0.3693
   15MOL   H43013898   1.444   4.259   6.157 -0.1419  0.8118 -0.4320
   15MOL   H43113899   1.433   4.308   5.995  0.1511 -0.1981 -0.6306
   15MOL   H43213900   1.642   4.224   6.001 -1.3895  1.6443  0.1555
   15MOL   H43313901   1.557   4.119   5.898 -1.4268  0.4593  0.4891
   15MOL   O43413902   1.695   4.081   6.183 -0.0471 -0.1300 -0.2965
   15MOL   C43513903   1.767   3.991   6.264  0.0890 -0.1051  0.0202
   15MOL   C43613904   1.895   4.068   6.303  0.5390 -0.1149  0.2095
   15MOL   C43713905   1.999   4.088   6.185  0.2130 -0.5486 -0.0011
   15MOL   C43813906   2.102   4.199   6.212 -0.5865 -0.0880 -0.2936
   15MOL   C43913907   2.220   4.203   6.114  0.8635 -0.2755  0.5526
   15MOL   C44013908   2.316   4.326   6.122 -0.1287  0.2436  0.5230
   15MOL   C44113909   2.435   4.312   6.028  0.7715  0.2763  0.1484
   15MOL   C44213910   2.522   4.436   6.020 -0.2530 -0.5212 -0.4523
   15MOL   C44313911   2.597   4.437   5.888  0.2489  1.0022 -0.8078
   15MOL   C44413912   2.710   4.532   5.861  0.7794  0.2908 -0.2849
   15MOL   O44513913   2.800   4.497   5.754 -0.4091 -0.1914  0.2431
   15MOL   C44613914   2.821   4.580   5.648 -0.9072 -0.8047 -0.3111
   15MOL   O44713915   2.781   4.694   5.626 -0.5054 -0.6217  0.6209
   15MOL   C44813916   2.922   4.513   5.553  0.7102 -0.7308  0.3654
   15MOL   C44913917   2.965   4.590   5.424  0.0908  0.0471 -0.1071
   15MOL   C45013918   2.878   4.553   5.297 -0.1287  0.6229  0.3215
   15MOL   C45113919   2.930   4.623   5.167  0.3141  1.1404 -1.0040
   15MOL   C45213920   2.921   4.779   5.171 -0.5354 -0.1590  0.1424
   15MOL   O45313921   3.024   4.843   5.149  0.1271 -0.2185  0.7026
   15MOL   H45413922   1.705   3.981   6.353 -0.5562 -2.0302 -0.6314
   15MOL   H45513923   1.790   3.892   6.225 -0.2309 -0.3959  0.5609
   15MOL   H45613924   1.949   4.027   6.388  1.6960  1.3435  0.2051
   15MOL   H45713925   1.868   4.166   6.343  1.8777 -0.4529  1.9733
   15MOL   H45813926   2.037   3.986   6.182 -0.3124 -0.7271 -1.0303
   15MOL   H45913927   1.947   4.105   6.090  0.1339 -1.7222 -0.1778
   15MOL   H46013928   2.132   4.170   6.313 -0.7638  0.6816 -0.0185
   15MOL   H46113929   2.047   4.293   6.217 -1.1248 -0.4117 -0.1241
   15MOL   H46213930   2.188   4.184   6.012  2.4009 -0.9906  0.1851
   15MOL   H46313931   2.279   4.114   6.139  0.3426 -1.6192 -2.7703
   15MOL   H46413932   2.352   4.341   6.224 -0.1958  0.2329  0.5491
   15MOL   H46513933   2.262   4.419   6.102 -3.0369 -1.4055  0.3000
   15MOL   H46613934   2.402   4.290   5.927 -1.8909  0.1316  1.0207
   15MOL   H46713935   2.490   4.222   6.057  1.1713  0.2104 -0.7919
   15MOL   H46813936   2.595   4.419   6.099  0.5411 -1.4477 -1.3605
   15MOL   H46913937   2.465   4.528   6.032 -0.9549 -0.8795 -0.9566
   15MOL   H47013938   2.659   4.347   5.883  0.8843  1.4911 -1.9367
   15MOL   H47113939   2.537   4.448   5.798 -2.3197  1.6001  0.9228
   15MOL   H47213940   2.772   4.519   5.949  1.1033 -0.3972 -0.6077
   15MOL   H47313941   2.671   4.634   5.868  1.5221  0.4645  1.6414
   15MOL   H47413942   3.012   4.507   5.614 -0.3546  1.1622  2.1926
   15MOL   H47513943   2.876   4.419   5.526 -2.2457  0.7490  0.0808
   15MOL   H47613944   3.070   4.562   5.408  0.5284  0.6707  1.5932
   15MOL   H47713945   2.964   4.698   5.436 -1.5128 -0.0824  1.0964
   15MOL   H47813946   2.773   4.570   5.318 -0.4823  1.1584 -1.8038
   15MOL   H47913947   2.890   4.444   5.295  0.8681  0.6597  2.6454
   15MOL   H48013948   2.871   4.602   5.077 -0.5830  0.1413 -0.1862
   15MOL   H48113949   3.029   4.589   5.138 -0.5637 -1.4109 -1.1867
   15MOL   O48213950   2.804   4.830   5.189  0.6930 -0.3005 -0.5514
   15MOL   C48313951   2.785   4.972   5.174 -0.5824  0.4131 -0.2057
   15MOL   C48413952   2.781   5.017   5.030  0.1616  0.0915  0.5591
   15MOL   C48513953   2.642   5.005   4.961 -0.4766 -0.3299  0.5405
   15MOL   C48613954   2.530   5.092   5.018  0.3286 -0.4312  0.1658
   15MOL   C48713955   2.407   5.076   4.937  0.8085  0.2178  0.6461
   15MOL   C48813956   2.293   5.166   4.988  0.4344 -0.6792  0.5177
   15MOL   C48913957   2.180   5.187   4.883  0.1184 -0.1555  0.2263
   15MOL   C49013958   2.057   5.257   4.943 -0.3918  0.0192 -1.0664
   15MOL   C49113959   1.949   5.279   4.837 -0.6698 -0.4055 -0.6129
   15MOL   C49213960   1.879   5.149   4.796 -0.1403 -0.4451  0.1394
   15MOL   O49313961   1.837   5.085   4.915  0.4984 -0.0707  0.1799
   15MOL   C49413962   1.763   4.971   4.904  1.0878  0.0784  0.3151
   15MOL   O49513963   1.748   4.917   4.791 -0.0858 -0.1790 -0.0463
   15MOL   C49613964   1.741   4.899   5.037 -0.5418  0.1666  0.0229
   15MOL   C49713965   1.655   4.988   5.126 -0.4355 -0.1885 -0.1292
   15MOL   C49813966   1.505   5.011   5.081  0.3682  0.0821 -0.7256
   15MOL   C49913967   1.420   5.059   5.198  1.0935 -0.8178 -0.0569
   15MOL   C50013968   1.271   5.084   5.170 -0.2184 -0.9525  0.3416
   15MOL   O50113969   1.219   5.175   5.230 -0.0434 -0.4966  0.0835
   15MOL   H50213970   2.695   5.005   5.226 -0.4479 -0.2202  0.4370
   15MOL   H50313971   2.866   5.015   5.234 -0.9860  2.7434 -1.2385
   15MOL   H50413972   2.854   4.969   4.966 -0.2420  2.3442 -1.6677
   15MOL   H50513973   2.825   5.117   5.031  2.3177 -0.8370 -0.0904
   15MOL   H50613974   2.653   5.010   4.853 -3.9229 -0.8133  0.0932
   15MOL   H50713975   2.612   4.900   4.959  2.0867 -1.1039  1.2111
   15MOL   H50813976   2.559   5.197   5.019 -1.5105  0.0890  1.0000
   15MOL   H50913977   2.506   5.061   5.120 -0.4224  0.3708  0.2366
   15MOL   H51013978   2.366   4.975   4.937 -0.6269  0.7849  1.3613
   15MOL   H51113979   2.415   5.086   4.829 -2.1878 -0.2786  0.3306
   15MOL   H51213980   2.338   5.263   5.005  0.3898 -0.4651 -0.5691
   15MOL   H51313981   2.260   5.124   5.083  2.1610 -1.0328  0.9729
   15MOL   H51413982   2.164   5.091   4.833  0.0496 -0.9569  1.7525
   15MOL   H51513983   2.217   5.243   4.797 -2.4026  0.2292 -0.6537
   15MOL   H51613984   2.085   5.359   4.969  1.5296 -0.8422  0.3991
   15MOL   H51713985   2.025   5.211   5.037  1.7243 -0.8324 -0.7344
   15MOL   H51813986   1.889   5.363   4.869  0.3555 -0.1223  0.6407
   15MOL   H51913987   1.998   5.311   4.746  0.1556  1.8338  0.5847
   15MOL   H52013988   1.941   5.076   4.744  0.3567 -0.7120  1.0970
   15MOL   H52113989   1.788   5.165   4.738 -1.2844 -0.7420  1.8326
   15MOL   H52213990   1.688   4.805   5.026  1.0665 -0.5128 -2.1604
   15MOL   H52313991   1.829   4.869   5.093 -1.7499  0.8481  2.3193
   15MOL   H52413992   1.699   5.087   5.140 -1.0745 -0.1086  1.3954
   15MOL   H52513993   1.650   4.945   5.226  1.2610  0.1147  0.1004
   15MOL   H52613994   1.472   4.911   5.055 -0.7815  0.1712  0.3195
   15MOL   H52713995   1.493   5.078   4.996  0.3671  3.2667  1.6710
   15MOL   H52813996   1.470   5.154   5.220  0.6862 -0.5747 -0.1649
   15MOL   H52913997   1.410   4.997   5.286 -4.3735 -0.1572 -0.0332
   15MOL   O53013998   1.213   4.991   5.092  0.0899  0.1953 -0.7111
   15MOL   C53113999   1.076   5.003   5.065 -0.4457  0.1288  0.2534
   15MOL   C53214000   1.064   5.108   4.950 -0.6989  0.1657  0.6963
   15MOL   C53314001   0.923   5.162   4.913 -0.2577 -0.3409 -0.0562
   15MOL   C53414002   0.918   5.253   4.786  0.3144 -0.8881  0.6678
   15MOL   C53514003   0.779   5.308   4.756 -0.7564  0.4843  0.2175
   15MOL   C53614004   0.799   5.420   4.651 -0.1929  0.0430  0.5459
   15MOL   C53714005   0.821   5.554   4.717  0.0507 -0.6978  0.6908
   15MOL   C53814006   0.831   5.682   4.628 -0.4348  1.2746  0.0641
   15MOL   C53914007   0.843   5.806   4.721 -0.1381  0.5662  0.5359
   15MOL   C54014008   0.833   5.942   4.650 -0.0116 -0.3266  0.2482
   15MOL   O54114009   0.716   5.964   4.573  0.8666  0.2886  0.4098
   15MOL   C54214010   0.690   6.075   4.503  0.0897  0.7095 -0.3155
   15MOL   O54314011   0.767   6.168   4.490  0.1544 -0.4358 -0.0226
   15MOL   C54414012   0.545   6.081   4.452 -0.0656 -0.0153  0.2551
   15MOL   C54514013   0.498   5.949   4.387 -0.0466 -0.2687 -0.4383
   15MOL   C54614014   0.594   5.910   4.269  0.0219 -0.4061  0.4311
   15MOL   C54714015   0.538   5.792   4.184  0.4580  0.4927 -0.4153
   15MOL   C54814016   0.547   5.648   4.253 -0.3697  0.3299 -0.3136
   15MOL   O54914017   0.465   5.614   4.338  0.3319  0.8764 -0.8561
   15MOL   H55014018   1.049   4.906   5.023  0.4554 -0.0802  0.1535
   15MOL   H55114019   1.007   5.011   5.149  1.0357 -2.1499  1.7390
   15MOL   H55214020   1.121   5.071   4.864 -0.4414 -1.6483  1.6080
   15MOL   H55314021   1.111   5.198   4.988  1.8892 -0.1889 -1.4547
   15MOL   H55414022   0.866   5.072   4.893  0.9541 -0.9404 -0.8359
   15MOL   H55514023   0.875   5.209   4.999  0.1168  0.8814 -0.5007
   15MOL   H55614024   0.952   5.195   4.700  0.2929 -0.8245  0.6172
   15MOL   H55714025   0.979   5.342   4.802  0.0823 -0.3653 -1.2594
   15MOL   H55814026   0.724   5.345   4.842 -0.3747  4.3509 -1.1415
   15MOL   H55914027   0.726   5.219   4.721 -0.1175 -0.4863  1.6462
   15MOL   H56014028   0.708   5.426   4.591  0.3215 -1.4196 -0.4242
   15MOL   H56114029   0.875   5.409   4.574 -0.1875 -0.5661  0.6334
   15MOL   H56214030   0.912   5.555   4.776  0.8304  0.7611 -0.4833
   15MOL   H56314031   0.740   5.586   4.783  1.6951  0.8927  1.9919
   15MOL   H56414032   0.751   5.704   4.556  2.4049  1.5159 -3.1371
   15MOL   H56514033   0.908   5.669   4.552 -1.5618 -1.5136 -0.6521
   15MOL   H56614034   0.760   5.799   4.792 -0.1595  0.7960  0.5332
   15MOL   H56714035   0.935   5.805   4.779 -0.9190 -0.4010  1.7869
   15MOL   H56814036   0.904   5.946   4.566 -1.9744 -0.6266 -1.4680
   15MOL   H56914037   0.846   6.026   4.717 -1.0125  0.0784 -0.0590
   15MOL   H57014038   0.501   6.098   4.550 -0.0017 -1.2958  0.5251
   15MOL   H57114039   0.527   6.164   4.384  1.1508  1.1352  1.3300
   15MOL   H57214040   0.391   5.959   4.368  0.2346  0.2331 -1.8115
   15MOL   H57314041   0.497   5.865   4.456  1.9374 -0.8557 -1.0847
   15MOL   H57414042   0.690   5.866   4.297  0.8764  1.3475  0.3710
   15MOL   H57514043   0.613   5.996   4.205  0.9464  0.5565  1.9686
   15MOL   H57614044   0.584   5.783   4.086  0.2675 -0.7605 -0.4015
   15MOL   H57714045   0.433   5.820   4.172  0.4695 -0.2564 -2.4675
   15MOL   O57814046   0.657   5.577   4.212  0.2341 -0.2171 -0.4857
   15MOL   C57914047   0.688   5.449   4.261 -0.3254  0.5894 -0.3195
   15MOL   C58014048   0.804   5.391   4.195  0.4573  0.2579  0.4006
   15MOL   C58114049   0.935   5.452   4.241  1.1877 -0.3278  0.9917
   15MOL   C58214050   1.053   5.422   4.148 -0.3187 -0.5914  0.3030
   15MOL   C58314051   1.056   5.507   4.022  0.2849 -0.1353 -0.3438
   15MOL   C58414052   1.200   5.496   3.950  0.4098 -0.6955  0.4320
   15MOL   C58514053   1.197   5.582   3.819  0.3806 -0.1538  0.5780
   15MOL   C58614054   1.220   5.730   3.828 -0.0588 -1.0698  0.3359
   15MOL   C58714055   1.198   5.800   3.690  0.2028 -1.0933  0.1331
   15MOL   C58814056   1.209   5.959   3.697 -0.7418  0.4218  0.1778
   15MOL   O58914057   1.084   6.009   3.744  0.2423 -0.5000 -0.9231
   15MOL   C59014058   0.991   6.043   3.658  0.5005  0.0302  1.5739
   15MOL   O59114059   1.007   6.034   3.530  0.6111 -0.1891  0.3654
   15MOL   C59214060   0.867   6.094   3.721  0.8325  0.1003 -0.0794
   15MOL   C59314061   0.758   5.979   3.757 -0.5170  0.0700  1.1395
   15MOL   C59414062   0.805   5.885   3.870 -0.0846 -0.0178 -0.3650
   15MOL   C59514063   0.823   5.735   3.835  0.4074  0.2813  0.0927
   15MOL   C59614064   0.696   5.653   3.817  0.5855 -0.6653 -0.3424
   15MOL   O59714065   0.636   5.593   3.913  0.5202  0.0369  0.0546
   15MOL   H59814066   0.710   5.475   4.364 -1.8762 -0.8974  0.4171
   15MOL   H59914067   0.602   5.382   4.272 -1.3137  2.1927  2.1826
   15MOL   H60014068   0.808   5.398   4.086 -0.7770  1.1216  0.3959
   15MOL   H60114069   0.816   5.291   4.234  2.3945  0.6565  0.8509
   15MOL   H60214070   0.924   5.559   4.255 -0.3056 -0.0567 -1.9456
   15MOL   H60314071   0.961   5.406   4.337 -0.3111 -1.1786  0.9972
   15MOL   H60414072   1.055   5.314   4.132 -0.0407 -0.2723 -2.0890
   15MOL   H60514073   1.129   5.451   4.220 -0.6874 -0.1592  0.5192
   15MOL   H60614074   1.038   5.610   4.052 -0.2682 -0.0507 -0.9664
   15MOL   H60714075   0.976   5.464   3.962 -1.3533  1.4626  0.6623
   15MOL   H60814076   1.213   5.391   3.924 -0.4256 -0.3508 -1.4206
   15MOL   H60914077   1.278   5.544   4.009  1.8218  0.6652 -2.4782
   15MOL   H61014078   1.103   5.561   3.767 -0.7912  1.9435  1.8118
   15MOL   H61114079   1.263   5.531   3.749 -0.2949  2.6958 -2.2966
   15MOL   H61214080   1.317   5.760   3.868 -0.8101 -0.2596  1.5941
   15MOL   H61314081   1.152   5.765   3.906  0.5809 -1.4692  1.0821
   15MOL   H61414082   1.275   5.772   3.619  0.5983 -1.1882  0.5932
   15MOL   H61514083   1.099   5.771   3.655  0.8278 -1.3365 -1.4321
   15MOL   H61614084   1.235   5.998   3.599 -0.4304 -1.6568 -0.5968
   15MOL   H61714085   1.276   5.987   3.778  0.6739 -1.3708 -0.3409
   15MOL   H61814086   0.888   6.141   3.816 -0.8121 -1.1393  0.9437
   15MOL   H61914087   0.813   6.174   3.672  0.7247  0.6015  0.8488
   15MOL   H62014088   0.717   5.924   3.672  0.8571 -1.6788  1.5851
   15MOL   H62114089   0.675   6.022   3.813 -0.1004  1.1720  0.9156
   15MOL   H62214090   0.739   5.900   3.955  1.2511  1.7319  0.3822
   15MOL   H62314091   0.901   5.921   3.908 -0.1139  0.2598 -0.5548
   15MOL   H62414092   0.885   5.698   3.917  1.1759 -0.0029 -0.6153
   15MOL   H62514093   0.879   5.715   3.744  0.4665 -1.2154  0.4393
   15MOL   O62614094   0.660   5.631   3.688 -0.0487  0.0490 -0.4919
   15MOL   C62714095   0.558   5.545   3.655  0.2903  0.1086  0.8147
   15MOL   C62814096   0.423   5.628   3.622 -0.1881  0.1876  0.0200
   15MOL   C62914097   0.347   5.681   3.747  0.1655  0.2865 -0.3365
   15MOL   C63014098   0.294   5.557   3.829  0.1860 -0.2868  0.0788
   15MOL   C63114099   0.211   5.605   3.946  0.5297  0.6936  0.3331
   15MOL   C63214100   0.153   5.482   4.018  0.4136  0.0136 -0.3636
   15MOL   C63314101   0.245   5.432   4.133 -0.4515 -0.3894 -0.0044
   15MOL   C63414102   0.191   5.333   4.230 -0.3041  0.3494  0.4904
   15MOL   C63514103   0.301   5.266   4.312 -0.9463  0.3116 -0.4532
   15MOL   C63614104   0.244   5.165   4.414  0.0954 -0.1776 -0.3294
   15MOL   O63714105   0.189   5.053   4.336 -0.0620 -0.6345  0.1756
   15MOL   C63814106   0.087   4.980   4.371 -0.1952  0.1644 -0.3786
   15MOL   O63914107   0.025   4.993   4.476  0.1352  0.4689  0.2032
   15MOL   C64014108   0.045   4.882   4.260 -0.0765  0.0389  0.2839
   15MOL   C64114109   0.029   4.945   4.117 -0.1627  0.2643 -0.2139
   15MOL   C64214110   7.689   5.057   4.093  0.2438 -0.4670  0.1853
   15MOL   C64314111   7.691   5.098   3.945  0.0990 -0.3504  0.5278
   15MOL   C64414112   7.632   5.234   3.923 -0.3634 -0.4722  0.1751
   15MOL   O64514113   7.556   5.295   3.996  0.4463  0.4262 -0.3120
   15MOL   H64614114   0.574   5.493   3.561 -0.9816 -0.4220  0.8801
   15MOL   H64714115   0.532   5.464   3.723 -1.2890  0.7869  1.0443
   15MOL   H64814116   0.365   5.554   3.566 -0.2237 -0.6273  1.1052
   15MOL   H64914117   0.444   5.714   3.558 -2.4310  0.7216 -0.0437
   15MOL   H65014118   0.432   5.727   3.797 -1.0275  1.6299  0.5107
   15MOL   H65114119   0.266   5.745   3.711 -0.0097 -0.2260 -0.8673
   15MOL   H65214120   0.379   5.492   3.851  0.4303  0.2805  0.8333
   15MOL   H65314121   0.229   5.492   3.772 -1.2010  0.5426  0.7028
   15MOL   H65414122   0.127   5.659   3.902  2.0277  1.9120 -1.0647
   15MOL   H65514123   0.262   5.675   4.012  0.0177  1.6704 -0.2871
   15MOL   H65614124   0.132   5.398   3.952  1.6908 -0.2075 -0.5094
   15MOL   H65714125   0.057   5.511   4.061 -0.0046 -0.0155 -1.2849
   15MOL   H65814126   0.271   5.511   4.203  2.6351 -0.3023 -1.1422
   15MOL   H65914127   0.341   5.392   4.099 -1.2982 -2.1944 -0.3756
   15MOL   H66014128   0.122   5.266   4.178  0.4510  0.1080 -0.2113
   15MOL   H66114129   0.129   5.381   4.305 -0.2580  0.4641  0.4538
   15MOL   H66214130   0.374   5.216   4.248 -0.6889 -1.0980  0.9113
   15MOL   H66314131   0.352   5.343   4.370  3.1977 -0.7985 -2.3980
   15MOL   H66414132   0.164   5.228   4.453  0.0815 -1.3830  1.6500
   15MOL   H66514133   0.306   5.130   4.497  1.0919 -0.3763 -1.1549
   15MOL   H66614134   0.106   4.792   4.253  1.0827  0.8809 -0.7427
   15MOL   H66714135   7.712   4.849   4.295  0.2275 -0.5089  0.6183
   15MOL   H66814136   0.012   4.867   4.042  0.8454 -0.0673 -0.1008
   15MOL   H66914137   0.127   4.979   4.085  0.0829  0.0721  0.3307
   15MOL   H67014138   7.719   5.145   4.150  1.3381 -1.8393  1.7561
   15MOL   H67114139   7.591   5.029   4.132  1.3646 -2.9290  1.3140
   15MOL   H67214140   7.647   5.021   3.882  1.3534 -0.5087 -0.1801
   15MOL   H67314141   0.028   5.108   3.908  0.0082  0.4258  0.4770
   15MOL   O67414142   7.673   5.281   3.801  0.0157 -0.0061 -0.0191
   15MOL   C67514143   7.639   5.411   3.763 -0.3543  0.4304 -0.7872
   15MOL   C67614144   7.649   5.430   3.614 -0.0934  0.6771 -0.4764
   15MOL   C67714145   0.011   5.389   3.545  0.0760  0.2107  0.3380
   15MOL   C67814146   0.015   5.426   3.391 -0.1817 -0.1685 -0.1270
   15MOL   C67914147   0.156   5.399   3.323  0.5535  0.4352  0.0352
   15MOL   C68014148   0.141   5.418   3.170  0.0714 -0.1571 -0.4305
   15MOL   C68114149   0.278   5.409   3.104  0.5137 -0.1475  0.1059
   15MOL   C68214150   0.365   5.532   3.129  0.6303  0.3350 -0.2107
   15MOL   C68314151   0.492   5.548   3.039 -0.8467 -0.8789 -0.1107
   15MOL   C68414152   0.557   5.682   3.061 -0.1353 -0.0911  0.0459
   15MOL   O68514153   0.608   5.692   3.195  0.4246 -0.6719 -0.0072
   15MOL   C68614154   0.731   5.644   3.217 -0.0369 -0.0911 -0.2501
   15MOL   O68714155   0.781   5.551   3.156 -0.2878 -0.3240  0.6410
   15MOL   C68814156   0.800   5.706   3.343  0.1579  0.2665  0.1441
   15MOL   C68914157   0.786   5.862   3.348 -0.5472  0.2349 -0.3839
   15MOL   C69014158   0.871   5.945   3.240 -0.4571 -0.4827  0.7154
   15MOL   C69114159   0.839   6.097   3.242  0.2778  0.4520  0.2327
   15MOL   C69214160   0.702   6.122   3.180 -0.3829 -0.3940  0.0140
   15MOL   O69314161   0.599   6.130   3.251  0.3607 -0.4633 -0.0919
   15MOL   H69414162   7.543   5.442   3.804  0.4814 -1.0117  2.3942
   15MOL   H69514163   7.715   5.480   3.799 -2.7499  3.6398 -1.6638
   15MOL   H69614164   7.626   5.534   3.589 -0.8527  0.5673 -0.2548
   15MOL   H69714165   7.565   5.370   3.579 -0.2841  0.6127  0.0885
   15MOL   H69814166   0.085   5.450   3.595  0.8238  2.1048 -2.9031
   15MOL   H69914167   0.027   5.282   3.557  1.8527  0.5100  0.8058
   15MOL   H70014168   7.750   5.530   3.395  3.3054  0.8547  0.5982
   15MOL   H70114169   7.707   5.372   3.331  0.1107 -0.9342  0.1922
   15MOL   H70214170   0.201   5.305   3.356  0.4948 -0.3470 -1.9853
   15MOL   H70314171   0.222   5.475   3.363  0.0460  0.6644  0.4318
   15MOL   H70414172   0.089   5.511   3.147 -0.0618  0.2809  1.5357
   15MOL   H70514173   0.078   5.337   3.132  1.9484 -0.6317 -2.6086
   15MOL   H70614174   0.255   5.401   2.998 -2.4439  2.9962  0.4311
   15MOL   H70714175   0.328   5.317   3.134 -0.5403 -1.2675 -1.4819
   15MOL   H70814176   0.396   5.539   3.233  0.9689  0.8752 -0.3502
   15MOL   H70914177   0.307   5.620   3.104 -1.2660 -0.7815  0.1476
   15MOL   H71014178   0.558   5.464   3.062  2.3151  1.0847 -1.6938
   15MOL   H71114179   0.473   5.535   2.932 -2.1408  1.0327 -0.1512
   15MOL   H71214180   0.494   5.770   3.042  2.1528  1.5331 -0.2167
   15MOL   H71314181   0.640   5.702   2.993 -0.6513  0.7724 -0.3445
   15MOL   H71414182   0.750   5.665   3.431  1.2408 -2.1513 -0.3380
   15MOL   H71514183   0.903   5.672   3.354  0.0738 -0.3391 -0.8876
   15MOL   H71614184   0.807   5.893   3.451  1.4106  1.2030 -1.0571
   15MOL   H71714185   0.683   5.885   3.321 -0.4403 -1.5228 -2.4596
   15MOL   H71814186   0.856   5.895   3.144 -2.2871  0.6540  0.3901
   15MOL   H71914187   0.974   5.923   3.268 -0.6562 -2.3897  0.0681
   15MOL   H72014188   0.915   6.148   3.183 -0.4608  1.4804  0.1771
   15MOL   H72114189   0.837   6.136   3.343 -0.1821  1.2597 -0.0842
   15MOL   O72214190   0.709   6.129   3.046 -0.1254  0.6286 -0.1694
   15MOL   C72314191   0.590   6.121   2.971 -0.8353  0.5696 -0.2453
   15MOL   C72414192   0.615   6.071   2.826 -0.2509 -0.4304 -0.2120
   15MOL   C72514193   0.494   6.029   2.745  0.5331 -0.0241  0.2561
   15MOL   C72614194   0.422   5.902   2.787 -0.0808  0.6003  0.0885
   15MOL   C72714195   0.293   5.874   2.717  0.1432  0.0169  0.2493
   15MOL   C72814196   0.211   5.749   2.760  0.0647 -0.2597 -0.6977
   15MOL   C72914197   0.116   5.700   2.648 -0.9881  0.4384  0.1834
   15MOL   C73014198   0.016   5.813   2.610  0.6919 -0.3309 -0.2471
   15MOL   C73114199   7.690   5.763   2.499 -0.2156 -0.1259  0.8256
   15MOL   C73214200   7.619   5.877   2.427  0.1794  0.0660  0.7655
   15MOL   O73314201   7.712   5.964   2.348  0.1546  0.2221 -0.7585
   15MOL   C73414202   7.739   6.086   2.396  0.1004 -0.1035  0.2315
   15MOL   O73514203   7.664   6.155   2.468  0.4546 -0.0652  0.0765
   15MOL   C73614204   0.105   6.141   2.334 -1.0222  1.3131  0.1142
   15MOL   C73714205   0.225   6.045   2.369  0.2224 -0.1535 -0.2493
   15MOL   C73814206   0.360   6.123   2.340  0.2960 -0.5280 -0.2633
   15MOL   C73914207   0.479   6.036   2.326 -0.0985 -0.5805  0.1042
   15MOL   C74014208   0.615   6.109   2.352 -0.3771 -0.4593 -0.2482
   15MOL   O74114209   0.702   6.064   2.424  0.4706  0.2056 -0.9590
   15MOL   H74214210   0.527   6.046   3.019  0.0032 -1.2462 -1.8938
   15MOL   H74314211   0.544   6.219   2.982  2.0861  2.0170 -0.3847
   15MOL   H74414212   0.698   6.001   2.818  0.0619  0.0883 -1.6168
   15MOL   H74514213   0.650   6.163   2.781  1.5157 -0.3870  1.1532
   15MOL   H74614214   0.432   6.116   2.768  0.7968  0.5779 -1.2701
   15MOL   H74714215   0.514   6.033   2.638  1.1346  2.3321  0.4161
   15MOL   H74814216   0.395   5.908   2.892 -3.1760  0.1494 -0.6535
   15MOL   H74914217   0.485   5.813   2.783 -0.6582  0.2589 -1.5751
   15MOL   H75014218   0.305   5.876   2.608 -1.0277 -0.8278  0.0918
   15MOL   H75114219   0.234   5.964   2.740 -1.0725 -1.0275  1.2774
   15MOL   H75214220   0.150   5.768   2.848 -0.0577  1.2493 -1.0901
   15MOL   H75314221   0.283   5.673   2.792 -0.3978 -0.6194 -0.5147
   15MOL   H75414222   0.052   5.619   2.683 -0.1085 -1.1810 -1.8627
   15MOL   H75514223   0.169   5.665   2.559 -0.4878 -1.4785  1.2169
   15MOL   H75614224   0.079   5.897   2.581  2.6994 -1.7380 -0.0983
   15MOL   H75714225   7.727   5.839   2.701  0.2970  1.2993 -0.9312
   15MOL   H75814226   7.751   5.714   2.423  0.7719  2.0372  0.1941
   15MOL   H75914227   7.615   5.688   2.524  0.4998 -0.9598  0.5180
   15MOL   H76014228   7.570   5.935   2.506 -1.5911 -3.7904  2.6056
   15MOL   H76114229   7.533   5.842   2.371 -0.5568 -0.3987  2.1571
   15MOL   H76214230   0.097   6.164   2.228  2.3392 -0.0784 -0.5202
   15MOL   H76314231   0.128   6.237   2.381  2.8571  0.0750  0.9186
   15MOL   H76414232   0.213   5.961   2.301  1.3389  0.2855 -0.9901
   15MOL   H76514233   0.218   6.008   2.471  2.3925  0.9857  0.3361
   15MOL   H76614234   0.378   6.206   2.408 -1.0115  0.0317 -0.5833
   15MOL   H76714235   0.359   6.158   2.236 -1.1113  0.6858  0.1348
   15MOL   H76814236   0.484   5.993   2.226 -0.8939 -3.5362  1.2837
   15MOL   H76914237   0.473   5.959   2.403  0.6399  0.4196  1.1761
   15MOL   O77014238   0.624   6.212   2.269 -0.5038 -0.0627  0.0554
   15MOL   C77114239   0.689   6.324   2.316  0.1931  1.1977  0.7878
   15MOL   C77214240   0.601   6.452   2.318 -0.4870 -0.3834  0.7077
   15MOL   C77314241   0.514   6.485   2.192 -0.2427  0.2700  0.4404
   15MOL   C77414242   0.619   6.505   2.073 -0.2453  0.3510 -0.2939
   15MOL   C77514243   0.557   6.545   1.939 -0.1499  0.0033  0.2499
   15MOL   C77614244   0.662   6.535   1.820  0.4803  0.0109 -0.4383
   15MOL   C77714245   0.599   6.590   1.691  0.6945  0.3677 -0.2802
   15MOL   C77814246   0.700   6.617   1.581 -0.0901 -0.5468  0.4277
   15MOL   C77914247   0.651   6.696   1.462  0.1805  0.0188 -0.1554
   15MOL   C78014248   0.536   6.635   1.385  0.1426  1.0281  0.2616
   15MOL   O78114249   0.508   6.715   1.271 -0.3737 -0.2118 -0.1495
   15MOL   C78214250   0.570   6.677   1.153  0.6253  0.2807 -0.4111
   15MOL   O78314251   0.644   6.578   1.135 -0.3579  0.5454 -0.1700
   15MOL   C78414252   0.545   6.768   1.035 -0.2846  0.4939  0.1304
   15MOL   C78514253   0.475   6.699   0.922  0.1297 -0.1019 -0.6662
   15MOL   C78614254   0.576   6.612   0.841 -0.0983 -0.2355 -0.7177
   15MOL   C78714255   0.503   6.560   0.717 -0.2314  0.1089 -0.3364
   15MOL   C78814256   0.599   6.521   0.605  0.2419 -0.0571  0.3318
   15MOL   O78914257   0.616   6.404   0.584 -0.3017  0.1317 -0.0700
   15MOL   H79014258   0.722   6.312   2.419 -0.3705  1.9521  1.0617
   15MOL   H79114259   0.783   6.326   2.261 -0.0492 -0.6184  0.2761
   15MOL   H79214260   0.657   6.543   2.338  0.6972 -1.1985  1.1090
   15MOL   H79314261   0.533   6.449   2.403  2.0742  0.3858  2.8363
   15MOL   H79414262   0.442   6.409   2.163  0.0278  0.9148 -2.0892
   15MOL   H79514263   0.461   6.577   2.212 -0.0730 -0.1013  2.6925
   15MOL   H79614264   0.678   6.414   2.069 -1.1274 -0.2206 -0.2676
   15MOL   H79714265   0.692   6.581   2.101  1.0217 -0.8904 -0.1587
   15MOL   H79814266   0.495   6.634   1.944  0.7624  0.7287 -1.0755
   15MOL   H79914267   0.490   6.461   1.917 -1.6364  2.0143 -3.2640
   15MOL   H80014268   0.703   6.434   1.815  0.2986 -0.1347  0.8283
   15MOL   H80114269   0.746   6.597   1.849  0.8441 -0.4355 -0.5261
   15MOL   H80214270   0.540   6.681   1.701  1.6264  0.8632  0.8433
   15MOL   H80314271   0.520   6.521   1.665  1.3769 -0.0971 -1.1508
   15MOL   H80414272   0.739   6.526   1.536 -0.7197  0.4575 -2.2826
   15MOL   H80514273   0.788   6.662   1.627 -0.0369  2.9298 -2.7904
   15MOL   H80614274   0.634   6.798   1.497  1.1064 -0.6137  2.2458
   15MOL   H80714275   0.739   6.699   1.397 -0.2603 -1.8267 -0.8693
   15MOL   H80814276   0.450   6.621   1.450 -0.1018  0.0054 -0.2641
   15MOL   H80914277   0.559   6.532   1.356 -1.5259  0.6888  0.0845
   15MOL   H81014278   0.497   6.859   1.072 -1.3190  0.4633 -1.1070
   15MOL   H81114279   0.640   6.792   0.988  0.9734 -2.8083  0.8147
   15MOL   H81214280   0.436   6.771   0.850  0.5733  0.2465 -0.5558
   15MOL   H81314281   0.389   6.648   0.965  0.5776 -1.7248 -1.6272
   15MOL   H81414282   0.618   6.530   0.900  2.3186  0.7674 -0.9565
   15MOL   H81514283   0.662   6.672   0.811 -0.3217 -0.8907 -2.7576
   15MOL   H81614284   0.441   6.642   0.681 -2.2966 -2.2529 -2.3467
   15MOL   H81714285   0.436   6.482   0.753  0.5570  0.0308  1.0076
   15MOL   O81814286   0.655   6.622   0.533 -0.3323 -0.5181  0.5230
   15MOL   C81914287   0.730   6.586   0.415  0.6533 -0.0538  0.4523
   15MOL   C82014288   0.866   6.662   0.396 -0.4685 -0.1108 -0.0610
   15MOL   C82114289   0.990   6.609   0.478  0.7255  0.1043  0.1598
   15MOL   C82214290   0.965   6.621   0.624 -0.6526 -0.2067 -0.3066
   15MOL   C82314291   1.096   6.608   0.705 -0.6479  0.1837 -0.5909
   15MOL   C82414292   1.074   6.613   0.853  0.5963 -0.4919  0.0727
   15MOL   C82514293   1.055   6.758   0.911 -0.3363  0.1764  0.3646
   15MOL   C82614294   0.981   6.760   1.047  0.6076  0.2826  0.0563
   15MOL   C82714295   0.933   6.906   1.073 -0.1935 -0.0401  0.0150
   15MOL   C82814296   0.844   6.931   1.195 -0.5866  0.0154  0.2033
   15MOL   O82914297   0.775   7.050   1.186 -0.0807  0.3413  0.4301
   15MOL   C83014298   0.669   7.075   1.265  0.4385  0.0569  0.7338
   15MOL   O83114299   0.624   6.993   1.347  0.1207 -0.0300  0.2689
   15MOL   C83214300   0.597   7.209   1.243  0.0958  0.8063  0.6509
   15MOL   C83314301   0.641   7.280   1.117 -0.5260 -0.0610 -0.2325
   15MOL   C83414302   0.580   7.417   1.095  0.6056 -0.4309  0.0732
   15MOL   C83514303   0.628   7.479   0.962  0.1009  0.3967  0.4516
   15MOL   C83614304   0.556   7.616   0.948 -0.1551 -0.7539 -0.3190
   15MOL   O83714305   0.543   7.694   1.043 -0.0002  0.1845 -1.0376
   15MOL   H83814306   0.743   6.478   0.417 -1.0431 -0.2711  4.2902
   15MOL   H83914307   0.663   6.613   0.333  1.1317 -1.9471 -0.5953
   15MOL   H84014308   0.852   6.767   0.424  1.4069  0.2349 -0.3358
   15MOL   H84114309   0.884   6.663   0.288 -0.5223 -0.7035 -0.0752
   15MOL   H84214310   1.021   6.506   0.458  0.9643  0.6986 -2.6737
   15MOL   H84314311   1.079   6.667   0.453 -0.5071  2.0255  0.1570
   15MOL   H84414312   0.892   6.546   0.655  0.3381 -0.9704  0.2229
   15MOL   H84514313   0.922   6.720   0.639 -0.6847 -0.3842  0.8251
   15MOL   H84614314   1.166   6.688   0.682  0.1712 -0.0088  1.1509
   15MOL   H84714315   1.138   6.512   0.674  2.2400  0.3630  2.5272
   15MOL   H84814316   1.153   6.560   0.907  2.0149  1.5885  0.0954
   15MOL   H84914317   0.982   6.557   0.872  1.0383 -0.3793  2.7808
   15MOL   H85014318   1.000   6.816   0.837 -1.4754 -2.1631 -0.6850
   15MOL   H85114319   1.155   6.798   0.926 -0.1121  0.4812 -1.7275
   15MOL   H85214320   1.048   6.731   1.128 -2.7140  1.9725  3.5563
   15MOL   H85314321   0.896   6.692   1.043 -0.5111  1.6657  0.0050
   15MOL   H85414322   1.022   6.969   1.087 -1.3735  2.6282 -3.8164
   15MOL   H85514323   0.878   6.948   0.989 -0.7497  0.1072  0.4520
   15MOL   H85614324   0.900   6.933   1.289  0.1376  0.5244 -0.2374
   15MOL   H85714325   0.772   6.850   1.205 -1.1916 -0.0905 -4.3031
   15MOL   H85814326   0.493   7.176   1.248  0.4535 -0.3585  0.4296
   15MOL   H85914327   0.596   7.270   1.333 -2.4138 -1.5842  2.3389
   15MOL   H86014328   0.624   7.214   1.032 -1.2834  0.0409 -0.1694
   15MOL   H86114329   0.750   7.281   1.112 -0.5290  0.5187 -0.3059
   15MOL   H86214330   0.608   7.486   1.175  0.5402  1.2653 -1.3486
   15MOL   H86314331   0.471   7.415   1.088  0.6433 -0.9424 -0.3941
   15MOL   H86414332   0.603   7.418   0.875 -2.1982  0.4117  1.0536
   15MOL   H86514333   0.730   7.516   0.952  0.1227  0.0691 -0.5551
   15MOL   O86614334   0.528   7.644   0.817  0.1462  0.2086 -0.0864
   15MOL   C86714335   0.493   0.016   0.784  0.1707 -0.0046  0.2641
   15MOL   C86814336   0.345   0.025   0.767 -0.6718  0.3519  0.5319
   15MOL   C86914337   0.290   0.162   0.740 -0.0122 -0.1373  0.0622
   15MOL   C87014338   0.145   0.174   0.712  0.1160  0.1486  0.5356
   15MOL   C87114339   0.116   0.150   0.565 -0.5357  0.2898  0.2585
   15MOL   C87214340   7.731   0.156   0.539 -0.3947 -0.1513  0.0458
   15MOL   C87314341   7.700   0.151   0.385  0.3681  0.1594  0.6695
   15MOL   C87414342   7.552   0.195   0.363  0.4485  0.4709 -0.5583
   15MOL   C87514343   7.507   0.219   0.218 -0.3196  0.2560  0.2486
   15MOL   C87614344   7.355   0.268   0.213  0.3255 -0.1515  1.0590
   15MOL   O87714345   7.310   0.279   0.085  0.0809 -0.6788 -0.7481
   15MOL   C87814346   7.281   0.170   0.013  0.7589 -0.0688  0.5442
   15MOL   O87914347   7.263   0.061   0.061 -0.2548  0.5468  0.3146
   15MOL   C88014348   7.290   0.202   7.634 -0.3148  1.3522  0.6393
   15MOL   C88114349   7.278   0.083   7.527 -0.3135 -0.3187  0.0725
   15MOL   C88214350   7.252   0.121   7.382  0.3341  0.7832  0.1968
   15MOL   C88314351   7.244   7.751   7.306  0.5147 -0.1284  0.3906
   15MOL   C88414352   7.237   0.008   7.155  0.2537  0.8178  0.5277
   15MOL   O88514353   7.139   7.743   7.093  0.3538  0.2031  0.0802
   15MOL   H88614354   0.516   0.088   0.863 -1.1726 -0.2147  0.8626
   15MOL   H88714355   0.542   0.060   0.697 -1.8099  0.6007 -0.5768
   15MOL   H88814356   0.300   7.755   0.860  2.8918  0.6272  2.4431
   15MOL   H88914357   0.314   7.713   0.695 -0.6641  0.5496  0.3181
   15MOL   H89014358   0.307   0.222   0.830  4.1247 -0.1537 -0.6041
   15MOL   H89114359   0.343   0.212   0.659  1.8562 -2.4258 -0.2087
   15MOL   H89214360   0.128   0.280   0.730 -0.3704 -0.0427  1.2844
   15MOL   H89314361   0.078   0.115   0.775 -2.9329  2.0497 -0.8110
   15MOL   H89414362   0.150   0.055   0.524  0.2328  1.4489 -1.9254
   15MOL   H89514363   0.169   0.224   0.505 -0.4842  0.5858  0.6737
   15MOL   H89614364   7.679   0.240   0.585 -1.8631 -0.7489 -0.4758
   15MOL   H89714365   7.673   0.086   0.599 -0.8480 -0.4410 -0.7225
   15MOL   H89814366   7.723   0.051   0.350  2.2792  0.0212  2.2432
   15MOL   H89914367   0.010   0.199   0.321  0.6190 -1.4095 -0.2313
   15MOL   H90014368   7.527   0.284   0.421 -0.4597 -1.1681  1.5949
   15MOL   H90114369   7.497   0.115   0.412  1.4232 -0.7423 -1.4063
   15MOL   H90214370   7.565   0.302   0.178  0.5236  0.6678  2.2711
   15MOL   H90314371   7.521   0.129   0.158  1.6955  0.0164  1.0583
   15MOL   H90414372   7.324   0.349   0.279 -0.5203 -1.8420  2.7918
   15MOL   H90514373   7.299   0.186   0.259  0.5821 -1.1552 -0.4013
   15MOL   H90614374   7.215   0.277   7.612 -1.7928  0.3092  2.0369
   15MOL   H90714375   7.383   0.253   7.608  0.0107  0.2266 -0.4434
   15MOL   H90814376   7.212   0.006   7.567 -1.5275  0.2999 -0.6818
   15MOL   H90914377   7.377   0.038   7.526  0.0098  0.3739 -2.3883
   15MOL   H91014378   7.326   0.195   7.352 -0.6938  1.7177 -0.0419
   15MOL   H91114379   7.157   0.173   7.385 -0.0370  0.0957  0.4580
   15MOL   H91214380   7.155   7.689   7.323 -0.9499  1.9667  0.5217
   15MOL   H91314381   7.334   7.694   7.330 -0.7715 -2.8493 -0.9824
   15MOL   O91414382   7.352   0.054   7.114  0.1041  0.3899 -0.2188
   15MOL   C91514383   7.369   0.124   6.990  0.5262 -0.1434 -0.8977
   15MOL   C91614384   7.462   0.250   7.009 -0.3029  0.5428  0.0917
   15MOL   C91714385   7.602   0.211   7.062 -0.1453 -0.0740 -0.1250
   15MOL   C91814386   7.697   0.331   7.091 -0.6324  0.5401 -1.0447
   15MOL   C91914387   0.023   0.283   7.206 -0.2662  0.1513 -0.0689
   15MOL   C92014388   0.145   0.378   7.205 -0.7886  0.4366  0.3192
   15MOL   C92114389   0.263   0.329   7.295  0.1588 -0.4977  0.8024
   15MOL   C92214390   0.332   0.206   7.239  0.3055  0.0000  0.1239
   15MOL   C92314391   0.447   0.156   7.328  0.3140  0.1853 -0.4441
   15MOL   C92414392   0.571   0.245   7.322 -0.6719  0.1651 -0.5454
   15MOL   O92514393   0.637   0.242   7.195 -0.3226 -0.3242 -0.6956
   15MOL   C92614394   0.710   0.352   7.149  0.5575 -1.0208 -0.4090
   15MOL   O92714395   0.740   0.451   7.216  0.1440 -0.2330 -0.0418
   15MOL   C92814396   0.760   0.345   7.004  0.0315 -0.6961  0.9407
   15MOL   C92914397   0.656   0.300   6.900 -0.4101  0.3934 -0.3562
   15MOL   C93014398   0.679   0.367   6.760 -0.0235 -0.3129  0.6953
   15MOL   C93114399   0.574   0.323   6.656  1.2241  0.4680  0.1886
   15MOL   C93214400   0.435   0.372   6.707  0.0393  0.4447  0.7002
   15MOL   O93314401   0.417   0.495   6.710 -0.2429  0.2508 -0.5997
   15MOL   H93414402   7.408   0.058   6.913 -2.1383 -0.9631 -1.6052
   15MOL   H93514403   7.272   0.152   6.948  0.5495  0.5956 -0.4735
   15MOL   H93614404   7.410   0.320   7.073 -1.2632  1.3342 -1.5378
   15MOL   H93714405   7.480   0.298   6.913 -2.0015 -0.3359 -0.6966
   15MOL   H93814406   7.589   0.155   7.154 -1.2573 -0.1814 -0.3430
   15MOL   H93914407   7.661   0.152   6.992 -0.4213 -0.2385 -0.2171
   15MOL   H94014408   7.650   0.426   7.117  1.4308  1.4124 -0.3447
   15MOL   H94114409   7.753   0.351   6.999  0.8310 -1.4889 -0.6410
   15MOL   H94214410   0.035   0.175   7.211  0.2270  0.2744  1.7461
   15MOL   H94314411   7.729   0.298   7.296 -2.2069 -1.9241 -0.9328
   15MOL   H94414412   0.115   0.481   7.223 -0.2649  1.1725 -2.7151
   15MOL   H94514413   0.183   0.389   7.103 -0.0260 -0.6985  0.4718
   15MOL   H94614414   0.225   0.313   7.396 -1.1226 -0.3065  0.3572
   15MOL   H94714415   0.335   0.411   7.291 -0.6001  0.1200 -0.5463
   15MOL   H94814416   0.369   0.230   7.139 -0.1912  1.8666  0.3674
   15MOL   H94914417   0.260   0.124   7.233  1.3744 -0.8239 -2.3647
   15MOL   H95014418   0.429   0.150   7.435  0.3413 -1.9345 -0.5453
   15MOL   H95114419   0.470   0.052   7.308  0.0564  0.0440 -0.0069
   15MOL   H95214420   0.650   0.209   7.388 -0.9069 -0.4680 -0.6022
   15MOL   H95314421   0.549   0.350   7.341  1.6244  0.4767  0.5212
   15MOL   H95414422   0.794   0.446   6.984  0.6495 -1.0304  0.2634
   15MOL   H95514423   0.837   0.267   6.998 -0.9610 -1.5932 -0.4920
   15MOL   H95614424   0.561   0.331   6.944 -0.2005 -0.3561  0.6442
   15MOL   H95714425   0.668   0.192   6.896  0.9468  0.5425 -0.4770
   15MOL   H95814426   0.774   0.327   6.725 -0.0102 -1.6315  2.2115
   15MOL   H95914427   0.674   0.476   6.770 -1.2876 -0.2728 -0.1788
   15MOL   H96014428   0.574   0.214   6.647  1.8484  0.4287  0.6198
   15MOL   H96114429   0.590   0.369   6.559 -3.4282  0.3066 -0.7348
   15MOL   H96214430   0.352   0.314   6.748  2.2571 -0.9484  3.4920
   16MOL     O114431   7.575   6.627   6.613  0.0719 -1.0873 -0.2042
   16MOL     C214432   7.652   6.681   6.506  0.2428 -0.2816 -0.0835
   16MOL     C314433   7.641   6.828   6.505 -0.7407 -0.5109 -0.2171
   16MOL     C414434   7.728   6.890   6.401  0.0290 -0.1111 -0.2315
   16MOL     C514435   7.665   6.903   6.262 -0.2619  0.0842 -0.2384
   16MOL     C614436   0.004   6.942   6.147 -0.4351 -0.6776  1.2284
   16MOL     C714437   0.063   7.089   6.166 -0.6888  0.4128 -0.1195
   16MOL     C814438   0.157   7.137   6.049  0.4678 -1.2063  0.4970
   16MOL     C914439   0.240   7.258   6.100  0.2606  0.4646 -0.1141
   16MOL    C1014440   0.328   7.330   5.992 -0.5059 -0.1117  0.2599
   16MOL    C1114441   0.379   7.457   6.066  0.2366 -0.2901 -0.5468
   16MOL    O1214442   0.297   7.577   6.057  0.1994 -0.0312  0.1969
   16MOL    C1314443   0.311   7.661   5.950 -0.2257  0.4535 -0.5401
   16MOL    O1414444   0.387   7.659   5.852  0.4228  0.5033 -0.3122
   16MOL    C1514445   0.208   0.004   5.958 -0.1096 -0.2808 -0.2626
   16MOL    C1614446   0.257   0.132   6.033 -0.1585 -0.1446 -0.4668
   16MOL    C1714447   0.154   0.247   6.027 -0.0934 -0.3445 -0.4693
   16MOL    C1814448   0.198   0.379   6.089 -0.1557  0.3161  0.1891
   16MOL    C1914449   0.235   0.374   6.234  0.0487 -0.1851 -0.2301
   16MOL    O2014450   0.181   0.306   6.320 -0.0554  0.0978  0.4306
   16MOL    H2114451   7.752   6.655   6.540  0.7858  1.6259 -0.1957
   16MOL    H2214452   7.629   6.639   6.408  2.7123 -0.5554 -0.5857
   16MOL    H2314453   7.677   6.857   6.604 -2.9641  2.0995 -0.0822
   16MOL    H2414454   7.536   6.853   6.489 -0.3950 -0.1223 -2.0277
   16MOL    H2514455   7.752   6.993   6.426 -2.6921  0.6004 -0.3728
   16MOL    H2614456   0.055   6.831   6.394  1.7727  2.6734 -1.4010
   16MOL    H2714457   7.578   6.969   6.267 -2.3955 -2.6431  0.3488
   16MOL    H2814458   7.615   6.810   6.233  1.1392 -0.6106 -0.4793
   16MOL    H2914459   7.718   6.934   6.051 -0.3500 -1.7687  1.2654
   16MOL    H3014460   0.081   6.865   6.145  1.4030  1.1351  0.9813
   16MOL    H3114461   0.116   7.079   6.261 -2.3360 -3.4435  0.5067
   16MOL    H3214462   7.750   7.165   6.174  0.4278  1.4952  0.5541
   16MOL    H3314463   0.102   7.157   5.957  1.0283  1.0682  0.6097
   16MOL    H3414464   0.223   7.057   6.016 -0.1361 -1.4258 -0.1823
   16MOL    H3514465   0.303   7.214   6.177 -0.1901 -0.0733 -0.0525
   16MOL    H3614466   0.170   7.327   6.145  0.5162  1.9605 -1.9520
   16MOL    H3714467   0.408   7.266   5.953  0.1689 -0.0914  1.5937
   16MOL    H3814468   0.283   7.353   5.896  1.8325  0.6991 -0.6794
   16MOL    H3914469   0.469   7.494   6.018 -0.0267  0.8294 -0.1936
   16MOL    H4014470   0.408   7.443   6.170  0.9003 -1.3958 -0.8836
   16MOL    H4114471   0.188   0.025   5.853  0.4358  1.8429  0.0461
   16MOL    H4214472   0.113   7.735   5.998  0.6519 -2.7059 -0.3743
   16MOL    H4314473   0.353   0.161   5.990  0.8741 -1.7367  0.7131
   16MOL    H4414474   0.275   0.106   6.137  0.1995  1.6984 -0.0525
   16MOL    H4514475   0.072   0.220   6.093  0.4231  0.7232  0.6393
   16MOL    H4614476   0.122   0.268   5.925 -0.4611  0.0504 -0.2741
   16MOL    H4714477   0.121   0.455   6.081 -1.0788 -0.5340  0.8146
   16MOL    H4814478   0.270   0.428   6.023 -1.9877  1.8152 -0.7306
   16MOL    H4914479   7.484   6.637   6.588  0.3521  0.5753 -0.5854
   16MOL    O5014480   0.352   0.438   6.240  0.1116 -0.4155  0.6811
   16MOL    C5114481   0.437   0.428   6.352  0.9929  0.3681 -0.0403
   16MOL    C5214482   0.589   0.483   6.319 -0.1771 -0.4052  0.2149
   16MOL    C5314483   0.600   0.630   6.343  0.0042  0.0407 -0.4398
   16MOL    C5414484   0.746   0.686   6.317  0.6696  0.2315  0.3347
   16MOL    C5514485   0.763   0.836   6.362 -0.0741 -0.1990  0.0608
   16MOL    C5614486   0.891   0.904   6.310  0.2319 -0.6460  0.3496
   16MOL    C5714487   0.911   0.914   6.156 -0.0709 -0.0392  0.1027
   16MOL    C5814488   0.798   0.990   6.083  0.1699 -0.2904 -0.0009
   16MOL    C5914489   0.843   1.029   5.940 -0.4618 -0.3986  0.5835
   16MOL    C6014490   0.741   1.112   5.860  0.3163 -0.0606 -1.2380
   16MOL    O6114491   0.785   1.147   5.731  0.3126  0.5857  0.0227
   16MOL    C6214492   0.687   1.174   5.634 -0.4127  0.1975 -0.2372
   16MOL    O6314493   0.564   1.174   5.653 -0.1169  0.4431  0.3277
   16MOL    C6414494   0.729   1.183   5.485 -1.0085 -0.2143  0.4129
   16MOL    C6514495   0.846   1.267   5.457 -0.2062 -0.3954  1.1301
   16MOL    C6614496   0.896   1.272   5.311 -0.7208  0.4313  0.0351
   16MOL    C6714497   0.991   1.152   5.275  0.5044 -0.1700  0.0331
   16MOL    C6814498   1.003   1.123   5.121 -0.6333 -0.3609 -0.2702
   16MOL    O6914499   1.013   1.216   5.043  0.4104 -0.4060  0.2490
   16MOL    H7014500   0.394   0.477   6.439 -1.3906 -0.2546 -0.8263
   16MOL    H7114501   0.434   0.323   6.380  0.1110  0.0467 -1.2706
   16MOL    H7214502   0.622   0.457   6.218  0.7960 -0.7588  0.6223
   16MOL    H7314503   0.668   0.435   6.377  0.0668  0.3596  0.5243
   16MOL    H7414504   0.541   0.680   6.267  0.9004  2.1244  0.1948
   16MOL    H7514505   0.568   0.639   6.447 -0.7013 -0.4363 -0.6170
   16MOL    H7614506   0.761   0.673   6.210  0.2105 -2.4289  0.5611
   16MOL    H7714507   0.811   0.614   6.367  0.4993  1.3611  2.2291
   16MOL    H7814508   0.748   0.843   6.470  0.9272  2.3415  0.0946
   16MOL    H7914509   0.675   0.892   6.330  0.2882 -0.0191 -0.6508
   16MOL    H8014510   0.979   0.850   6.344 -0.5574 -0.5280  2.7246
   16MOL    H8114511   0.895   1.001   6.359 -2.1419 -0.2686 -0.1390
   16MOL    H8214512   0.914   0.811   6.119  0.0855 -0.0607  0.1726
   16MOL    H8314513   1.008   0.962   6.140 -0.2918  0.1216 -0.7768
   16MOL    H8414514   0.780   1.086   6.133  1.1223  0.4598 -1.0582
   16MOL    H8514515   0.709   0.928   6.089  1.9893 -3.0175 -0.3986
   16MOL    H8614516   0.946   1.064   5.942 -0.5814 -0.0231  0.2847
   16MOL    H8714517   0.857   0.932   5.893  0.2151 -0.6388  1.2615
   16MOL    H8814518   0.728   1.206   5.913 -0.3371 -1.1617  0.5942
   16MOL    H8914519   0.646   1.058   5.865  0.2603 -0.0144 -1.7273
   16MOL    H9014520   0.746   1.080   5.453 -1.3963  0.2443 -1.2979
   16MOL    H9114521   0.643   1.203   5.421 -0.4039  0.6827 -0.1209
   16MOL    H9214522   0.936   1.238   5.513 -0.1928 -0.4462  1.0825
   16MOL    H9314523   0.817   1.368   5.488  0.2945 -0.0232  0.3996
   16MOL    H9414524   0.944   1.366   5.285  0.0287  0.4772  1.5429
   16MOL    H9514525   0.807   1.275   5.248 -0.1497  1.8454 -0.7331
   16MOL    H9614526   0.956   1.062   5.326  0.0475 -0.8854 -1.5023
   16MOL    H9714527   1.090   1.176   5.313 -0.4936  2.1066  1.2983
   16MOL    O9814528   0.999   0.993   5.089 -0.5257 -0.4786 -0.0456
   16MOL    C9914529   0.999   0.941   4.958  0.0793  0.3111 -0.8403
   16MOL   C10014530   0.858   0.904   4.924  0.4687 -0.0710  0.4807
   16MOL   C10114531   0.850   0.862   4.777  0.1366  0.3096  0.7050
   16MOL   C10214532   0.704   0.831   4.738  0.1052 -0.4979  0.5598
   16MOL   C10314533   0.689   0.789   4.593  0.0281 -0.0396  0.3841
   16MOL   C10414534   0.699   0.912   4.495  0.1944 -0.3103 -0.1237
   16MOL   C10514535   0.662   0.879   4.351  0.1539 -0.1531  0.1301
   16MOL   C10614536   0.653   1.012   4.266  0.4792  0.4465 -0.4276
   16MOL   C10714537   0.577   0.991   4.133 -0.0299 -0.3245 -0.9466
   16MOL   C10814538   0.553   1.127   4.068  0.1773 -0.0216 -1.1770
   16MOL   O10914539   0.463   1.108   3.958  0.6643 -0.4654  0.2936
   16MOL   C11014540   0.434   1.203   3.881 -0.1984 -0.0843  0.2403
   16MOL   O11114541   0.491   1.311   3.870 -0.1587  0.2534 -0.7255
   16MOL   C11214542   0.328   1.156   3.782  0.5275  0.2557 -0.0054
   16MOL   C11314543   0.192   1.218   3.808  0.3525  0.1301 -0.1168
   16MOL   C11414544   0.095   1.168   3.702  1.2281 -0.1965 -0.5139
   16MOL   C11514545   7.716   1.228   3.723 -0.1863  0.0078  0.3240
   16MOL   C11614546   7.689   1.371   3.673  0.0243  0.3753 -0.1108
   16MOL   O11714547   7.612   1.377   3.577  0.3823 -0.2049 -0.9389
   16MOL   H11814548   1.021   1.023   4.890 -3.1320  2.0433  0.1307
   16MOL   H11914549   1.066   0.860   4.928 -0.2837 -0.8514  1.3586
   16MOL   H12014550   0.793   0.989   4.941 -0.9510 -0.9705 -0.3594
   16MOL   H12114551   0.826   0.824   4.992  0.6199 -0.9356 -0.4541
   16MOL   H12214552   0.889   0.940   4.712  0.7296 -1.6787 -1.3936
   16MOL   H12314553   0.923   0.782   4.762 -0.9673 -0.6578  0.4846
   16MOL   H12414554   0.636   0.912   4.764  1.9867  0.7633  1.6654
   16MOL   H12514555   0.678   0.735   4.783 -1.5245 -0.1817  0.3135
   16MOL   H12614556   0.605   0.720   4.587  0.3162 -0.5256  1.7516
   16MOL   H12714557   0.771   0.724   4.563  2.6467  3.0892  0.4851
   16MOL   H12814558   0.798   0.956   4.483 -0.6695  1.0207 -2.6859
   16MOL   H12914559   0.628   0.980   4.540  0.0779  0.0823 -0.8854
   16MOL   H13014560   0.566   0.827   4.347 -0.7165  1.4108  0.3692
   16MOL   H13114561   0.740   0.819   4.305  1.9853  0.6252  2.1542
   16MOL   H13214562   0.750   1.061   4.252 -0.5889  1.7587 -3.6224
   16MOL   H13314563   0.597   1.087   4.322  1.2670  0.3135  0.5703
   16MOL   H13414564   0.633   0.924   4.068  0.5213 -1.9244  1.1649
   16MOL   H13514565   0.475   0.962   4.158 -0.0971  2.3735  2.2964
   16MOL   H13614566   0.645   1.166   4.025  0.0439  1.3293 -0.2686
   16MOL   H13714567   0.521   1.208   4.133  1.5126 -0.6476  0.2879
   16MOL   H13814568   0.357   1.195   3.685 -2.9280  1.4473 -0.6204
   16MOL   H13914569   0.326   1.047   3.774  3.2891  0.1574  0.1442
   16MOL   H14014570   0.209   1.325   3.812  0.2053  0.1067  1.4403
   16MOL   H14114571   0.154   1.182   3.903 -0.3020 -1.7617 -1.0704
   16MOL   H14214572   0.096   1.059   3.702 -1.0436 -0.2398 -1.1652
   16MOL   H14314573   0.133   1.206   3.607 -0.3255 -0.3014 -1.1836
   16MOL   H14414574   7.701   1.225   3.831  0.7898  0.9260  0.4807
   16MOL   H14514575   7.637   1.168   3.678 -0.0871 -1.6070  2.1959
   16MOL   O14614576   7.756   1.466   3.739  0.8241  0.0717 -0.0134
   16MOL   C14714577   7.732   1.607   3.709 -0.2279 -0.2464 -0.4130
   16MOL   C14814578   7.618   1.664   3.793  0.3047  0.1195  0.3507
   16MOL   C14914579   7.565   1.800   3.745  0.2483  0.5604  0.6434
   16MOL   C15014580   7.486   1.796   3.615 -0.0943  0.0589  0.5862
   16MOL   C15114581   7.424   1.928   3.565  0.5824  0.3100 -0.2868
   16MOL   C15214582   7.374   1.910   3.424  0.0768  0.0409  0.0186
   16MOL   C15314583   7.301   2.027   3.366  0.1284 -0.3664  0.8440
   16MOL   C15414584   7.394   2.148   3.339  0.2982 -0.5077 -0.5172
   16MOL   C15514585   7.488   2.136   3.216  0.3495  0.9061 -0.4256
   16MOL   C15614586   7.583   2.252   3.199 -1.0132 -0.0809 -0.1652
   16MOL   O15714587   7.668   2.224   3.091 -0.7017 -0.1400 -0.1165
   16MOL   C15814588   0.038   2.234   3.090  0.6114  0.2541  0.3550
   16MOL   O15914589   0.106   2.267   3.191  0.2218 -0.6568 -0.5671
   16MOL   C16014590   0.099   2.200   2.956 -0.2580  0.4970 -0.0892
   16MOL   C16114591   0.252   2.180   2.940  0.0941 -0.0514  0.2873
   16MOL   C16214592   0.342   2.308   2.954 -0.5376 -0.0532 -0.0921
   16MOL   C16314593   0.488   2.263   2.972 -0.1120 -0.1257 -0.1618
   16MOL   C16414594   0.564   2.250   2.842  0.4913 -0.0190 -0.6005
   16MOL   O16514595   0.554   2.143   2.780  0.2033  0.4575 -0.0245
   16MOL   H16614596   0.055   1.661   3.746  0.7389 -1.6369 -0.6333
   16MOL   H16714597   7.728   1.626   3.602  1.7309  2.7782 -0.0074
   16MOL   H16814598   7.650   1.669   3.897 -2.6866 -1.0494  1.3808
   16MOL   H16914599   7.531   1.599   3.795  0.7275 -0.4594  0.0675
   16MOL   H17014600   7.522   1.838   3.838  1.0906 -0.8721  1.6335
   16MOL   H17114601   7.652   1.865   3.733 -0.4450  2.0703  3.2720
   16MOL   H17214602   7.406   1.722   3.609 -1.2139  1.2477  0.4156
   16MOL   H17314603   7.561   1.772   3.540  0.7486 -1.3603  1.8502
   16MOL   H17414604   7.497   2.008   3.568  1.1481 -0.1382 -1.7443
   16MOL   H17514605   7.338   1.958   3.625 -0.9305 -2.0046 -1.2257
   16MOL   H17614606   7.303   1.828   3.415  2.0344 -1.8042  0.9507
   16MOL   H17714607   7.457   1.883   3.359 -1.5688  0.0530 -2.1312
   16MOL   H17814608   7.224   2.054   3.438  0.6624  1.8625  0.6300
   16MOL   H17914609   7.258   1.990   3.273 -0.7153  1.3362  0.5468
   16MOL   H18014610   7.465   2.166   3.420 -1.8558 -0.4274  1.4029
   16MOL   H18114611   7.336   2.240   3.330 -2.1021 -1.8295  1.0488
   16MOL   H18214612   7.531   2.036   3.208  0.0365  0.7609 -0.2630
   16MOL   H18314613   7.427   2.135   3.126  0.5499  0.8457 -0.5619
   16MOL   H18414614   7.634   2.269   3.294  2.2462 -0.0787 -1.8589
   16MOL   H18514615   7.530   2.344   3.177 -0.7478  0.4923  1.5225
   16MOL   H18614616   0.045   2.116   2.912 -1.8073  1.3586  0.1254
   16MOL   H18714617   0.072   2.277   2.883  1.7382  1.3146 -0.0120
   16MOL   H18814618   0.277   2.131   2.846  2.7116 -0.6682  1.2558
   16MOL   H18914619   0.290   2.108   3.013  3.2204  1.1139 -0.1183
   16MOL   H19014620   0.316   2.364   3.044  0.5806 -0.0783  0.2582
   16MOL   H19114621   0.327   2.383   2.876  2.4368  0.8264  0.0968
   16MOL   H19214622   0.497   2.164   3.017  0.3742 -0.0016  0.0150
   16MOL   H19314623   0.542   2.334   3.034  0.0895  0.7537 -1.3255
   16MOL   O19414624   0.634   2.361   2.808 -0.5287 -0.1557  0.3089
   16MOL   C19514625   0.688   2.377   2.675 -0.5558 -0.4917  0.3128
   16MOL   C19614626   0.788   2.269   2.628 -0.2859 -0.2973  0.2537
   16MOL   C19714627   0.915   2.290   2.711  0.2291 -0.6633  0.3736
   16MOL   C19814628   1.034   2.203   2.662  0.0422 -0.0949 -0.3016
   16MOL   C19914629   1.159   2.221   2.750  0.6490  0.7061  0.3103
   16MOL   C20014630   1.159   2.143   2.888  0.5746  0.0319  0.3564
   16MOL   C20114631   1.293   2.162   2.976  0.3092 -0.3762 -0.3420
   16MOL   C20214632   1.316   2.308   3.016 -0.1208 -0.1063  0.2102
   16MOL   C20314633   1.216   2.370   3.116  0.3099  1.1964 -0.2848
   16MOL   C20414634   1.241   2.520   3.138  0.0209 -0.7247  1.0242
   16MOL   O20514635   1.371   2.545   3.187  0.4573 -0.4436 -0.1932
   16MOL   C20614636   1.402   2.670   3.211 -0.3024  0.1542 -0.2107
   16MOL   O20714637   1.327   2.764   3.191  0.1094 -0.2629  0.3896
   16MOL   C20814638   1.551   2.686   3.254 -0.0079 -0.5311  0.7054
   16MOL   C20914639   1.631   2.651   3.119 -0.7914 -0.4034 -0.2505
   16MOL   C21014640   1.674   2.508   3.105 -0.1895 -0.0135 -0.3019
   16MOL   C21114641   1.792   2.490   3.012  0.5101 -0.1605  0.2637
   16MOL   C21214642   1.750   2.511   2.871 -0.3897 -0.3511 -0.1561
   16MOL   O21314643   1.779   2.615   2.805 -0.1637 -0.0206  0.1445
   16MOL   H21414644   0.597   2.372   2.616 -2.0505  2.2795  2.2680
   16MOL   H21514645   0.736   2.473   2.657 -0.3889 -1.2409 -3.5096
   16MOL   H21614646   0.815   2.291   2.525 -2.0759  3.0479  0.4477
   16MOL   H21714647   0.753   2.168   2.650 -0.4144 -0.6877 -1.6818
   16MOL   H21814648   0.947   2.394   2.718 -1.1888 -0.1697 -0.3286
   16MOL   H21914649   0.886   2.268   2.813 -0.9350  0.2592  0.2561
   16MOL   H22014650   1.059   2.229   2.558 -1.1402 -1.1082 -0.8453
   16MOL   H22114651   1.004   2.099   2.667 -0.8492  0.1059 -1.3267
   16MOL   H22214652   1.164   2.328   2.772  0.8653  0.6692  0.4366
   16MOL   H22314653   1.240   2.206   2.679 -1.3729  1.2074 -2.1756
   16MOL   H22414654   1.126   2.042   2.865  0.1900  0.1912  0.2020
   16MOL   H22514655   1.067   2.182   2.930 -0.2164  0.0341 -1.3103
   16MOL   H22614656   1.380   2.129   2.919  0.7261 -1.1337  0.7206
   16MOL   H22714657   1.281   2.111   3.072 -0.0546  3.9775  2.0664
   16MOL   H22814658   1.309   2.370   2.927 -0.2728 -0.3221  0.0734
   16MOL   H22914659   1.417   2.323   3.053 -0.8003  4.6735  0.5595
   16MOL   H23014660   1.111   2.347   3.097  0.8779 -1.3795 -0.5374
   16MOL   H23114661   1.233   2.323   3.213  3.1934 -0.0696 -1.3458
   16MOL   H23214662   1.168   2.555   3.211 -1.4605  0.2308 -0.8762
   16MOL   H23314663   1.214   2.581   3.052 -1.8714  0.2598  2.2668
   16MOL   H23414664   1.570   2.789   3.286  0.2964 -0.2841 -0.2470
   16MOL   H23514665   1.575   2.619   3.335 -1.4486  2.0927  3.4136
   16MOL   H23614666   1.720   2.714   3.120 -0.9584 -0.1577 -0.7184
   16MOL   H23714667   1.579   2.694   3.034  1.9715  1.9873 -0.8245
   16MOL   H23814668   1.584   2.459   3.067 -1.1180  0.5349  1.1473
   16MOL   H23914669   1.693   2.461   3.202  1.0053  2.1123  0.5112
   16MOL   H24014670   1.846   2.396   3.014 -0.6103 -0.8119  0.5549
   16MOL   H24114671   1.866   2.567   3.030  0.5524  0.0476 -0.7667
   16MOL   O24214672   1.670   2.408   2.833  0.0738 -0.8254 -0.2489
   16MOL   C24314673   1.611   2.406   2.709 -0.0577 -0.4848  0.2086
   16MOL   C24414674   1.534   2.276   2.690  0.6136 -0.1912 -0.0408
   16MOL   C24514675   1.625   2.151   2.672 -1.0694 -0.5193  0.2225
   16MOL   C24614676   1.543   2.018   2.680 -0.5742  0.8751  0.9566
   16MOL   C24714677   1.629   1.892   2.653 -0.0424  0.5693  0.1286
   16MOL   C24814678   1.658   1.880   2.506  0.0321 -0.5419  0.1575
   16MOL   C24914679   1.696   1.740   2.467 -0.1338  0.0999 -0.1549
   16MOL   C25014680   1.735   1.730   2.318 -0.5942  0.4642 -0.0673
   16MOL   C25114681   1.767   1.585   2.273 -0.1246  0.0694 -0.2554
   16MOL   C25214682   1.893   1.583   2.186 -0.4755 -0.7472 -0.3048
   16MOL   O25314683   1.878   1.664   2.073 -0.0931  0.0281 -0.2982
   16MOL   C25414684   1.957   1.656   1.967  0.2937 -0.0026  0.2436
   16MOL   O25514685   2.049   1.575   1.948 -0.0038 -0.0325 -0.4820
   16MOL   C25614686   1.914   1.744   1.846 -0.0771  0.0547  0.6564
   16MOL   C25714687   1.759   1.779   1.830 -0.9646 -0.0904 -0.4098
   16MOL   C25814688   1.706   1.904   1.898  0.2520 -0.1981  0.0982
   16MOL   C25914689   1.776   2.034   1.861 -0.4154 -0.0122  0.1354
   16MOL   C26014690   1.734   2.081   1.719  0.1602 -0.4107  0.7939
   16MOL   O26114691   1.811   2.147   1.651  0.4426  0.0796  0.4961
   16MOL   H26214692   1.545   2.492   2.697 -0.3008 -0.6647  0.2403
   16MOL   H26314693   1.685   2.420   2.630 -1.1531  1.5690 -0.4953
   16MOL   H26414694   1.454   2.299   2.619  1.0963 -1.8913 -1.1558
   16MOL   H26514695   1.488   2.260   2.787 -3.0662 -3.3650 -2.1913
   16MOL   H26614696   1.687   2.163   2.584 -1.4572 -0.6287 -0.0652
   16MOL   H26714697   1.696   2.142   2.754 -1.9428  1.1338  1.1828
   16MOL   H26814698   1.461   2.017   2.609  0.6396 -0.8958 -0.4767
   16MOL   H26914699   1.485   1.998   2.770 -1.1480 -2.3270 -0.0315
   16MOL   H27014700   1.564   1.810   2.685 -0.9512  0.8495 -0.9543
   16MOL   H27114701   1.716   1.883   2.717 -0.0815 -3.1627 -0.2563
   16MOL   H27214702   1.741   1.947   2.487 -1.2538  1.2036  0.5879
   16MOL   H27314703   1.581   1.912   2.436  1.9061  2.1744 -0.6976
   16MOL   H27414704   1.625   1.663   2.499  1.6509 -0.9644  1.3536
   16MOL   H27514705   1.779   1.711   2.531  0.4110  1.1163 -0.3882
   16MOL   H27614706   1.823   1.792   2.302  0.9482 -2.0647 -1.8720
   16MOL   H27714707   1.654   1.775   2.260 -0.6182 -0.8880 -1.1053
   16MOL   H27814708   1.786   1.520   2.358  0.0974 -0.5990 -0.8157
   16MOL   H27914709   1.682   1.543   2.220 -0.9658 -0.9607  1.8723
   16MOL   H28014710   1.917   1.484   2.148  0.0686 -0.8807  0.3792
   16MOL   H28114711   1.980   1.623   2.238 -1.1283 -0.6848  0.7420
   16MOL   H28214712   1.983   1.828   1.844 -0.6320  0.5059  0.1383
   16MOL   H28314713   1.944   1.689   1.757 -0.0451 -0.2309  0.8400
   16MOL   H28414714   1.706   1.697   1.878  1.7158 -3.2473 -2.6016
   16MOL   H28514715   1.743   1.774   1.722 -0.8353 -0.9340 -0.3909
   16MOL   H28614716   1.699   1.891   2.006 -1.5418  0.1568  0.0445
   16MOL   H28714717   1.598   1.907   1.885  0.1909 -1.1665  0.3312
   16MOL   H28814718   1.883   2.012   1.851  0.3208  2.2715  2.3354
   16MOL   H28914719   1.781   2.116   1.933 -0.9231 -1.0328  1.3615
   16MOL   O29014720   1.612   2.037   1.667 -0.4153 -0.4549 -0.1388
   16MOL   C29114721   1.583   2.049   1.528  0.2548  0.3705  0.9605
   16MOL   C29214722   1.493   1.937   1.472 -0.2718 -0.1381  0.4490
   16MOL   C29314723   1.374   1.913   1.569 -0.1953  0.1373 -0.3905
   16MOL   C29414724   1.273   1.814   1.500  0.1561  0.0068  0.0618
   16MOL   C29514725   1.145   1.781   1.579 -0.8967 -0.1360 -0.0042
   16MOL   C29614726   1.144   1.647   1.661  0.8671 -0.6032 -0.1193
   16MOL   C29714727   0.995   1.608   1.684  0.0179  0.2837 -0.4229
   16MOL   C29814728   0.974   1.490   1.773  0.0157 -0.0026  0.1200
   16MOL   C29914729   0.824   1.464   1.802  0.6336  0.1655 -0.5769
   16MOL   C30014730   0.792   1.360   1.911  0.1190 -0.3789  0.3921
   16MOL   O30114731   0.852   1.232   1.889  0.0777  0.3245  0.4227
   16MOL   C30214732   0.834   1.134   1.986  0.1041  0.6968  0.0889
   16MOL   O30314733   0.760   1.155   2.085 -0.1865 -0.0977 -0.5710
   16MOL   C30414734   0.890   0.991   1.959 -0.3053 -0.1154 -0.1349
   16MOL   C30514735   1.045   0.989   1.933 -0.1421 -0.5549  0.7518
   16MOL   C30614736   1.095   0.848   1.887 -0.1842  0.6371  0.3824
   16MOL   C30714737   1.101   0.741   1.995  0.2618 -0.3849 -0.3195
   16MOL   C30814738   1.200   0.761   2.112  0.5876  0.0563  0.3317
   16MOL   O30914739   1.315   0.813   2.092  0.2889  0.0752  0.1806
   16MOL   H31014740   1.531   2.144   1.513  0.4442  0.2171 -0.7723
   16MOL   H31114741   1.674   2.052   1.469 -0.3930 -1.2867 -0.1316
   16MOL   H31214742   1.552   1.845   1.465  1.7634  1.0669  1.1450
   16MOL   H31314743   1.464   1.971   1.373  0.5991 -1.6774 -0.3662
   16MOL   H31414744   1.402   1.864   1.663  1.0590 -0.6145 -1.1360
   16MOL   H31514745   1.328   2.008   1.596 -0.1516  0.0240  0.1015
   16MOL   H31614746   1.321   1.727   1.456 -0.7430 -2.1589  3.1789
   16MOL   H31714747   1.239   1.872   1.414  0.3159 -0.5871 -0.4037
   16MOL   H31814748   1.059   1.780   1.512 -1.3225 -0.0612  0.5394
   16MOL   H31914749   1.127   1.864   1.647 -0.7606  2.3078 -2.8705
   16MOL   H32014750   1.197   1.660   1.755 -0.2443  3.1930  0.0620
   16MOL   H32114751   1.199   1.566   1.613 -0.5508 -2.2395  0.9621
   16MOL   H32214752   0.944   1.590   1.589 -0.0377  0.3923 -0.4143
   16MOL   H32314753   0.941   1.690   1.733 -2.9167 -1.2985 -0.8875
   16MOL   H32414754   1.031   1.501   1.865 -1.0921 -4.1694  1.4443
   16MOL   H32514755   1.013   1.397   1.732 -1.8407 -0.7043 -0.1037
   16MOL   H32614756   0.773   1.559   1.817  0.0218 -0.3575  0.7522
   16MOL   H32714757   0.792   1.430   1.703  1.2373  1.1259 -1.1004
   16MOL   H32814758   0.689   1.345   1.943 -0.3900  0.7766 -0.6402
   16MOL   H32914759   0.848   1.391   1.999 -0.7693  5.2649 -0.8524
   16MOL   H33014760   0.874   0.947   2.058 -0.5993 -0.2859 -0.2566
   16MOL   H33114761   0.814   0.943   1.897 -1.2526  0.8310  0.2806
   16MOL   H33214762   1.106   1.014   2.020  0.5988  0.0106  0.0758
   16MOL   H33314763   1.075   1.060   1.856  0.6446  0.2619  1.8056
   16MOL   H33414764   1.191   0.860   1.837  1.3602  1.3503  3.3496
   16MOL   H33514765   1.031   0.808   1.809  0.5778 -0.9884  0.5695
   16MOL   H33614766   1.136   0.651   1.944 -0.0477 -0.8348  0.2650
   16MOL   H33714767   1.008   0.702   2.036 -0.5466  1.9594  0.1613
   16MOL   O33814768   1.134   0.723   2.228 -0.0304 -0.0176 -0.4475
   16MOL   C33914769   1.209   0.737   2.348 -0.8407  0.2054 -0.0808
   16MOL   C34014770   1.310   0.620   2.382  0.5236  0.7299 -0.2516
   16MOL   C34114771   1.230   0.498   2.402 -0.3546  0.3577  0.2809
   16MOL   C34214772   1.315   0.376   2.449 -0.2325 -0.0965  0.5384
   16MOL   C34314773   1.327   0.367   2.607 -0.5388  0.4693  0.6932
   16MOL   C34414774   1.434   0.264   2.663 -0.0684  0.3787 -0.7170
   16MOL   C34514775   1.440   0.280   2.812 -0.4379  0.7679  0.3581
   16MOL   C34614776   1.556   0.221   2.891  0.4411  0.3856  0.2037
   16MOL   C34714777   1.585   0.075   2.846  0.7815  0.1149 -1.1631
   16MOL   C34814778   1.698   0.007   2.931  0.2343 -0.6075  0.1221
   16MOL   O34914779   1.817   0.071   2.921 -0.6824 -0.4727 -0.4349
   16MOL   C35014780   1.935   0.012   2.975  1.1079 -0.2094  0.2047
   16MOL   O35114781   1.936   7.673   3.037  0.3042 -0.1953 -0.3180
   16MOL   C35214782   2.062   0.087   2.941 -0.6261 -0.8289 -0.8709
   16MOL   C35314783   2.105   0.073   2.793  0.3299  0.5153  0.0493
   16MOL   C35414784   2.148   7.698   2.761 -0.1362 -0.0305 -0.2203
   16MOL   C35514785   2.194   7.677   2.605 -0.1823  0.2440 -0.5510
   16MOL   C35614786   2.301   0.012   2.558  0.0808 -0.2859 -0.1849
   16MOL   O35714787   2.419   7.753   2.599 -0.3039 -0.6467 -0.1578
   16MOL   H35814788   1.254   0.836   2.354 -2.4715  0.9427  0.3251
   16MOL   H35914789   1.135   0.737   2.428  0.8470  0.7855  1.5331
   16MOL   H36014790   1.357   0.657   2.474  0.8925  1.6880 -0.8200
   16MOL   H36114791   1.385   0.608   2.304  1.5098 -0.5620  0.8744
   16MOL   H36214792   1.139   0.507   2.462 -0.5708  0.0230  0.0067
   16MOL   H36314793   1.185   0.462   2.309 -1.7243  0.5149  0.8641
   16MOL   H36414794   1.411   0.385   2.399  0.2404 -0.7785  1.3192
   16MOL   H36514795   1.278   0.283   2.405  1.7851 -1.0219  0.7420
   16MOL   H36614796   1.235   0.332   2.653 -0.9850 -0.3314 -0.7534
   16MOL   H36714797   1.345   0.469   2.642 -3.3975  1.4536 -0.5803
   16MOL   H36814798   1.526   0.298   2.615 -0.9444  2.7213 -0.8161
   16MOL   H36914799   1.416   0.160   2.638  0.2170  0.7414 -2.4453
   16MOL   H37014800   1.342   0.250   2.850 -1.0935  0.3327 -1.6419
   16MOL   H37114801   1.443   0.384   2.845  1.6024  0.4608  1.2723
   16MOL   H37214802   1.538   0.217   2.998 -0.6934  2.2416  0.1135
   16MOL   H37314803   1.643   0.286   2.886 -0.3241  1.5413  1.4884
   16MOL   H37414804   1.493   0.016   2.855  0.8524 -0.3249 -3.1214
   16MOL   H37514805   1.625   0.090   2.746  1.3521  1.6344 -0.7186
   16MOL   H37614806   1.693   7.672   2.887 -0.8905  0.2637 -1.7905
   16MOL   H37714807   1.675   7.762   3.037 -0.2531  0.8573  0.1617
   16MOL   H37814808   2.040   0.190   2.972  1.9875 -0.0625 -1.4068
   16MOL   H37914809   2.138   0.049   3.009 -1.0610 -0.4657 -0.1714
   16MOL   H38014810   2.191   0.140   2.791  0.3996  0.4449  0.5015
   16MOL   H38114811   2.020   0.107   2.734 -0.9772 -1.7033  0.6071
   16MOL   H38214812   2.063   7.636   2.790  0.1756  0.4365  1.7650
   16MOL   H38314813   2.225   7.666   2.831  0.0854  0.1798 -0.3670
   16MOL   H38414814   2.106   7.684   2.542  0.1116 -0.0268 -1.0008
   16MOL   H38514815   2.239   7.579   2.589  0.8614  0.8987 -1.7407
   16MOL   O38614816   2.259   0.109   2.484 -0.0189 -0.0741 -0.3887
   16MOL   C38714817   2.350   0.203   2.419  0.3636  0.2960 -0.2537
   16MOL   C38814818   2.374   0.139   2.282  1.0802 -0.5855  0.7128
   16MOL   C38914819   2.414   0.240   2.177  0.2825  0.3461 -0.3987
   16MOL   C39014820   2.411   0.192   2.034 -0.4414 -0.3499  0.0153
   16MOL   C39114821   2.434   0.303   1.939  0.1228  0.2648 -0.5017
   16MOL   C39214822   2.449   0.237   1.797 -0.1409  0.0815  0.1246
   16MOL   C39314823   2.573   0.153   1.773  0.2275 -0.1436 -0.5685
   16MOL   C39414824   2.609   0.126   1.623  0.6508  0.1789  0.3775
   16MOL   C39514825   2.740   0.049   1.600  1.1181 -0.1517 -0.4358
   16MOL   C39614826   2.766   0.034   1.449  0.4258  0.3333  0.1748
   16MOL   O39714827   2.673   7.697   1.424  0.1835  0.0565 -0.7534
   16MOL   C39814828   2.709   7.565   1.431  0.5263 -0.1080 -0.6770
   16MOL   O39914829   2.818   7.521   1.460 -0.1424 -0.1799  0.5612
   16MOL   C40014830   2.590   7.467   1.414 -0.4048  0.2989  0.1142
   16MOL   C40114831   2.501   7.459   1.540  0.3921  0.6086 -0.2764
   16MOL   C40214832   2.547   7.363   1.655  0.1895  0.0689  0.0776
   16MOL   C40314833   2.442   7.366   1.770  0.1482  0.1770  0.3442
   16MOL   C40414834   2.442   7.496   1.859  0.1417 -0.2662  0.5898
   16MOL   O40514835   2.529   7.574   1.882 -0.5680  0.1467  0.7199
   16MOL   H40614836   2.308   0.303   2.415  0.7065  0.4671  0.3972
   16MOL   H40714837   2.442   0.203   2.477  1.0261  0.3131 -1.3005
   16MOL   H40814838   2.284   0.089   2.248 -0.0559  0.7401  1.7224
   16MOL   H40914839   2.457   0.069   2.299  0.2518 -1.0374  3.0820
   16MOL   H41014840   2.349   0.328   2.184 -0.7299 -0.5422  2.1247
   16MOL   H41114841   2.518   0.259   2.204 -0.1303  1.2525  0.6021
   16MOL   H41214842   2.310   0.156   2.019 -0.8881  0.4356  1.0496
   16MOL   H41314843   2.476   0.105   2.020 -0.8398 -0.7431  0.5393
   16MOL   H41414844   2.514   0.372   1.964 -0.2607  1.4305 -2.4354
   16MOL   H41514845   2.357   0.379   1.946  0.0324  0.1988 -0.7981
   16MOL   H41614846   2.460   0.317   1.724  1.0564 -0.8477 -0.7342
   16MOL   H41714847   2.364   0.174   1.772 -0.4277 -0.6195  2.6938
   16MOL   H41814848   2.568   0.054   1.819  2.6914  0.0791  0.2440
   16MOL   H41914849   2.661   0.197   1.821  0.9115 -0.8953 -1.1026
   16MOL   H42014850   2.610   0.220   1.569 -1.9599  0.3494  0.5650
   16MOL   H42114851   2.528   0.067   1.580  0.0764  1.1636  0.1012
   16MOL   H42214852   2.823   0.098   1.651 -0.4075 -0.8736  2.9235
   16MOL   H42314853   2.736   7.722   1.659 -1.9390 -0.1172 -0.5158
   16MOL   H42414854   2.870   0.003   1.431  0.1096  1.1790 -3.5204
   16MOL   H42514855   2.742   0.128   1.402 -3.3065 -0.8425 -0.3846
   16MOL   H42614856   2.526   7.511   1.337  0.4702  1.9526  0.2923
   16MOL   H42714857   2.627   7.375   1.369 -0.5928  0.7574 -0.9937
   16MOL   H42814858   2.405   7.424   1.501  0.6380  0.5777 -0.8578
   16MOL   H42914859   2.492   7.561   1.578  0.7265  1.2367 -1.8722
   16MOL   H43014860   2.642   7.402   1.691  1.8544 -2.5928 -1.2245
   16MOL   H43114861   2.568   7.265   1.613 -0.3424 -0.1335  0.2797
   16MOL   H43214862   2.460   7.284   1.840 -1.0558 -0.6040 -0.2324
   16MOL   H43314863   2.340   7.358   1.732  0.1543 -0.3458  0.4333
   16MOL   O43414864   2.315   7.518   1.908  0.2004 -0.5952 -0.3924
   16MOL   C43514865   2.284   7.633   1.989 -0.1773  0.2838  0.2463
   16MOL   C43614866   2.157   7.602   2.071 -0.5290  0.0792  0.1807
   16MOL   C43714867   2.168   7.504   2.182  0.7534 -0.1736 -0.1262
   16MOL   C43814868   2.204   7.351   2.136 -0.8998  0.6107 -0.0405
   16MOL   C43914869   2.099   7.278   2.060  0.2683  0.2371 -0.3425
   16MOL   C44014870   2.132   7.133   2.017 -0.3940  0.1855  0.0727
   16MOL   C44114871   2.159   7.048   2.141  0.2685  0.3896  0.6451
   16MOL   C44214872   2.170   6.900   2.091 -1.0985  0.0733 -0.2792
   16MOL   C44314873   2.166   6.794   2.204  0.8128  0.4101 -0.8694
   16MOL   C44414874   2.170   6.653   2.150 -0.0653  0.1174 -0.2919
   16MOL   O44514875   2.178   6.578   2.270  0.2309 -0.6381 -0.1386
   16MOL   C44614876   2.185   6.447   2.270 -0.0342 -0.0686 -0.0735
   16MOL   O44714877   2.185   6.374   2.167  0.0952 -0.0114 -0.3898
   16MOL   C44814878   2.213   6.401   2.415  0.4169 -0.7396  0.0510
   16MOL   C44914879   2.224   6.250   2.435 -0.7123 -0.3161  0.2402
   16MOL   C45014880   2.190   6.208   2.582 -0.2370  0.0896  0.1248
   16MOL   C45114881   2.210   6.056   2.585 -1.4390  0.6151 -0.4802
   16MOL   C45214882   2.189   5.997   2.723  0.4970  0.3718  0.4553
   16MOL   O45314883   2.129   5.888   2.746 -0.1818 -0.5704  0.2145
   16MOL   H45414884   2.361   7.648   2.065  1.3043 -1.1885 -0.9358
   16MOL   H45514885   2.290   7.723   1.929  0.0076 -0.5221 -0.9579
   16MOL   H45614886   2.075   7.567   2.008 -1.6934  0.2166  1.5797
   16MOL   H45714887   2.117   7.693   2.114  0.5294 -0.0442  1.4384
   16MOL   H45814888   2.235   7.556   2.250  0.3402 -1.6726  1.4395
   16MOL   H45914889   2.075   7.515   2.236  0.7147 -0.8997 -0.0401
   16MOL   H46014890   2.222   7.295   2.227 -1.5240 -0.3934 -0.5218
   16MOL   H46114891   2.298   7.347   2.080 -0.0511 -3.4968  1.5151
   16MOL   H46214892   2.059   7.337   1.978 -4.2310 -0.2071  1.3894
   16MOL   H46314893   2.020   7.268   2.135  2.4937  0.6657  2.1287
   16MOL   H46414894   2.217   7.138   1.949  0.1924  0.7455  0.8486
   16MOL   H46514895   2.048   7.089   1.962 -1.0548  0.3007  0.9829
   16MOL   H46614896   2.082   7.041   2.218 -0.0691  2.3833  0.5135
   16MOL   H46714897   2.243   7.086   2.200 -1.5415  2.6981  1.8512
   16MOL   H46814898   2.261   6.883   2.034 -0.5340  3.3354 -0.4123
   16MOL   H46914899   2.092   6.872   2.020  0.1672 -0.2292 -1.5797
   16MOL   H47014900   2.242   6.804   2.281 -0.0760  0.0870  0.0688
   16MOL   H47114901   2.070   6.789   2.255 -0.1151  0.0652 -2.6080
   16MOL   H47214902   2.262   6.639   2.094  0.5102 -2.1169  1.1649
   16MOL   H47314903   2.082   6.629   2.089  0.5154 -2.4774 -0.1658
   16MOL   H47414904   2.302   6.447   2.458  0.4390 -0.4116 -0.3468
   16MOL   H47514905   2.123   6.437   2.465 -0.4847  1.1113 -2.7425
   16MOL   H47614906   2.322   6.220   2.399  0.3030  2.4049  0.5985
   16MOL   H47714907   2.157   6.205   2.361 -1.0578  0.7659 -0.1210
   16MOL   H47814908   2.086   6.239   2.590 -1.0457 -2.3107 -0.5539
   16MOL   H47914909   2.248   6.255   2.661 -0.8896 -0.5764  1.0156
   16MOL   H48014910   2.311   6.027   2.556 -1.9224 -0.3888 -1.1816
   16MOL   H48114911   2.149   6.003   2.513  0.7589 -1.1867 -1.0840
   16MOL   O48214912   2.241   6.082   2.816  0.5332  0.3380 -0.4382
   16MOL   C48314913   2.201   6.086   2.955 -0.6310 -0.1989 -0.5543
   16MOL   C48414914   2.119   6.216   2.993 -0.3827  0.4393  0.5058
   16MOL   C48514915   2.217   6.315   3.054 -0.4257 -0.7172 -0.0938
   16MOL   C48614916   2.158   6.455   3.091  0.9661  0.0015 -0.4361
   16MOL   C48714917   2.261   6.576   3.097 -0.1648 -0.0887 -0.6454
   16MOL   C48814918   2.194   6.714   3.125  0.0585 -0.0125 -0.5216
   16MOL   C48914919   2.299   6.820   3.149 -0.2592 -0.1428 -0.4440
   16MOL   C49014920   2.387   6.806   3.274  0.0975 -0.3717  0.2998
   16MOL   C49114921   2.464   6.932   3.304 -0.4968  0.2174 -0.3480
   16MOL   C49214922   2.546   6.922   3.433  0.5324  0.1257  0.0025
   16MOL   O49314923   2.608   7.044   3.450  0.2075 -0.1397 -0.0259
   16MOL   C49414924   2.739   7.054   3.425  0.3372 -0.0209 -0.2922
   16MOL   O49514925   2.808   6.956   3.391  0.6543  0.1681  0.0716
   16MOL   C49614926   2.794   7.196   3.463  0.1247  0.4091  0.7257
   16MOL   C49714927   2.942   7.215   3.433 -0.2859 -0.0542 -0.5631
   16MOL   C49814928   2.984   7.359   3.473  0.7719  0.7406  0.8128
   16MOL   C49914929   3.136   7.396   3.446 -0.2262  0.0341  0.6607
   16MOL   C50014930   3.191   7.514   3.526  0.1616  1.0114  0.4572
   16MOL   O50114931   3.118   7.563   3.611 -0.1388  0.1213  0.2593
   16MOL   H50214932   2.132   6.002   2.964 -0.1485 -0.9972 -3.8150
   16MOL   H50314933   2.289   6.070   3.018 -1.9608  0.0810  1.4350
   16MOL   H50414934   2.052   6.180   3.072  1.4989 -1.6860  1.2071
   16MOL   H50514935   2.057   6.255   2.913  2.7332 -2.4636 -3.5106
   16MOL   H50614936   2.276   6.275   3.136 -0.7095 -3.1759 -1.0401
   16MOL   H50714937   2.300   6.337   2.986 -0.3225 -0.0409  0.2446
   16MOL   H50814938   2.108   6.454   3.188  0.3513 -0.3847 -0.7550
   16MOL   H50914939   2.084   6.489   3.018  2.5809 -0.0562 -2.1282
   16MOL   H51014940   2.326   6.581   3.010  1.7835 -1.8461  0.6741
   16MOL   H51114941   2.328   6.539   3.174  1.4980 -1.0655 -2.5175
   16MOL   H51214942   2.135   6.711   3.217  2.4226 -0.9400  1.0364
   16MOL   H51314943   2.134   6.752   3.043  1.7852  0.2435 -1.6991
   16MOL   H51414944   2.249   6.917   3.151 -1.0890 -0.5933  0.6427
   16MOL   H51514945   2.371   6.829   3.067 -0.3765 -3.2334 -0.9566
   16MOL   H51614946   2.463   6.728   3.263 -0.9187 -1.5914  1.8012
   16MOL   H51714947   2.330   6.777   3.361  1.5863 -0.9579  1.1016
   16MOL   H51814948   2.528   6.955   3.219  0.1394  3.1347  0.8724
   16MOL   H51914949   2.389   7.010   3.319  0.2276  0.7841  0.4390
   16MOL   H52014950   2.611   6.840   3.405  0.3789  0.0366 -0.0961
   16MOL   H52114951   2.472   6.898   3.509 -1.3846 -0.6005 -2.0297
   16MOL   H52214952   2.737   7.265   3.401  2.2363 -0.1093 -1.8814
   16MOL   H52314953   2.766   7.217   3.566 -2.4992  0.2616  0.0856
   16MOL   H52414954   2.964   7.200   3.327 -0.3125 -0.6873 -0.4816
   16MOL   H52514955   3.006   7.146   3.488 -0.8153 -0.1847 -0.1039
   16MOL   H52614956   2.954   7.365   3.577  1.2188  1.1590  0.9184
   16MOL   H52714957   2.917   7.419   3.412 -2.0108 -1.4919  1.5941
   16MOL   H52814958   3.155   7.422   3.342 -0.7611 -2.4573 -0.1039
   16MOL   H52914959   3.184   7.299   3.457 -0.4003 -0.4005 -2.0165
   16MOL   O53014960   3.319   7.539   3.502 -0.4382 -0.0773 -0.2651
   16MOL   C53114961   3.387   7.631   3.585  0.0060 -0.5358 -0.9822
   16MOL   C53214962   3.496   7.548   3.642 -0.1306 -1.1764  0.4321
   16MOL   C53314963   3.588   7.617   3.739  0.0463 -0.2490  1.2941
   16MOL   C53414964   3.713   7.534   3.773  0.2428 -0.2898 -0.6238
   16MOL   C53514965   3.812   7.607   3.869 -0.3311 -0.3730 -0.7274
   16MOL   C53614966   3.938   7.527   3.902  0.5505 -0.2264  0.5403
   16MOL   C53714967   4.030   7.581   4.014  0.3746  0.2247  0.5568
   16MOL   C53814968   4.100   7.466   4.090 -0.6818  0.5175  0.1546
   16MOL   C53914969   4.208   7.386   4.009  0.0636 -0.2833  0.1410
   16MOL   C54014970   4.261   7.251   4.072  0.2677 -0.7517  0.6276
   16MOL   O54114971   4.158   7.154   4.080 -0.1739 -0.2752 -0.2201
   16MOL   C54214972   4.176   7.043   4.159 -0.8791  0.6171  0.3331
   16MOL   O54314973   4.272   7.023   4.235 -0.3621  0.1445  0.3672
   16MOL   C54414974   4.067   6.937   4.128  0.0852  0.1094  0.1392
   16MOL   C54514975   3.936   6.976   4.188  0.0448 -0.7119  0.6067
   16MOL   C54614976   3.847   7.054   4.092  0.6122  0.5174  0.2875
   16MOL   C54714977   3.766   6.978   3.983  0.2162 -0.5793 -0.2964
   16MOL   C54814978   3.643   6.903   4.035  0.8215  0.2177 -0.3493
   16MOL   O54914979   3.537   6.963   4.079 -0.0012  0.3593 -0.0173
   16MOL   H55014980   3.415   7.718   3.525  1.2983 -0.4485 -0.2656
   16MOL   H55114981   3.318   7.667   3.661  0.3009 -1.7550 -0.1186
   16MOL   H55214982   3.553   7.508   3.557 -1.0943 -1.8018  0.0658
   16MOL   H55314983   3.457   7.454   3.682  2.2078 -2.1754  0.4510
   16MOL   H55414984   3.617   7.710   3.691 -1.9539 -1.1792 -1.7904
   16MOL   H55514985   3.518   7.629   3.822 -2.6681  0.6040 -1.0891
   16MOL   H55614986   3.759   7.509   3.677 -0.3506 -0.9547 -0.7449
   16MOL   H55714987   3.677   7.445   3.824 -0.9239  0.9717  0.8232
   16MOL   H55814988   3.757   7.621   3.962  1.9297  0.9965  0.4288
   16MOL   H55914989   3.832   7.703   3.822  0.4638 -0.7595 -1.1802
   16MOL   H56014990   4.006   7.519   3.817  1.7078  2.5256  1.1580
   16MOL   H56114991   3.909   7.424   3.925 -0.5319 -0.0183  0.1687
   16MOL   H56214992   3.972   7.630   4.092 -0.7738 -0.7110  0.2901
   16MOL   H56314993   4.107   7.649   3.976  0.4011 -1.0507 -1.7534
   16MOL   H56414994   4.019   7.398   4.115 -0.7993  0.7810  0.4861
   16MOL   H56514995   4.136   7.499   4.187 -0.2120  1.5201 -0.3481
   16MOL   H56614996   4.168   7.356   3.912 -0.3494 -1.1273  0.5639
   16MOL   H56714997   4.287   7.459   3.994 -0.2971 -0.3031 -1.9084
   16MOL   H56814998   4.304   7.267   4.170  0.8601 -3.2694  0.8173
   16MOL   H56914999   4.341   7.210   4.010 -2.4100 -1.5677 -2.4819
   16MOL   H57015000   4.061   6.940   4.019 -1.1250 -0.6601  0.1739
   16MOL   H57115001   4.100   6.836   4.151  2.3360  0.6357 -0.6786
   16MOL   H57215002   3.943   7.035   4.279  0.8393 -0.7508  0.5768
   16MOL   H57315003   3.877   6.890   4.221 -0.4986 -0.5637  0.0217
   16MOL   H57415004   3.904   7.140   4.057  0.9735  0.4323  0.6678
   16MOL   H57515005   3.779   7.113   4.153 -0.5889 -2.1527  1.6130
   16MOL   H57615006   3.841   6.908   3.947  0.8258  0.8568 -1.9242
   16MOL   H57715007   3.736   7.043   3.900 -0.1228  0.1361  0.3742
   16MOL   O57815008   3.663   6.769   4.039  0.2190 -0.2484 -0.1509
   16MOL   C57915009   3.548   6.690   4.083  0.9132  0.0926 -0.4844
   16MOL   C58015010   3.541   6.703   4.234  0.5179  0.3009 -0.7033
   16MOL   C58115011   3.437   6.599   4.299 -0.2476 -0.2708  0.1593
   16MOL   C58215012   3.462   6.560   4.447  0.8523  0.0889 -0.1159
   16MOL   C58315013   3.370   6.454   4.499  0.1936  0.2102  0.1033
   16MOL   C58415014   3.223   6.488   4.520  0.2557 -0.2926 -0.0722
   16MOL   C58515015   3.143   6.357   4.562 -0.8611 -0.1012  0.2185
   16MOL   C58615016   2.989   6.375   4.560  0.7290  0.0639 -0.1672
   16MOL   C58715017   2.904   6.253   4.532  0.1085  0.1684 -0.3710
   16MOL   C58815018   2.759   6.293   4.532 -0.1325  0.1360 -0.3100
   16MOL   O58915019   2.721   6.306   4.668 -0.5141 -0.2016  0.4134
   16MOL   C59015020   2.600   6.354   4.708  0.5267 -0.4323 -0.3061
   16MOL   O59115021   2.497   6.372   4.641 -0.0845  0.6083  0.0786
   16MOL   C59215022   2.587   6.372   4.865 -0.5293  0.5059 -0.3232
   16MOL   C59315023   2.444   6.366   4.916  0.7493 -0.6551 -0.2103
   16MOL   C59415024   2.423   6.379   5.068  0.9589 -0.7761  0.0692
   16MOL   C59515025   2.279   6.381   5.112  0.5963 -0.1662  0.4701
   16MOL   C59615026   2.242   6.241   5.160  0.8512  0.4278 -0.0698
   16MOL   O59715027   2.230   6.208   5.280 -0.1468 -0.3036 -0.4365
   16MOL   H59815028   3.462   6.717   4.022  0.7731  1.8430  0.4729
   16MOL   H59915029   3.574   6.586   4.061  0.4919 -0.2219  0.5219
   16MOL   H60015030   3.518   6.804   4.266  1.1371 -0.1429  1.2030
   16MOL   H60115031   3.638   6.678   4.277  0.7904  0.4413 -1.2366
   16MOL   H60215032   3.334   6.634   4.291 -0.0853  0.4328  1.0992
   16MOL   H60315033   3.444   6.516   4.229  0.9102 -0.3470  0.3549
   16MOL   H60415034   3.450   6.646   4.513 -1.7544  1.0858 -1.8030
   16MOL   H60515035   3.568   6.536   4.441  0.8522 -0.1279  0.7805
   16MOL   H60615036   3.415   6.408   4.587 -0.3938  0.8597  0.7432
   16MOL   H60715037   3.380   6.373   4.427 -0.9760  0.8357 -0.7840
   16MOL   H60815038   3.188   6.531   4.426  2.7485 -0.9113 -1.3278
   16MOL   H60915039   3.219   6.565   4.597 -0.9385 -2.4882  2.1213
   16MOL   H61015040   3.176   6.347   4.665 -0.1838  0.3692  0.0465
   16MOL   H61115041   3.170   6.269   4.503  1.2921  2.0698 -2.1129
   16MOL   H61215042   2.973   6.454   4.486 -3.6835 -1.3369 -0.8962
   16MOL   H61315043   2.967   6.407   4.662 -1.2352 -2.2082  0.1725
   16MOL   H61415044   2.924   6.220   4.430  3.4787  1.5250 -0.2334
   16MOL   H61515045   2.933   6.174   4.600 -1.7471 -0.8882 -0.7740
   16MOL   H61615046   2.704   6.214   4.479  2.0539 -0.8413 -1.1584
   16MOL   H61715047   2.744   6.380   4.469  1.8412 -0.8225 -2.1685
   16MOL   H61815048   2.647   6.286   4.896  0.0449 -0.1546 -3.1412
   16MOL   H61915049   2.637   6.466   4.889  0.3192 -0.6369  2.6400
   16MOL   H62015050   2.399   6.276   4.874  1.1597 -1.4233  0.9869
   16MOL   H62115051   2.387   6.450   4.876  3.3001  1.5708  0.6124
   16MOL   H62215052   2.462   6.478   5.092  1.0692 -0.9544  0.6235
   16MOL   H62315053   2.485   6.311   5.126 -0.1321 -0.4047  1.6753
   16MOL   H62415054   2.220   6.419   5.029  0.9497 -0.2812  0.1636
   16MOL   H62515055   2.276   6.456   5.191  0.4290  0.8017 -0.4409
   16MOL   O62615056   2.229   6.151   5.058  0.3055 -0.0439  0.1428
   16MOL   C62715057   2.223   6.014   5.094  0.2650  0.2146  0.4747
   16MOL   C62815058   2.197   5.931   4.961  0.3362  0.1545 -0.8204
   16MOL   C62915059   2.150   5.784   4.997  0.3359  0.3969 -0.0108
   16MOL   C63015060   2.166   5.688   4.881 -0.0749 -0.6003  0.1288
   16MOL   C63115061   2.312   5.645   4.851 -0.6831  0.0524 -0.7879
   16MOL   C63215062   2.318   5.549   4.726 -0.6585  0.9154  0.0266
   16MOL   C63315063   2.459   5.481   4.695 -0.0110 -0.4934  0.2556
   16MOL   C63415064   2.456   5.383   4.572  0.3638 -0.0460 -0.6447
   16MOL   C63515065   2.575   5.283   4.576  0.1179 -0.1376 -0.2423
   16MOL   C63615066   2.580   5.177   4.465  0.1539 -0.4730  0.5516
   16MOL   O63715067   2.486   5.079   4.500 -1.0542  0.3726 -0.5971
   16MOL   C63815068   2.487   4.964   4.430 -0.2147 -0.3874 -0.2689
   16MOL   O63915069   2.564   4.940   4.342  0.5411 -0.6297 -0.3753
   16MOL   C64015070   2.373   4.867   4.472  0.2725 -0.1183 -0.5165
   16MOL   C64115071   2.427   4.733   4.511  0.6121 -0.2444 -0.2502
   16MOL   C64215072   2.555   4.732   4.600 -0.2753  0.3887  0.1385
   16MOL   C64315073   2.576   4.592   4.640 -0.1198 -0.0345 -0.2319
   16MOL   C64415074   2.639   4.571   4.776 -0.5505  0.4909  0.5046
   16MOL   O64515075   2.760   4.546   4.785 -0.5035 -0.4146 -0.2279
   16MOL   H64615076   2.321   5.992   5.138  0.2933 -0.7753 -0.0558
   16MOL   H64715077   2.149   6.004   5.173 -1.4848  2.2424 -0.8756
   16MOL   H64815078   2.292   5.933   4.906  1.8992 -1.6871  1.6905
   16MOL   H64915079   2.120   5.974   4.898 -0.3128  0.1518 -0.0283
   16MOL   H65015080   2.191   5.740   5.088 -0.3076 -1.1986 -0.4804
   16MOL   H65115081   2.042   5.794   5.009  0.2880 -1.7201  1.4343
   16MOL   H65215082   2.103   5.717   4.797  1.2663  1.6054 -0.1663
   16MOL   H65315083   2.114   5.597   4.911 -0.5704 -0.6682 -0.9297
   16MOL   H65415084   2.353   5.590   4.936 -1.7630 -0.8896 -0.8579
   16MOL   H65515085   2.374   5.731   4.830 -1.2969  1.3084  2.2940
   16MOL   H65615086   2.279   5.602   4.639  0.2482 -0.4054 -1.2075
   16MOL   H65715087   2.242   5.476   4.752 -1.1929  1.0900 -1.0323
   16MOL   H65815088   2.508   5.437   4.781 -0.7207 -1.3280  0.2405
   16MOL   H65915089   2.527   5.553   4.649  1.5271 -2.0900 -0.0249
   16MOL   H66015090   2.455   5.432   4.475  0.5699  2.0606  0.3896
   16MOL   H66115091   2.374   5.316   4.596  1.5013 -1.2220  0.0652
   16MOL   H66215092   2.662   5.350   4.577 -1.6767  2.2644  3.0275
   16MOL   H66315093   2.575   5.228   4.669  1.5404  0.7772  0.3181
   16MOL   H66415094   2.680   5.136   4.464  0.4799  0.2908  1.1988
   16MOL   H66515095   2.571   5.207   4.361  1.1193  3.1057  1.4200
   16MOL   H66615096   2.339   4.918   4.562  2.0181 -0.1591  0.2029
   16MOL   H66715097   2.283   4.862   4.411 -0.0085  1.1619 -0.2229
   16MOL   H66815098   2.440   4.682   4.416  1.3172  0.2596 -0.4296
   16MOL   H66915099   2.343   4.678   4.555  1.9926 -1.2818  1.1322
   16MOL   H67015100   2.544   4.799   4.685  0.9435 -1.0854  1.4850
   16MOL   H67115101   2.642   4.767   4.543 -0.9695 -1.2181 -1.9797
   16MOL   H67215102   2.620   4.537   4.557 -0.7541  2.5715 -2.3920
   16MOL   H67315103   2.477   4.547   4.650 -0.4387  0.6666 -0.2179
   16MOL   O67415104   2.553   4.583   4.880  0.1219  0.0132  0.1521
   16MOL   C67515105   2.605   4.570   5.010  0.1099 -0.0255  0.5622
   16MOL   C67615106   2.480   4.555   5.094 -0.2358  0.1066  0.2355
   16MOL   C67715107   2.503   4.565   5.250 -0.3137 -0.5913  0.7059
   16MOL   C67815108   2.526   4.423   5.311 -0.0557 -0.8786 -0.4489
   16MOL   C67915109   2.552   4.412   5.463 -0.0497  0.3725  0.2234
   16MOL   C68015110   2.577   4.272   5.522  0.2029  0.6230 -0.1745
   16MOL   C68115111   2.463   4.172   5.513 -0.8054 -0.2307 -0.2166
   16MOL   C68215112   2.335   4.204   5.599 -0.5678  0.0200 -0.8619
   16MOL   C68315113   2.248   4.075   5.619 -0.6844 -0.2827 -0.5475
   16MOL   C68415114   2.129   4.104   5.709  0.7501 -0.2630 -0.7173
   16MOL   O68515115   2.019   4.177   5.646  0.1946 -0.4174 -0.4111
   16MOL   C68615116   1.904   4.209   5.712  0.8511 -0.4124 -0.5988
   16MOL   O68715117   1.879   4.190   5.829 -0.3285 -0.4023 -0.1492
   16MOL   C68815118   1.811   4.292   5.617 -0.8538 -0.9792  0.1498
   16MOL   C68915119   1.666   4.312   5.646  0.1183  0.2668  0.1397
   16MOL   C69015120   1.587   4.186   5.617  0.3323  0.5413 -0.3593
   16MOL   C69115121   1.434   4.197   5.649 -0.4664  1.1526  0.7188
   16MOL   C69215122   1.361   4.067   5.657 -0.2078 -0.0449  0.4158
   16MOL   O69315123   1.263   4.044   5.582 -0.0078  0.1956 -0.0198
   16MOL   H69415124   2.656   4.473   5.008 -3.4676 -1.9957  0.0873
   16MOL   H69515125   2.676   4.648   5.036  2.1220 -0.8173 -2.2802
   16MOL   H69615126   2.433   4.458   5.079 -0.2849  0.1828 -0.0996
   16MOL   H69715127   2.402   4.626   5.066 -2.8222 -2.4106  0.7791
   16MOL   H69815128   2.588   4.632   5.266 -0.0127 -0.5178 -1.0522
   16MOL   H69915129   2.420   4.622   5.291 -1.3598 -0.8428 -1.0112
   16MOL   H70015130   2.599   4.369   5.250  0.6250  0.7886 -1.1764
   16MOL   H70115131   2.434   4.366   5.310 -0.1458 -0.7455  0.4934
   16MOL   H70215132   2.475   4.463   5.521 -0.7370  2.3359 -2.3480
   16MOL   H70315133   2.645   4.465   5.485 -1.6370  4.1280 -1.6314
   16MOL   H70415134   2.613   4.286   5.624  0.1378 -0.6970  0.0345
   16MOL   H70515135   2.666   4.236   5.470 -0.2881  1.9104 -1.9459
   16MOL   H70615136   2.498   4.073   5.542  2.5571  0.8481 -0.4506
   16MOL   H70715137   2.435   4.165   5.408 -0.4212 -2.5637 -0.1784
   16MOL   H70815138   2.267   4.281   5.561 -0.0309  0.9236 -0.0188
   16MOL   H70915139   2.369   4.242   5.695 -2.1875  1.3666 -0.7833
   16MOL   H71015140   2.213   4.034   5.525 -2.1570  1.4996 -0.8027
   16MOL   H71115141   2.308   3.996   5.665  2.6428  1.4347 -1.7351
   16MOL   H71215142   2.175   4.166   5.786 -0.2796  0.7636 -0.9186
   16MOL   H71315143   2.099   4.013   5.761 -0.6172  1.6131  1.9254
   16MOL   H71415144   1.863   4.387   5.614  1.3335 -2.1892 -1.7834
   16MOL   H71515145   1.820   4.259   5.513 -0.7193  0.1467 -0.1958
   16MOL   H71615146   1.623   4.397   5.592 -3.8689 -1.0353  1.1019
   16MOL   H71715147   1.654   4.332   5.752  2.1955 -3.4413  1.1606
   16MOL   H71815148   1.625   4.105   5.679 -2.0082 -2.1262 -2.2675
   16MOL   H71915149   1.611   4.147   5.518  1.3547  2.3087 -0.8282
   16MOL   H72015150   1.383   4.265   5.580 -0.5823  1.7900  1.4268
   16MOL   H72115151   1.412   4.244   5.745 -1.3205  0.0476  1.0647
   16MOL   O72215152   1.411   3.984   5.751  0.2449  0.6307  0.2593
   16MOL   C72315153   1.346   3.868   5.784  0.6482 -0.0899 -0.1137
   16MOL   C72415154   1.460   3.761   5.795  0.1320  0.5267  0.3595
   16MOL   C72515155   1.409   3.621   5.839 -0.1488  0.0589  0.8223
   16MOL   C72615156   1.515   3.524   5.810 -0.5830  0.3453  0.4983
   16MOL   C72715157   1.474   3.382   5.850  0.0979 -0.3502  0.2676
   16MOL   C72815158   1.364   3.321   5.761  0.4916  0.2080  0.3046
   16MOL   C72915159   1.349   3.169   5.774 -0.3746 -0.0935 -0.0423
   16MOL   C73015160   1.213   3.138   5.703  0.5930  0.3177 -0.0586
   16MOL   C73115161   1.100   3.147   5.806 -1.1578  0.1851  0.1275
   16MOL   C73215162   0.967   3.116   5.746  0.1527  0.1025 -0.2461
   16MOL   O73315163   0.864   3.131   5.845 -0.0497  0.4592 -0.4587
   16MOL   C73415164   0.757   3.057   5.834 -0.1697  0.0407  0.2608
   16MOL   O73515165   0.740   2.958   5.760  0.4192 -0.2252 -0.0874
   16MOL   C73615166   0.643   3.084   5.942  0.4129 -0.0747 -0.0784
   16MOL   C73715167   0.578   3.226   5.906 -0.5602  0.1778 -0.0296
   16MOL   C73815168   0.450   3.248   5.995 -0.5808 -0.6244 -0.7869
   16MOL   C73915169   0.386   3.383   5.959  1.1472  0.7236  0.7775
   16MOL   C74015170   0.251   3.405   6.033  1.1146  0.3151  0.2627
   16MOL   O74115171   0.236   3.478   6.129 -0.6599  0.1914  0.4348
   16MOL   H74215172   1.297   3.874   5.881  1.6539  1.3039  0.3187
   16MOL   H74315173   1.269   3.844   5.711  0.1376 -0.3731  0.5057
   16MOL   H74415174   1.531   3.789   5.872  0.9435 -0.3440 -0.0712
   16MOL   H74515175   1.516   3.756   5.701  1.0877  1.1079  0.8884
   16MOL   H74615176   1.378   3.627   5.943 -1.3265  0.4340  0.4622
   16MOL   H74715177   1.318   3.597   5.785  0.6847 -0.8517 -0.1973
   16MOL   H74815178   1.603   3.562   5.863 -1.9045  1.6651  1.7907
   16MOL   H74915179   1.534   3.519   5.703 -0.0455  0.2323  0.5958
   16MOL   H75015180   1.452   3.374   5.956 -1.4118 -1.8676 -0.1449
   16MOL   H75115181   1.561   3.316   5.840  0.0397 -0.5728  1.2103
   16MOL   H75215182   1.395   3.329   5.657  3.5682 -1.1918  1.0365
   16MOL   H75315183   1.277   3.387   5.764 -0.5133 -1.0041 -1.3123
   16MOL   H75415184   1.350   3.133   5.877  0.5857  1.8765  0.6519
   16MOL   H75515185   1.433   3.113   5.732 -1.2329 -1.7187  0.3646
   16MOL   H75615186   1.207   3.041   5.654  0.1684 -0.0267  0.6662
   16MOL   H75715187   1.180   3.209   5.627 -0.2667 -0.0786 -0.0606
   16MOL   H75815188   1.124   3.087   5.893 -0.3034 -0.0257 -0.2485
   16MOL   H75915189   1.092   3.249   5.842  0.9375  1.4927 -2.9039
   16MOL   H76015190   0.965   3.012   5.712 -1.8183  0.3857 -1.0881
   16MOL   H76115191   0.933   3.194   5.678 -2.9882 -1.1234 -0.1640
   16MOL   H76215192   0.562   3.012   5.932  2.2690 -2.3686  0.7356
   16MOL   H76315193   0.683   3.078   6.044  0.7699  3.6221  0.0580
   16MOL   H76415194   0.545   3.215   5.802 -1.6384  1.2308  0.1940
   16MOL   H76515195   0.644   3.312   5.918 -0.3624  0.1200 -0.6714
   16MOL   H76615196   0.487   3.236   6.096 -1.1191  0.1305 -0.4970
   16MOL   H76715197   0.382   3.164   5.979 -1.6167  0.3765 -1.7822
   16MOL   H76815198   0.365   3.367   5.853  0.3787  1.2257  0.8492
   16MOL   H76915199   0.459   3.461   5.976  1.0600  1.0416 -0.2689
   16MOL   O77015200   0.163   3.332   5.967 -0.3678 -0.1997  0.3802
   16MOL   C77115201   0.027   3.332   6.000  0.0381  0.0051 -0.4989
   16MOL   C77215202   7.746   3.244   6.119  0.1931 -0.0983  0.1257
   16MOL   C77315203   7.596   3.241   6.141 -0.2187 -0.2805  0.5427
   16MOL   C77415204   7.561   3.138   6.253 -0.4900 -0.9008  0.1342
   16MOL   C77515205   7.409   3.122   6.270  0.1353  0.3078  0.0071
   16MOL   C77615206   7.363   2.998   6.340  0.8536 -0.5551  0.0517
   16MOL   C77715207   7.374   3.018   6.491  0.3367  0.1318 -1.1970
   16MOL   C77815208   7.287   2.925   6.582  0.1510  0.2160 -0.0044
   16MOL   C77915209   7.309   2.939   6.739 -0.5506  0.1906 -0.2995
   16MOL   C78015210   7.257   2.822   6.817 -0.0906  0.1953 -0.7907
   16MOL   O78115211   7.349   2.708   6.793  0.5724 -0.4300  0.2193
   16MOL   C78215212   7.334   2.598   6.856  0.0675 -0.0169 -0.2144
   16MOL   O78315213   7.228   2.563   6.921 -0.6481 -0.0293 -0.1522
   16MOL   C78415214   7.464   2.523   6.880  0.0583 -0.6032  0.3607
   16MOL   C78515215   7.532   2.554   7.011  0.4405  0.5176 -0.1397
   16MOL   C78615216   7.472   2.491   7.135  0.5948  0.0392  0.5466
   16MOL   C78715217   7.549   2.519   7.266  0.7112 -0.1622 -0.1248
   16MOL   C78815218   7.691   2.468   7.270 -0.3463 -0.9003  0.7762
   16MOL   O78915219   7.721   2.355   7.302  0.4445 -0.4392 -0.0502
   16MOL   H79015220   7.757   3.435   6.012  0.6728  0.0858  0.7267
   16MOL   H79115221   7.740   3.286   5.916  2.0285  1.5424 -2.6230
   16MOL   H79215222   0.028   3.295   6.203  3.4073 -1.4977 -0.7292
   16MOL   H79315223   0.029   3.146   6.117  2.0868  0.7814  0.8499
   16MOL   H79415224   7.571   3.346   6.153  0.8311  0.2264 -1.4111
   16MOL   H79515225   7.554   3.212   6.044  1.0014  2.0595 -0.7412
   16MOL   H79615226   7.599   3.172   6.349 -0.2934  0.1804 -0.3102
   16MOL   H79715227   7.608   3.041   6.239  0.9688 -0.3892  1.4320
   16MOL   H79815228   7.373   3.101   6.169  0.1299 -1.8577  0.4298
   16MOL   H79915229   7.355   3.213   6.294 -1.2088 -1.2368  3.0736
   16MOL   H80015230   7.426   2.916   6.303  0.3208 -1.4385  1.0857
   16MOL   H80115231   7.259   2.977   6.315  1.2344 -1.2914 -0.9735
   16MOL   H80215232   7.349   3.122   6.510 -0.7755 -0.1579 -1.0442
   16MOL   H80315233   7.476   3.012   6.529 -0.2384 -0.0284  0.3496
   16MOL   H80415234   7.313   2.824   6.549 -2.6681 -0.2271 -1.0208
   16MOL   H80515235   7.181   2.928   6.556  0.2650  1.1350 -0.3790
   16MOL   H80615236   7.410   2.961   6.771 -1.1555  0.2123  1.6978
   16MOL   H80715237   7.257   3.026   6.779  0.7901  0.6758  0.4055
   16MOL   H80815238   7.153   2.803   6.791  0.0535 -1.8987  0.0735
   16MOL   H80915239   7.263   2.834   6.925  1.3502 -2.7367 -0.5120
   16MOL   H81015240   7.455   2.415   6.871 -0.3112 -0.4017 -2.0222
   16MOL   H81115241   7.527   2.560   6.799 -1.7638  1.0235 -0.3232
   16MOL   H81215242   7.548   2.662   7.017  2.4868  0.1052  3.4627
   16MOL   H81315243   7.634   2.517   7.010  0.9770  1.9659 -1.7538
   16MOL   H81415244   7.457   2.384   7.119  0.5748  0.1077  0.1023
   16MOL   H81515245   7.369   2.524   7.145  0.5573  0.4380 -0.9876
   16MOL   H81615246   7.496   2.474   7.349 -0.9180  2.0287  0.0788
   16MOL   H81715247   7.556   2.626   7.286  1.0169 -0.3760  0.9382
   16MOL   O81815248   0.007   2.567   7.217 -0.1426  0.2389 -0.0928
   16MOL   C81915249   0.143   2.545   7.189  0.0197 -0.6414 -0.6160
   16MOL   C82015250   0.211   2.681   7.167  0.0779  0.3470 -0.2270
   16MOL   C82115251   0.206   2.775   7.281 -0.7303  0.5193 -0.4716
   16MOL   C82215252   0.281   2.900   7.254 -0.0271  0.1512 -0.3298
   16MOL   C82315253   0.277   2.998   7.370 -0.5168 -1.1279 -0.6907
   16MOL   C82415254   0.388   3.111   7.362 -0.2595  0.3062 -0.0320
   16MOL   C82515255   0.323   3.243   7.325 -0.2631 -0.2783 -0.0936
   16MOL   C82615256   0.420   3.358   7.317  0.0366 -0.0299 -0.2507
   16MOL   C82715257   0.352   3.489   7.276 -0.0077 -0.6768 -0.4573
   16MOL   C82815258   0.443   3.613   7.251 -0.5562  0.3202 -0.6354
   16MOL   O82915259   0.517   3.639   7.371  0.1114 -0.3926  0.1856
   16MOL   C83015260   0.590   3.749   7.380 -0.1039 -0.4143 -0.3566
   16MOL   O83115261   0.611   3.832   7.292  0.4369  0.2032 -0.0304
   16MOL   C83215262   0.662   3.755   7.517  0.2610  0.8215  0.4000
   16MOL   C83315263   0.684   3.893   7.579 -0.4393  0.3604  0.6056
   16MOL   C83415264   0.798   3.910   7.675 -0.7287  0.1550 -0.2311
   16MOL   C83515265   0.811   4.029   0.009  0.6082 -0.0973  0.3127
   16MOL   C83615266   0.721   4.017   0.132 -0.2671 -0.5728 -0.6161
   16MOL   O83715267   0.748   4.078   0.237 -0.4907  0.0978  0.2234
   16MOL   H83815268   0.178   2.481   7.270 -1.0094 -0.2261  0.1658
   16MOL   H83915269   0.133   2.485   7.099  2.1715 -1.0024 -0.6350
   16MOL   H84015270   0.171   2.727   7.076  1.2345  1.7197 -0.0591
   16MOL   H84115271   0.316   2.658   7.146  0.1406  1.7240 -1.5544
   16MOL   H84215272   0.102   2.802   7.297 -0.7912 -1.6821  3.5291
   16MOL   H84315273   0.239   2.719   7.369  0.9352 -1.4988 -2.3140
   16MOL   H84415274   0.238   2.934   7.160 -2.2250 -0.7448  0.3033
   16MOL   H84515275   0.379   2.862   7.225 -0.9156 -2.2494 -0.3004
   16MOL   H84615276   0.301   2.950   7.465 -0.8659  1.6434  0.8462
   16MOL   H84715277   0.175   3.036   7.371  0.1682  0.7032  0.3943
   16MOL   H84815278   0.476   3.093   7.299  0.5326 -0.6601  1.3231
   16MOL   H84915279   0.432   3.140   7.458 -2.1989  0.5391  0.7985
   16MOL   H85015280   0.248   3.269   7.400 -1.7167  0.3040 -1.7196
   16MOL   H85115281   0.269   3.240   7.230  0.9823 -0.5232 -0.8031
   16MOL   H85215282   0.487   3.326   7.237 -0.7821  2.7407 -2.1106
   16MOL   H85315283   0.481   3.369   7.407  1.2277 -0.7411 -0.9552
   16MOL   H85415284   0.298   3.457   7.187  0.1020 -0.8772 -0.4522
   16MOL   H85515285   0.288   3.509   7.362 -0.0290 -3.2235  0.1478
   16MOL   H85615286   0.392   3.692   7.196 -0.1111 -0.4738 -2.2363
   16MOL   H85715287   0.522   3.573   7.187 -0.9545  0.3037 -1.1268
   16MOL   H85815288   0.605   3.700   7.592  0.9755  0.2122  0.5048
   16MOL   H85915289   0.760   3.709   7.504 -0.9664 -1.4386 -1.3875
   16MOL   H86015290   0.589   3.914   7.628 -0.6935 -3.3191  1.8788
   16MOL   H86115291   0.700   3.967   7.501 -0.0021  0.7929  1.0972
   16MOL   H86215292   0.888   3.893   7.617 -0.9965 -0.3990 -0.4870
   16MOL   H86315293   0.800   3.819   7.735  1.0478 -0.5970 -1.3954
   16MOL   H86415294   0.784   4.119   7.719 -0.9156 -1.4870 -1.3058
   16MOL   H86515295   0.913   4.042   0.044  0.5842 -0.9694  0.7290
   16MOL   O86615296   0.612   3.945   0.115  0.1653  0.0348  0.1964
   16MOL   C86715297   0.497   3.965   0.201  0.1422  0.8903 -0.0342
   16MOL   C86815298   0.391   3.852   0.185  0.7707 -0.0285  0.0998
   16MOL   C86915299   0.407   3.735   0.273  0.3890  0.8551 -0.9708
   16MOL   C87015300   0.296   3.626   0.253 -0.0609 -0.5656 -0.0903
   16MOL   C87115301   0.314   3.518   0.362  0.0224 -0.2087  0.4282
   16MOL   C87215302   0.439   3.425   0.339  0.5353  0.2665 -0.6396
   16MOL   C87315303   0.445   3.312   0.438  0.8538 -0.2240  0.1566
   16MOL   C87415304   0.565   3.220   0.414  0.0764 -0.0379 -0.4418
   16MOL   C87515305   0.547   3.072   0.464  0.4182  0.0516  0.0019
   16MOL   C87615306   0.677   2.991   0.451  0.0187  0.2569  0.3572
   16MOL   O87715307   0.731   2.995   0.316  0.0657  0.2007 -0.0956
   16MOL   C87815308   0.837   3.068   0.278 -0.1464 -0.0650 -0.0383
   16MOL   O87915309   0.899   3.146   0.354 -0.0391  0.1466 -0.1861
   16MOL   C88015310   0.883   3.049   0.140 -0.1133  0.2441 -0.1530
   16MOL   C88115311   0.962   2.919   0.116  0.1668  0.3278  0.9961
   16MOL   C88215312   0.865   2.796   0.103  0.2241 -0.0772 -0.6649
   16MOL   C88315313   0.933   2.663   0.039  0.2029 -0.3341 -0.6154
   16MOL   C88415314   1.043   2.596   0.121 -0.1257  0.3049 -0.3033
   16MOL   O88515315   1.016   2.542   0.229  0.4255  0.3619 -0.0616
   16MOL   H88615316   0.529   3.970   0.305 -1.3896  0.5822  0.4612
   16MOL   H88715317   0.462   4.064   0.172 -1.1403  1.0002  1.8651
   16MOL   H88815318   0.380   3.836   0.077 -3.1653  1.9745  0.1009
   16MOL   H88915319   0.301   3.906   0.213  0.6791  0.2046 -0.6212
   16MOL   H89015320   0.496   3.679   0.241 -0.0348 -0.0550 -0.5773
   16MOL   H89115321   0.424   3.754   0.379 -1.8801  3.8090 -1.0928
   16MOL   H89215322   0.314   3.604   0.148  0.5308 -2.5319  0.4070
   16MOL   H89315323   0.200   3.677   0.267  1.1059  1.2789  1.4389
   16MOL   H89415324   0.233   3.445   0.362 -0.7823  0.6620 -1.0291
   16MOL   H89515325   0.301   3.561   0.461  0.7836 -0.1675  0.5141
   16MOL   H89615326   0.528   3.486   0.357  0.3669  0.0352  1.0149
   16MOL   H89715327   0.436   3.395   0.234 -0.6463  0.2533 -0.6041
   16MOL   H89815328   0.357   3.250   0.423  2.3626 -1.7261 -2.8924
   16MOL   H89915329   0.426   3.354   0.536  1.0117  2.7704 -1.0510
   16MOL   H90015330   0.662   3.268   0.428 -0.9700  1.8718  0.3352
   16MOL   H90115331   0.564   3.207   0.306 -2.3842 -0.4703 -0.4071
   16MOL   H90215332   0.522   3.089   0.569  0.0148 -0.0348 -0.0777
   16MOL   H90315333   0.462   3.026   0.414 -1.5533  2.7545  0.7964
   16MOL   H90415334   0.658   2.887   0.478  0.6373 -0.4240 -1.7558
   16MOL   H90515335   0.743   3.043   0.521 -1.8224  0.6004  1.9053
   16MOL   H90615336   0.797   3.041   0.074 -0.2990  0.1096  0.1017
   16MOL   H90715337   0.958   3.123   0.113  0.3098 -0.5832 -1.2676
   16MOL   H90815338   1.039   2.910   0.192  1.3649  1.9324 -0.0021
   16MOL   H90915339   1.020   2.921   0.023 -0.1541  0.9446  0.8072
   16MOL   H91015340   0.776   2.822   0.045  0.4179  0.0216 -0.9202
   16MOL   H91115341   0.843   2.772   0.207 -0.0891  0.2163 -0.6627
   16MOL   H91215342   0.954   2.692   7.700  2.3528  1.3605  0.2398
   16MOL   H91315343   0.858   2.584   0.038  1.3629 -1.4477 -0.7200
   16MOL   O91415344   1.162   2.613   0.068 -0.1331 -0.5838 -0.0876
   16MOL   C91515345   1.272   2.533   0.107 -0.3408  0.4671 -0.2587
   16MOL   C91615346   1.300   2.422   0.001 -0.1967 -0.1350  0.6008
   16MOL   C91715347   1.376   2.490   7.645 -0.4473  0.5167 -0.3078
   16MOL   C91815348   1.409   2.400   7.525 -0.3391  0.4452 -0.2193
   16MOL   C91915349   1.481   2.486   7.419  0.0343  0.1103 -0.7627
   16MOL   C92015350   1.509   2.410   7.289  0.1086 -0.6785 -0.2143
   16MOL   C92115351   1.540   2.491   7.162 -0.1326 -0.4720 -0.1359
   16MOL   C92215352   1.565   2.405   7.044 -0.4474  0.2023 -0.2658
   16MOL   C92315353   1.630   2.481   6.933 -0.5438 -0.6396  0.0027
   16MOL   C92415354   1.625   2.397   6.806 -0.3100  0.2586  0.4837
   16MOL   O92515355   1.676   2.470   6.699 -0.1409 -0.5542  0.4513
   16MOL   C92615356   1.659   2.432   6.576  0.5637  0.1457 -0.3357
   16MOL   O92715357   1.589   2.334   6.551  0.2877  0.2077  0.0705
   16MOL   C92815358   1.713   2.529   6.467  0.6058 -0.1840  0.0912
   16MOL   C92915359   1.837   2.614   6.500  0.1137 -0.3046 -0.4138
   16MOL   C93015360   1.958   2.523   6.512 -1.0369  0.6537  0.1457
   16MOL   C93115361   2.088   2.603   6.537  0.3571 -0.5325 -0.0468
   16MOL   C93215362   2.110   2.658   6.684  0.4338  0.6780  0.0335
   16MOL   O93315363   2.077   2.597   6.783 -0.1091 -0.2506  0.3826
   16MOL   H93415364   1.353   2.604   0.124  0.7536 -0.5281 -1.2576
   16MOL   H93515365   1.250   2.473   0.195  0.1589 -0.1370 -0.5467
   16MOL   H93615366   1.203   2.376   7.746 -0.4798  0.1992  1.1901
   16MOL   H93715367   1.371   2.347   0.034  1.3460  0.5418 -1.0984
   16MOL   H93815368   1.319   2.574   7.605 -0.0830  1.4904  1.1472
   16MOL   H93915369   1.468   2.531   7.687  0.9433 -1.9245 -0.8543
   16MOL   H94015370   1.317   2.358   7.484 -1.6458 -1.2739  4.1995
   16MOL   H94115371   1.483   2.324   7.549 -0.3185  0.0658 -1.4541
   16MOL   H94215372   1.573   2.530   7.456  0.2102  2.0253 -3.3181
   16MOL   H94315373   1.436   2.581   7.391 -1.2714 -0.5217 -0.8439
   16MOL   H94415374   1.417   2.353   7.275 -0.5384  0.3245 -0.1575
   16MOL   H94515375   1.575   2.325   7.306 -1.2048 -1.0554  3.3654
   16MOL   H94615376   1.629   2.552   7.180  1.0037 -2.6452  1.8569
   16MOL   H94715377   1.464   2.568   7.150 -0.0450 -0.2829  0.4940
   16MOL   H94815378   1.467   2.366   7.014 -1.1348  2.2256 -0.7206
   16MOL   H94915379   1.621   2.316   7.071 -0.3500 -0.3086 -2.0670
   16MOL   H95015380   1.579   2.575   6.914 -1.9116 -1.5897 -1.2187
   16MOL   H95115381   1.737   2.494   6.947 -0.5289 -2.2510  1.6312
   16MOL   H95215382   1.520   2.375   6.788 -0.1654  0.2514 -0.3786
   16MOL   H95315383   1.679   2.303   6.820 -0.6907  0.2940  2.2794
   16MOL   H95415384   1.717   2.486   6.367  1.2990  1.6759 -0.7117
   16MOL   H95515385   1.625   2.593   6.463 -0.2471 -1.4221 -1.4133
   16MOL   H95615386   1.805   2.672   6.586  0.6595 -1.6616  0.7192
   16MOL   H95715387   1.847   2.681   6.415  0.0225 -0.0505 -0.2249
   16MOL   H95815388   1.974   2.450   6.433  1.1617  0.3583  0.8297
   16MOL   H95915389   1.937   2.445   6.586 -0.9526  1.4819  1.0474
   16MOL   H96015390   2.090   2.678   6.458  3.1130 -1.2724 -0.7609
   16MOL   H96115391   2.172   2.534   6.525  0.3467 -0.2155 -2.0730
   16MOL   H96215392   2.149   2.757   6.706  1.9599  0.5135 -1.8007
   17MOL     O115393   2.090   2.412   6.977 -0.6799  0.7468 -0.6321
   17MOL     C215394   1.995   2.322   6.919  0.2860 -0.3587 -0.0894
   17MOL     C315395   2.060   2.196   6.862  0.4522  0.7613 -0.1013
   17MOL     C415396   2.013   2.141   6.729  0.4558 -0.5626  0.1210
   17MOL     C515397   1.931   2.011   6.731 -0.6545  0.2605  0.4263
   17MOL     C615398   1.786   2.024   6.788  0.2154  0.0662  0.1494
   17MOL     C715399   1.701   1.902   6.771 -0.3614  0.0876  0.0319
   17MOL     C815400   1.570   1.907   6.844 -0.2644  0.4447  0.2198
   17MOL     C915401   1.503   2.046   6.814  0.4350 -0.0117 -0.0086
   17MOL    C1015402   1.349   2.043   6.857  0.4070 -0.1252  0.2352
   17MOL    C1115403   1.277   2.175   6.834 -0.9536 -0.3271 -0.0677
   17MOL    O1215404   1.265   2.190   6.696  0.0521  0.0836 -0.1818
   17MOL    C1315405   1.252   2.312   6.642 -0.8449  0.3605 -0.3427
   17MOL    O1415406   1.241   2.418   6.697  0.4662  0.0676  0.6047
   17MOL    C1515407   1.240   2.305   6.491  0.5248  0.3503  0.5700
   17MOL    C1615408   1.118   2.371   6.432 -0.1826  0.1845  0.2500
   17MOL    C1715409   1.012   2.268   6.434 -0.0707  0.9949  0.5396
   17MOL    C1815410   0.862   2.323   6.420 -0.1207  0.2558  0.2504
   17MOL    C1915411   0.813   2.390   6.551 -0.0785  0.2150  0.3659
   17MOL    O2015412   0.797   2.512   6.562 -0.1114  0.3323 -0.2779
   17MOL    H2115413   1.925   2.304   7.000  0.6072 -1.5698 -0.0723
   17MOL    H2215414   1.937   2.377   6.845  1.2645 -0.8374 -1.2374
   17MOL    H2315415   2.054   2.114   6.934  0.4709 -0.9981 -2.0667
   17MOL    H2415416   2.164   2.225   6.847 -0.1189  2.6644 -0.5441
   17MOL    H2515417   1.960   2.218   6.672  1.0917 -0.7775 -0.7701
   17MOL    H2615418   2.099   2.107   6.672  1.4255  0.2659  1.0774
   17MOL    H2715419   1.991   1.930   6.773  1.0467  2.0437  1.5703
   17MOL    H2815420   1.924   1.975   6.629  3.1147  0.7877 -0.0944
   17MOL    H2915421   1.737   2.107   6.736 -2.1094 -1.3162  0.0514
   17MOL    H3015422   1.799   2.042   6.894  1.6205  2.2710 -0.3645
   17MOL    H3115423   1.765   1.820   6.805  0.6583  0.3092 -1.3106
   17MOL    H3215424   1.684   1.881   6.665  1.3182 -0.8198 -0.0752
   17MOL    H3315425   1.572   1.896   6.952 -0.4446  2.3852  0.4365
   17MOL    H3415426   1.506   1.824   6.814 -1.6030  1.2786  0.7422
   17MOL    H3515427   1.508   2.065   6.706 -0.0736  1.4300  0.2215
   17MOL    H3615428   1.563   2.119   6.869 -0.1037  2.1883 -2.2472
   17MOL    H3715429   1.288   1.959   6.825  0.6649 -0.7044  1.2381
   17MOL    H3815430   1.343   2.036   6.966  2.9461  1.4548  0.5326
   17MOL    H3915431   1.349   2.247   6.874  0.7465 -2.7377  1.2943
   17MOL    H4015432   1.181   2.202   6.877 -0.9194  1.0002 -0.7944
   17MOL    H4115433   1.328   2.352   6.447 -0.4422  1.1881 -0.4886
   17MOL    H4215434   1.246   2.202   6.456  0.7516  0.3251  0.6854
   17MOL    H4315435   1.142   2.398   6.330 -1.0485  0.0559  0.0052
   17MOL    H4415436   1.089   2.460   6.488 -0.8353  0.5683 -0.7044
   17MOL    H4515437   1.005   2.209   6.526 -1.8638 -0.4066 -0.4598
   17MOL    H4615438   1.048   2.203   6.354 -1.2125  2.3241 -1.1042
   17MOL    H4715439   0.791   2.241   6.413  0.5291 -0.2151 -1.0211
   17MOL    H4815440   0.851   2.395   6.338  2.9887  0.3133 -0.1659
   17MOL    H4915441   2.114   2.484   6.922  0.0622  1.2679  0.3468
   17MOL    O5015442   0.777   2.312   6.656 -0.0650 -0.5678  0.4342
   17MOL    C5115443   0.734   2.362   6.779 -0.2889 -0.2651 -0.4017
   17MOL    C5215444   0.849   2.366   6.881 -0.2324  0.5986  0.0236
   17MOL    C5315445   0.918   2.495   6.902  0.2011  0.4029  0.0503
   17MOL    C5415446   1.032   2.493   7.006  0.5446 -0.4093  0.9859
   17MOL    C5515447   1.133   2.605   6.991  0.3113  0.7162 -0.4998
   17MOL    C5615448   1.078   2.740   7.036 -0.1859 -0.2266 -0.1523
   17MOL    C5715449   1.147   2.869   6.982 -0.3098 -0.2850  0.7099
   17MOL    C5815450   1.289   2.880   7.038 -0.4423  0.6962 -0.5321
   17MOL    C5915451   1.349   3.011   6.979  0.1121 -0.4885 -0.9211
   17MOL    C6015452   1.493   3.040   7.023 -0.0480  0.0587  0.3088
   17MOL    O6115453   1.593   2.954   6.977  0.0164 -0.4533  0.2187
   17MOL    C6215454   1.642   2.860   7.063  0.0257 -0.8151  0.7219
   17MOL    O6315455   1.602   2.830   7.171  0.0984  0.8297  0.0199
   17MOL    C6415456   1.754   2.784   6.989  0.3242 -0.3176  0.0071
   17MOL    C6515457   1.888   2.853   7.018  0.5320 -0.3365 -0.0298
   17MOL    C6615458   1.910   2.993   6.945 -0.2720 -0.2609  0.3580
   17MOL    C6715459   2.048   3.055   6.984 -0.0680  0.6523  0.1609
   17MOL    C6815460   2.092   3.155   6.879 -0.7415  0.4235 -0.3938
   17MOL    O6915461   2.003   3.210   6.810 -0.3403 -0.2999  0.2610
   17MOL    H7015462   0.676   2.454   6.770 -1.3560 -1.0375 -1.5206
   17MOL    H7115463   0.673   2.277   6.810  2.0165 -1.8987 -0.2135
   17MOL    H7215464   0.922   2.291   6.850 -1.2791 -0.7115  0.6457
   17MOL    H7315465   0.818   2.321   6.976  3.4117 -0.8828  0.6172
   17MOL    H7415466   0.954   2.536   6.807  2.1000  1.3228  1.1426
   17MOL    H7515467   0.834   2.563   6.921 -1.1939 -1.2203 -0.2554
   17MOL    H7615468   1.095   2.405   6.990 -0.0590 -0.0558 -4.2524
   17MOL    H7715469   0.994   2.493   7.108  2.5299 -2.3452  1.7553
   17MOL    H7815470   1.173   2.602   6.890  1.8573  0.6785  0.0971
   17MOL    H7915471   1.220   2.597   7.057 -2.2309  0.7747  3.0406
   17MOL    H8015472   1.072   2.737   7.145 -2.6698 -1.4857 -0.2624
   17MOL    H8115473   0.975   2.749   7.001  0.3992  0.7070 -1.6788
   17MOL    H8215474   1.086   2.954   7.015 -0.8538 -0.5368  0.3617
   17MOL    H8315475   1.141   2.858   6.873  1.2826  1.6252  0.3968
   17MOL    H8415476   1.352   2.801   6.998 -1.5261  0.5682 -2.0339
   17MOL    H8515477   1.299   2.859   7.145  0.5802  1.6135 -0.4404
   17MOL    H8615478   1.353   3.014   6.871  0.2902 -2.0682 -0.9698
   17MOL    H8715479   1.287   3.093   7.014  1.0921 -0.0723 -0.1284
   17MOL    H8815480   1.492   3.043   7.132  0.9849  1.4762  0.2908
   17MOL    H8915481   1.529   3.140   6.998 -1.4646 -0.0708 -2.4218
   17MOL    H9015482   1.750   2.682   7.025 -0.6213 -1.0397 -2.0614
   17MOL    H9115483   1.733   2.772   6.882 -1.0722 -1.3554  0.3824
   17MOL    H9215484   1.969   2.786   6.990  0.5208 -0.2942 -0.1629
   17MOL    H9315485   1.891   2.865   7.126  2.1685  1.3053 -0.2306
   17MOL    H9415486   1.833   3.066   6.971 -0.7275 -0.0832 -1.4324
   17MOL    H9515487   1.887   2.975   6.840  0.2154  1.3061 -0.0295
   17MOL    H9615488   2.120   2.974   6.985 -0.6095  0.1552 -0.7330
   17MOL    H9715489   2.044   3.081   7.090  1.3322  0.4129  0.2833
   17MOL    O9815490   2.226   3.170   6.879  0.5951 -0.1054 -0.1938
   17MOL    C9915491   2.283   3.251   6.777 -0.1508  0.0112  0.3228
   17MOL   C10015492   2.395   3.340   6.827 -0.0977  0.3625  0.1172
   17MOL   C10115493   2.343   3.473   6.870  0.4527  0.1981 -0.5429
   17MOL   C10215494   2.452   3.568   6.895  0.0254  0.0729  0.5402
   17MOL   C10315495   2.391   3.705   6.934 -0.3081  0.4546  0.6105
   17MOL   C10415496   2.492   3.817   6.948 -0.5198 -0.1902  0.2996
   17MOL   C10515497   2.548   3.862   6.817 -0.0947  0.1426 -0.2202
   17MOL   C10615498   2.626   3.997   6.831  0.4361 -0.3956  0.3269
   17MOL   C10715499   2.724   4.034   6.719  0.4007 -0.1637 -0.4182
   17MOL   C10815500   2.793   4.170   6.735  0.4186  0.3523 -0.0434
   17MOL   O10915501   2.913   4.177   6.654  0.1859 -0.1532 -0.4848
   17MOL   C11015502   3.001   4.281   6.662  0.2299  0.3716  0.6066
   17MOL   O11115503   3.001   4.367   6.746 -0.1482  0.4325  0.4477
   17MOL   C11215504   3.127   4.257   6.573 -0.5910 -0.2193  0.0979
   17MOL   C11315505   3.189   4.391   6.516 -0.3036  0.1040 -0.0482
   17MOL   C11415506   3.327   4.435   6.573  0.1507  0.1321  0.8108
   17MOL   C11515507   3.330   4.493   6.712  0.1365  0.1198  0.3439
   17MOL   C11615508   3.242   4.616   6.725  0.7524  0.6381 -0.8185
   17MOL   O11715509   3.203   4.675   6.629  0.2224  0.8041 -0.0022
   17MOL   H11815510   2.324   3.181   6.705 -1.7711 -1.9237  1.2141
   17MOL   H11915511   2.211   3.310   6.720  0.9358 -0.7904 -1.9147
   17MOL   H12015512   2.469   3.353   6.749  2.7096 -1.1288  2.4389
   17MOL   H12115513   2.454   3.304   6.911  1.1162  0.8039 -0.5365
   17MOL   H12215514   2.277   3.505   6.789 -0.6815 -0.2625  0.1886
   17MOL   H12315515   2.270   3.470   6.950  1.7830  0.9699  0.7240
   17MOL   H12415516   2.522   3.573   6.811  1.8888  0.7900  2.0847
   17MOL   H12515517   2.512   3.517   6.971  2.0624  2.6376  0.7366
   17MOL   H12615518   2.338   3.694   7.029 -1.3705 -0.2373 -0.0513
   17MOL   H12715519   2.324   3.743   6.857  2.0110  0.7946 -1.3163
   17MOL   H12815520   2.570   3.806   7.023  1.7670  0.2677 -1.9048
   17MOL   H12915521   2.435   3.903   6.982  0.8694  2.0026 -2.6233
   17MOL   H13015522   2.471   3.882   6.742  0.6985 -0.7347 -1.2864
   17MOL   H13115523   2.624   3.791   6.786 -2.0819 -1.1607 -2.2514
   17MOL   H13215524   2.690   3.999   6.919  0.0583 -0.4583  0.6022
   17MOL   H13315525   2.551   4.075   6.839  0.5000 -0.3051  0.0766
   17MOL   H13415526   2.805   3.961   6.718  1.2598  0.7889 -0.0551
   17MOL   H13515527   2.669   4.029   6.624  0.4968  0.9712 -0.5369
   17MOL   H13615528   2.842   4.177   6.832  0.5561  0.8387 -0.1480
   17MOL   H13715529   2.718   4.248   6.738  0.4323  0.3699 -0.1750
   17MOL   H13815530   3.209   4.208   6.625  0.3308 -0.4465 -1.5453
   17MOL   H13915531   3.091   4.192   6.494 -0.0582 -1.2435  0.6940
   17MOL   H14015532   3.117   4.471   6.499 -0.7364  0.3018  2.4618
   17MOL   H14115533   3.200   4.361   6.412 -1.3306  1.0958 -0.4573
   17MOL   H14215534   3.379   4.501   6.504 -0.2578 -0.8040 -0.4195
   17MOL   H14315535   3.389   4.346   6.579  0.4962  0.3756  0.8187
   17MOL   H14415536   3.430   4.523   6.742  1.4236 -1.8203 -1.8686
   17MOL   H14515537   3.296   4.414   6.779 -0.3710  0.9792  1.1113
   17MOL   O14615538   3.199   4.628   6.847  0.1459  0.2022 -0.0980
   17MOL   C14715539   3.143   4.743   6.894 -0.0895 -0.1519 -0.3860
   17MOL   C14815540   2.994   4.754   6.902  0.5313  0.1972 -0.4323
   17MOL   C14915541   2.911   4.721   6.780  0.5108  0.0465 -0.1447
   17MOL   C15015542   2.762   4.675   6.802 -0.6355 -0.1944  0.2062
   17MOL   C15115543   2.741   4.528   6.852 -0.0255  0.6799 -0.9963
   17MOL   C15215544   2.604   4.497   6.908  0.0585 -0.7166  0.0581
   17MOL   C15315545   2.484   4.526   6.812 -0.0587 -0.0858 -0.2324
   17MOL   C15415546   2.350   4.478   6.875  0.9308 -0.1383 -0.5207
   17MOL   C15515547   2.230   4.522   6.789 -0.1313 -0.1593  0.4665
   17MOL   C15615548   2.095   4.487   6.855  0.0316 -0.3582 -0.2937
   17MOL   O15715549   2.003   4.511   6.751  0.2956 -0.4032  0.1284
   17MOL   C15815550   1.902   4.433   6.733 -0.3082 -0.9620  0.7063
   17MOL   O15915551   1.873   4.338   6.807 -0.3874  0.3335  0.0556
   17MOL   C16015552   1.811   4.477   6.617 -0.6351 -0.1668  0.4423
   17MOL   C16115553   1.684   4.385   6.589 -0.3014 -0.7448  0.5917
   17MOL   C16215554   1.577   4.388   6.697  0.6151  0.4099  0.2948
   17MOL   C16315555   1.482   4.271   6.660  0.1381  0.5763 -0.3619
   17MOL   C16415556   1.404   4.220   6.785  0.0384 -0.4420 -0.5069
   17MOL   O16515557   1.302   4.265   6.821 -0.4614 -0.2450  0.0966
   17MOL   H16615558   3.171   4.738   6.999 -1.1474  2.0265  0.0457
   17MOL   H16715559   3.200   4.826   6.853  0.8756 -1.2746 -1.3290
   17MOL   H16815560   2.970   4.855   6.936  3.1929  1.3952 -1.9443
   17MOL   H16915561   2.959   4.689   6.982  1.5280 -0.2822 -0.3791
   17MOL   H17015562   2.917   4.808   6.715  2.5629  0.5853  0.7423
   17MOL   H17115563   2.953   4.646   6.714 -0.2646 -0.6797  0.1704
   17MOL   H17215564   2.713   4.710   6.712 -0.3590 -0.7863 -0.1836
   17MOL   H17315565   2.723   4.733   6.886 -2.2847  0.1389 -0.7841
   17MOL   H17415566   2.815   4.513   6.931 -3.0894 -0.8569  1.7342
   17MOL   H17515567   2.771   4.456   6.776 -0.6475 -0.9914  0.3046
   17MOL   H17615568   2.595   4.563   6.995  1.2331 -2.6205  1.6728
   17MOL   H17715569   2.605   4.393   6.940  0.9235 -1.0325 -0.9446
   17MOL   H17815570   2.497   4.467   6.721  0.2047  0.0019 -0.2546
   17MOL   H17915571   2.476   4.629   6.778 -0.1910  0.3185  0.9977
   17MOL   H18015572   2.351   4.516   6.978  0.5272  2.4289 -1.4349
   17MOL   H18115573   2.349   4.370   6.891  1.0092  0.1134  1.2990
   17MOL   H18215574   2.228   4.625   6.755  0.1025 -0.0478  0.7908
   17MOL   H18315575   2.239   4.458   6.701  0.7583  1.1610 -0.4348
   17MOL   H18415576   2.066   4.548   6.940  0.1568  0.9455 -1.1730
   17MOL   H18515577   2.104   4.383   6.886  1.9750 -0.1011  0.0623
   17MOL   H18615578   1.782   4.581   6.628  1.6097  0.8146 -2.2528
   17MOL   H18715579   1.871   4.466   6.526  1.4716 -0.1504  1.8080
   17MOL   H18815580   1.728   4.285   6.590  0.8022 -0.2766  0.0788
   17MOL   H18915581   1.646   4.413   6.490 -1.4610 -1.9406  0.6804
   17MOL   H19015582   1.530   4.485   6.711 -0.6827 -0.3775  1.4640
   17MOL   H19115583   1.636   4.377   6.788  1.2230 -0.5002 -0.1946
   17MOL   H19215584   1.536   4.196   6.602 -0.9437  0.5493 -1.3529
   17MOL   H19315585   1.408   4.314   6.592  0.8115 -0.7624 -1.9833
   17MOL   O19415586   1.476   4.124   6.844  0.1230 -0.1588  0.0425
   17MOL   C19515587   1.439   4.053   6.956 -1.4820 -0.4484 -0.5337
   17MOL   C19615588   1.487   4.115   7.079  0.1752 -0.3587 -0.5323
   17MOL   C19715589   1.633   4.173   7.067 -0.3235 -0.0938  0.2746
   17MOL   C19815590   1.685   4.231   7.205  0.1569 -0.7952  0.7496
   17MOL   C19915591   1.818   4.306   7.186  0.3973  0.5449 -0.4904
   17MOL   C20015592   1.948   4.232   7.154 -0.0865  0.4063  0.0375
   17MOL   C20115593   2.077   4.310   7.180  0.8230 -0.3797  0.1433
   17MOL   C20215594   2.205   4.233   7.141  0.3572 -0.2019  0.1231
   17MOL   C20315595   2.340   4.293   7.193  0.5780 -0.1155  0.7493
   17MOL   C20415596   2.467   4.210   7.159 -0.3581  0.2205  0.5555
   17MOL   O20515597   2.579   4.279   7.210  0.5800  0.2199  0.7746
   17MOL   C20615598   2.702   4.246   7.172 -0.0576  0.3441 -1.1011
   17MOL   O20715599   2.728   4.178   7.077 -0.1484 -0.3062 -0.7923
   17MOL   C20815600   2.813   4.305   7.268  0.0113 -0.7468  0.2660
   17MOL   C20915601   2.960   4.288   7.222  0.1649 -0.1058  0.3249
   17MOL   C21015602   2.981   4.376   7.098  0.3594  0.4534 -0.9192
   17MOL   C21115603   3.128   4.394   7.056  0.2267  0.1525 -0.0099
   17MOL   C21215604   3.223   4.456   7.158 -0.5813 -0.3098  0.2034
   17MOL   O21315605   3.329   4.410   7.183  0.0324 -0.1678  0.7416
   17MOL   H21415606   1.331   4.037   6.955 -1.4159 -0.8608 -0.9291
   17MOL   H21515607   1.480   3.952   6.956 -3.0220 -1.1105  1.5042
   17MOL   H21615608   1.484   4.046   7.163 -0.8055 -1.8285 -1.7457
   17MOL   H21715609   1.418   4.198   7.096 -0.8665 -0.9391 -1.8898
   17MOL   H21815610   1.710   4.103   7.035  0.8129  1.0868  0.4003
   17MOL   H21915611   1.635   4.255   6.995 -2.5544 -1.6131 -1.5938
   17MOL   H22015612   1.698   4.142   7.266 -0.7315 -1.2771  0.2421
   17MOL   H22115613   1.618   4.292   7.266 -0.2805  0.4233 -0.9026
   17MOL   H22215614   1.837   4.372   7.270  0.5033  0.8638 -0.7661
   17MOL   H22315615   1.812   4.379   7.106 -0.6080  0.2788 -0.6757
   17MOL   H22415616   1.935   4.198   7.052 -0.4775  0.7498 -0.0279
   17MOL   H22515617   1.955   4.139   7.210 -2.0663  1.6710  2.5073
   17MOL   H22615618   2.086   4.331   7.287  1.1429  0.1326  0.0150
   17MOL   H22715619   2.067   4.404   7.127  0.5645 -0.1693  0.5600
   17MOL   H22815620   2.208   4.216   7.033 -1.6961 -2.2428  0.3376
   17MOL   H22915621   2.196   4.133   7.185  0.0669 -0.4950 -0.5957
   17MOL   H23015622   2.347   4.399   7.168  2.7895  0.2230  2.6079
   17MOL   H23115623   2.343   4.300   7.302 -0.2940 -2.1614  0.9214
   17MOL   H23215624   2.462   4.211   7.050 -2.5935  2.7932  0.6245
   17MOL   H23315625   2.457   4.112   7.206 -0.1906 -0.5153 -0.9001
   17MOL   H23415626   2.780   4.409   7.271  2.6400  0.0933  0.9071
   17MOL   H23515627   2.795   4.238   7.353 -1.7979 -0.6362 -0.0125
   17MOL   H23615628   2.971   4.182   7.198  1.0234  0.3075 -1.1472
   17MOL   H23715629   3.025   4.322   7.302  0.5336 -1.0346  0.4268
   17MOL   H23815630   2.940   4.476   7.116  0.8441  0.5205 -0.1693
   17MOL   H23915631   2.927   4.337   7.012 -0.7198 -1.1905  0.4732
   17MOL   H24015632   3.128   4.467   6.975 -1.6392  0.1554 -0.0402
   17MOL   H24115633   3.173   4.303   7.017 -1.2945 -0.3853 -0.5719
   17MOL   O24215634   3.174   4.569   7.215 -0.6312  0.9547  0.0831
   17MOL   C24315635   3.245   4.626   7.320 -0.1787 -0.4371 -0.3255
   17MOL   C24415636   3.142   4.703   7.407  0.2795  0.5016 -0.3069
   17MOL   C24515637   3.031   4.620   7.475  0.2053  0.5075  0.1388
   17MOL   C24615638   3.057   4.536   7.601 -0.2999  0.6099 -0.0073
   17MOL   C24715639   2.932   4.455   7.645  0.5407  0.2503  0.2126
   17MOL   C24815640   2.955   4.405   0.016  0.1361 -0.0599  0.0889
   17MOL   C24915641   2.849   4.314   0.069 -0.6546 -0.2254  0.1097
   17MOL   C25015642   2.865   4.308   0.220 -0.0967 -0.0633 -0.0968
   17MOL   C25115643   2.759   4.244   0.311  0.1890 -0.5828 -0.2654
   17MOL   C25215644   2.801   4.250   0.458 -0.5741 -0.1647  0.3852
   17MOL   O25315645   2.907   4.167   0.499  0.4401 -0.5543  0.1797
   17MOL   C25415646   2.967   4.163   0.617 -0.2435 -0.3073 -0.3963
   17MOL   O25515647   2.932   4.231   0.707 -0.0966  0.3203  0.1130
   17MOL   C25615648   3.088   4.081   0.627 -0.4534 -1.2800 -0.1104
   17MOL   C25715649   3.049   3.934   0.657  0.4656  0.3697 -0.0860
   17MOL   C25815650   2.994   3.856   0.538  0.9355  0.3579  0.2486
   17MOL   C25915651   2.998   3.704   0.553  0.8373  0.1175  0.3384
   17MOL   C26015652   2.957   3.626   0.427 -0.2796  0.0143  0.4996
   17MOL   O26115653   3.013   3.659   0.325 -0.8875 -0.2555  0.4446
   17MOL   H26215654   3.287   4.545   7.380 -2.1221 -1.1532  0.1121
   17MOL   H26315655   3.325   4.690   7.283 -0.9053  1.7666  1.7241
   17MOL   H26415656   3.089   4.767   7.337  1.6217  1.8160 -0.1315
   17MOL   H26515657   3.199   4.767   7.475 -0.2924  0.9583 -0.2551
   17MOL   H26615658   2.950   4.690   7.498 -0.0875  0.4669 -0.7460
   17MOL   H26715659   2.976   4.564   7.399  0.0610  2.1650 -1.0039
   17MOL   H26815660   3.092   4.605   7.678  0.4412  0.7896 -0.4959
   17MOL   H26915661   3.144   4.478   7.568 -1.0588 -0.8715  0.5682
   17MOL   H27015662   2.908   4.376   7.575  2.9850 -0.5264  0.2186
   17MOL   H27115663   2.839   4.512   7.652 -0.9271 -2.1980  0.9047
   17MOL   H27215664   2.974   4.497   0.070  0.7677  0.4540 -0.9967
   17MOL   H27315665   3.046   4.346   0.010  0.1463 -0.2775  2.0279
   17MOL   H27415666   2.872   4.217   0.025 -0.9131  0.0956 -0.7442
   17MOL   H27515667   2.750   4.349   0.039 -0.3911  1.2304  0.8934
   17MOL   H27615668   2.881   4.411   0.250  0.6084  0.0946 -1.0092
   17MOL   H27715669   2.966   4.275   0.244  0.6495  2.6548  0.5850
   17MOL   H27815670   2.664   4.298   0.307  0.3604 -0.0201  2.2845
   17MOL   H27915671   2.742   4.139   0.284  0.0506 -0.7714  0.5450
   17MOL   H28015672   2.713   4.254   0.522  1.2447 -0.0162  2.9910
   17MOL   H28115673   2.832   4.352   0.479 -0.9403  0.0458 -0.0913
   17MOL   H28215674   3.142   4.079   0.532  0.4534 -0.9661  0.3900
   17MOL   H28315675   3.157   4.112   0.706 -0.3449 -0.4109 -0.5399
   17MOL   H28415676   2.980   3.920   0.739 -1.6314 -0.5910 -1.9556
   17MOL   H28515677   3.143   3.890   0.690  1.2154  1.0724 -1.2320
   17MOL   H28615678   3.054   3.879   0.451  0.8968  0.2662  0.1979
   17MOL   H28715679   2.888   3.879   0.533  0.5398 -1.2526  0.7627
   17MOL   H28815680   2.925   3.673   0.628  0.2745 -0.6889 -0.5274
   17MOL   H28915681   3.096   3.676   0.592 -0.1442 -2.7746  0.8760
   17MOL   O29015682   2.864   3.533   0.442 -0.1806 -0.2868  0.3117
   17MOL   C29115683   2.819   3.455   0.329 -0.4774 -0.5336 -0.1216
   17MOL   C29215684   2.745   3.329   0.378  0.2812 -0.0812  0.2430
   17MOL   C29315685   2.622   3.358   0.463 -0.3437  0.1373 -0.0414
   17MOL   C29415686   2.496   3.398   0.380 -0.0436  0.0720 -0.2273
   17MOL   C29515687   2.377   3.410   0.477 -0.9934  0.4605 -0.6050
   17MOL   C29615688   2.240   3.424   0.405 -0.2032 -1.2255 -0.0424
   17MOL   C29715689   2.121   3.445   0.500 -0.3830 -0.2292 -0.8391
   17MOL   C29815690   2.122   3.589   0.574  0.4328 -0.2542  0.1540
   17MOL   C29915691   1.996   3.613   0.660 -0.5390  0.0112 -0.0382
   17MOL   C30015692   1.941   3.753   0.662  0.1975 -0.0862  0.5871
   17MOL   O30115693   2.032   3.845   0.723 -0.5147 -0.1824  0.5628
   17MOL   C30215694   2.076   3.951   0.653  0.4696  0.0637  0.4170
   17MOL   O30315695   2.066   3.975   0.533 -0.1822 -0.4960  0.1784
   17MOL   C30415696   2.155   4.047   0.739  0.2516 -0.3178  0.0621
   17MOL   C30515697   2.086   4.105   0.863  0.6664 -0.2592 -0.3118
   17MOL   C30615698   2.179   4.201   0.940 -0.3791 -0.6598 -0.8491
   17MOL   C30715699   2.296   4.127   1.012 -0.3861  0.2620  0.2155
   17MOL   C30815700   2.429   4.130   0.929 -0.5620  0.3827  0.4940
   17MOL   O30915701   2.429   4.170   0.816  0.4828  0.1880  0.1730
   17MOL   H31015702   2.759   3.521   0.265  1.1653 -0.3688 -1.5435
   17MOL   H31115703   2.904   3.424   0.268  1.4836 -0.9091  2.7309
   17MOL   H31215704   2.817   3.277   0.440  0.4069 -1.7066 -1.2233
   17MOL   H31315705   2.718   3.270   0.290 -0.5419 -0.8872  1.0260
   17MOL   H31415706   2.593   3.267   0.516 -0.1499  0.8210  1.2676
   17MOL   H31515707   2.650   3.434   0.537  2.4949  1.1582 -2.0874
   17MOL   H31615708   2.468   3.317   0.313 -2.5256  0.1970  0.6079
   17MOL   H31715709   2.521   3.487   0.324  1.3392  0.9464  1.7087
   17MOL   H31815710   2.400   3.502   0.531 -0.4463  0.0193 -0.0773
   17MOL   H31915711   2.369   3.331   0.552 -2.1708  3.7848  2.9167
   17MOL   H32015712   2.235   3.334   0.344  4.4016 -0.9792 -0.9143
   17MOL   H32115713   2.250   3.505   0.333  2.2908 -0.8851  0.6347
   17MOL   H32215714   2.140   3.368   0.575 -0.5946  1.3725  0.9086
   17MOL   H32315715   2.022   3.437   0.454 -2.1390  0.1406  2.6622
   17MOL   H32415716   2.122   3.662   0.493  0.7972  1.1362  1.3728
   17MOL   H32515717   2.215   3.606   0.629  0.3700 -0.9415  0.4826
   17MOL   H32615718   1.916   3.547   0.625 -1.2628 -0.3112  2.1686
   17MOL   H32715719   2.019   3.586   0.763  0.0002 -1.2316 -0.4714
   17MOL   H32815720   1.853   3.747   0.725  0.2491  0.8166  0.7666
   17MOL   H32915721   1.907   3.792   0.566  1.7288  2.4879  1.0357
   17MOL   H33015722   2.249   3.999   0.766  0.3045  0.5254  1.3746
   17MOL   H33115723   2.187   4.133   0.681  1.1372 -0.4220  0.3874
   17MOL   H33215724   2.063   4.016   0.921 -0.4372  0.5442  0.5150
   17MOL   H33315725   1.987   4.149   0.850  1.3268  1.8381  1.4412
   17MOL   H33415726   2.114   4.262   1.003  2.1388  1.7125 -0.4934
   17MOL   H33515727   2.222   4.275   0.874  1.7333 -2.1785 -1.2283
   17MOL   H33615728   2.264   4.023   1.018 -1.6375  0.5203 -1.6381
   17MOL   H33715729   2.305   4.159   1.117 -0.2541 -1.0098  0.5947
   17MOL   O33815730   2.529   4.081   0.999  0.3071  0.5511 -0.6493
   17MOL   C33915731   2.655   4.078   0.948 -0.2018  0.8496  0.0141
   17MOL   C34015732   2.748   4.076   1.066 -0.3815 -0.4447  0.0208
   17MOL   C34115733   2.770   4.219   1.126 -0.4795 -0.3098 -1.1635
   17MOL   C34215734   2.854   4.208   1.251 -0.2302 -0.4979  0.2821
   17MOL   C34315735   2.892   4.341   1.310  0.0366  0.7747 -0.1327
   17MOL   C34415736   2.947   4.327   1.455  0.0617 -0.1879 -0.3250
   17MOL   C34515737   2.953   4.475   1.517  0.7368 -0.0545  0.2351
   17MOL   C34615738   3.020   4.477   1.659  0.1062 -0.1689  0.2935
   17MOL   C34715739   3.056   4.619   1.705  0.3115 -0.0168 -0.0759
   17MOL   C34815740   2.946   4.724   1.686 -0.5473  0.4410  0.3517
   17MOL   O34915741   2.936   4.782   1.560  0.1356  0.3377  0.8556
   17MOL   C35015742   3.013   4.887   1.529  0.4341  0.2868  0.2602
   17MOL   O35115743   3.099   4.934   1.599 -0.3095  0.5932  0.0707
   17MOL   C35215744   2.974   4.955   1.403 -0.2784 -0.8220 -0.2103
   17MOL   C35315745   2.826   4.977   1.390 -0.2573 -0.0083  0.5382
   17MOL   C35415746   2.782   5.057   1.261 -0.1349 -0.1451 -0.1013
   17MOL   C35515747   2.630   5.076   1.255  0.2866  0.6334  0.2433
   17MOL   C35615748   2.576   5.180   1.359 -0.1437 -0.1960  1.2361
   17MOL   O35715749   2.519   5.142   1.461 -0.0060  0.1140 -0.1903
   17MOL   H35815750   2.689   3.988   0.896  1.0100  0.4060  1.5597
   17MOL   H35915751   2.679   4.169   0.893 -3.0244  2.6081  1.5547
   17MOL   H36015752   2.851   4.050   1.044  0.3489  1.6164  0.9220
   17MOL   H36115753   2.711   4.018   1.151  1.6541  0.8580  1.8315
   17MOL   H36215754   2.808   4.291   1.054  0.3431  2.1133  1.5824
   17MOL   H36315755   2.675   4.265   1.154 -0.6917 -1.7173  0.6088
   17MOL   H36415756   2.950   4.167   1.221 -0.8168 -1.6238 -0.0911
   17MOL   H36515757   2.809   4.133   1.317 -0.7228 -0.0335  0.4765
   17MOL   H36615758   2.808   4.408   1.326 -0.2636  0.2079  0.6998
   17MOL   H36715759   2.968   4.398   1.257  2.2033 -0.7513  1.2314
   17MOL   H36815760   3.046   4.284   1.439  0.2249 -0.2690  0.9031
   17MOL   H36915761   2.873   4.275   1.516 -1.5274  0.7756 -1.3858
   17MOL   H37015762   2.855   4.523   1.517  0.2114 -1.0832 -1.2283
   17MOL   H37115763   3.012   4.541   1.454 -0.7903  0.9706 -0.1542
   17MOL   H37215764   3.110   4.418   1.647  1.6591  2.3172 -0.6976
   17MOL   H37315765   2.966   4.412   1.728  1.4302 -1.8498 -0.2376
   17MOL   H37415766   3.068   4.607   1.813  2.9231 -0.8993 -0.4384
   17MOL   H37515767   3.147   4.656   1.658 -0.2006  0.1339 -0.9620
   17MOL   H37615768   2.965   4.806   1.755  1.2722  0.8610 -0.5964
   17MOL   H37715769   2.854   4.680   1.725  1.2095 -2.8494  0.9853
   17MOL   H37815770   3.027   5.049   1.390 -0.6667 -0.7434 -1.2922
   17MOL   H37915771   3.010   4.891   1.323  0.9475 -1.2198  0.6511
   17MOL   H38015772   2.796   5.038   1.475 -0.5071  1.9257 -0.8992
   17MOL   H38115773   2.766   4.886   1.403  2.6934 -1.8232  1.9280
   17MOL   H38215774   2.825   5.008   1.174  0.8856  1.0822 -0.3082
   17MOL   H38315775   2.823   5.158   1.257 -0.4508  0.0223  0.8210
   17MOL   H38415776   2.585   4.979   1.277  0.3799  1.0437  2.3592
   17MOL   H38515777   2.613   5.115   1.155  0.3804 -0.5385 -0.2504
   17MOL   O38615778   2.587   5.312   1.316  0.1959  0.6198  0.0475
   17MOL   C38715779   2.561   5.415   1.406 -0.4161 -0.4222 -0.3731
   17MOL   C38815780   2.488   5.533   1.334  0.7235 -0.3622  0.0138
   17MOL   C38915781   2.481   5.655   1.417  0.2196 -0.6241  0.3952
   17MOL   C39015782   2.403   5.767   1.345 -0.3798 -0.7991  0.9454
   17MOL   C39115783   2.383   5.897   1.426 -0.0993  0.1022 -0.0100
   17MOL   C39215784   2.238   5.901   1.481 -0.3624  0.0060 -0.0222
   17MOL   C39315785   2.208   6.034   1.545  0.2592  0.4706  0.5325
   17MOL   C39415786   2.072   6.031   1.618 -0.4352 -0.3476 -0.4593
   17MOL   C39515787   2.022   6.162   1.675 -0.5210  0.3533 -0.1887
   17MOL   C39615788   1.927   6.130   1.799  0.2219  0.1282  0.5619
   17MOL   O39715789   1.819   6.054   1.751 -0.4591 -0.4180 -0.4989
   17MOL   C39815790   1.780   5.941   1.820  0.0407  0.3735  0.1570
   17MOL   O39915791   1.835   5.899   1.927  0.1242 -0.5427  0.7435
   17MOL   C40015792   1.673   5.858   1.742 -0.2763  0.0634  0.3655
   17MOL   C40115793   1.724   5.737   1.659  0.3783  0.4026 -0.3108
   17MOL   C40215794   1.748   5.616   1.746  0.6095  0.7305  0.3885
   17MOL   C40315795   1.811   5.506   1.666 -0.6441  1.2032 -0.3027
   17MOL   C40415796   1.957   5.526   1.609 -0.1762 -0.5720 -0.2708
   17MOL   O40515797   2.021   5.630   1.620 -0.1624 -0.3740 -0.1006
   17MOL   H40615798   2.510   5.394   1.500 -0.2677 -1.4122 -0.5167
   17MOL   H40715799   2.663   5.442   1.432 -0.5203 -0.8199  0.4896
   17MOL   H40815800   2.388   5.499   1.308  1.1727 -0.7647 -1.2376
   17MOL   H40915801   2.535   5.561   1.240 -0.9518 -1.8636 -1.3057
   17MOL   H41015802   2.442   5.638   1.518 -1.1448  1.5783  0.2780
   17MOL   H41115803   2.584   5.687   1.433  0.8568 -1.9432 -0.9344
   17MOL   H41215804   2.306   5.736   1.305  0.3763  0.7051 -2.1850
   17MOL   H41315805   2.462   5.802   1.261  0.0646  0.3208  1.7216
   17MOL   H41415806   2.412   5.987   1.373 -1.7542 -0.0111 -1.1195
   17MOL   H41515807   2.452   5.891   1.510 -0.4902  0.2758  0.3242
   17MOL   H41615808   2.230   5.827   1.560  1.3647 -0.8952 -0.6690
   17MOL   H41715809   2.161   5.868   1.411  0.2994 -0.9946 -0.2805
   17MOL   H41815810   2.213   6.116   1.472 -1.3437  0.6178  0.5675
   17MOL   H41915811   2.291   6.056   1.612  1.0882 -0.6729 -0.1058
   17MOL   H42015812   2.067   5.947   1.688  1.5873 -0.8482 -0.8963
   17MOL   H42115813   1.991   6.004   1.549 -0.2645  1.0420 -1.2115
   17MOL   H42215814   2.113   6.216   1.702 -0.0661 -0.6844  0.4151
   17MOL   H42315815   1.967   6.215   1.598 -0.2535  0.5966 -0.2107
   17MOL   H42415816   1.888   6.224   1.839 -0.6937 -0.2273  0.5150
   17MOL   H42515817   1.981   6.084   1.881  0.4481 -1.1649 -0.2918
   17MOL   H42615818   1.602   5.813   1.812 -2.4858  2.6010 -0.1849
   17MOL   H42715819   1.608   5.915   1.676  1.8321 -1.6165 -3.3285
   17MOL   H42815820   1.814   5.769   1.606  0.1583  0.6319 -0.5432
   17MOL   H42915821   1.646   5.719   1.585  1.6776 -4.4202 -0.7209
   17MOL   H43015822   1.655   5.577   1.786  0.2217  0.6357 -0.5774
   17MOL   H43115823   1.813   5.635   1.831  0.7245 -1.9608  0.9324
   17MOL   H43215824   1.748   5.468   1.585  1.5871  1.3698 -2.1637
   17MOL   H43315825   1.821   5.418   1.730  1.0182  0.5989 -1.3622
   17MOL   O43415826   2.006   5.412   1.559  0.5911  0.2894  0.3577
   17MOL   C43515827   2.120   5.420   1.468 -0.1151  0.6715 -0.3374
   17MOL   C43615828   2.195   5.285   1.464  0.4365 -0.3716 -0.5316
   17MOL   C43715829   2.107   5.169   1.409  0.5707 -0.7225 -0.0291
   17MOL   C43815830   2.191   5.033   1.400  0.0076  0.0274  0.5095
   17MOL   C43915831   2.100   4.916   1.359 -1.0604  0.1742 -0.6708
   17MOL   C44015832   2.169   4.784   1.395  0.0572  0.0530  0.0453
   17MOL   C44115833   2.090   4.666   1.342  0.5626  0.4466  0.1261
   17MOL   C44215834   2.164   4.528   1.348  0.0200 -0.6840  0.0818
   17MOL   C44315835   2.071   4.406   1.318 -0.5285 -0.6688 -0.0472
   17MOL   C44415836   2.129   4.266   1.348  0.4736  0.3049  0.1527
   17MOL   O44515837   2.060   4.160   1.284 -0.0826  0.2573 -0.1832
   17MOL   C44615838   1.978   4.069   1.348  0.0024 -0.2909 -0.0712
   17MOL   O44715839   1.946   4.076   1.469 -0.3396 -0.5646  0.8197
   17MOL   C44815840   1.918   3.964   1.260 -0.5918 -0.4614 -0.4398
   17MOL   C44915841   2.020   3.871   1.196  0.3088 -0.3224  0.6351
   17MOL   C45015842   1.953   3.786   1.090  0.9060 -0.1034 -0.1019
   17MOL   C45115843   2.024   3.661   1.050 -0.5972 -0.2531 -0.9905
   17MOL   C45215844   2.179   3.677   1.023 -0.4147  0.2835  0.4617
   17MOL   O45315845   2.221   3.674   0.907 -0.7583 -0.4038  0.3191
   17MOL   H45415846   2.091   5.445   1.366 -0.2053 -0.1047 -0.5092
   17MOL   H45515847   2.189   5.490   1.514 -0.1480 -0.0369  0.8078
   17MOL   H45615848   2.227   5.266   1.567  2.4261  0.5118 -0.9751
   17MOL   H45715849   2.281   5.295   1.399 -0.2422  0.1805 -1.3584
   17MOL   H45815850   2.012   5.158   1.461 -0.3585  3.0535 -0.7938
   17MOL   H45915851   2.076   5.202   1.310 -0.7583  0.3081  0.7067
   17MOL   H46015852   2.238   5.021   1.498 -1.0481  0.6743  1.1124
   17MOL   H46115853   2.272   5.042   1.329 -0.0469  0.5380  0.5117
   17MOL   H46215854   2.086   4.916   1.251  2.4285 -0.0968 -1.1798
   17MOL   H46315855   1.998   4.926   1.395 -2.3354 -0.3929 -3.9732
   17MOL   H46415856   2.181   4.779   1.503 -0.3626 -1.0713  0.0470
   17MOL   H46515857   2.268   4.783   1.349 -0.9635  1.2653 -2.2674
   17MOL   H46615858   2.068   4.698   1.240 -0.2147 -0.6867 -0.0723
   17MOL   H46715859   1.997   4.663   1.399 -0.7284  1.0324 -1.9005
   17MOL   H46815860   2.206   4.515   1.447 -1.6800 -1.5921  0.6881
   17MOL   H46915861   2.250   4.532   1.280 -1.0195  0.7697 -1.2037
   17MOL   H47015862   1.982   4.411   1.381  0.6311  1.8149  1.4670
   17MOL   H47115863   2.031   4.409   1.217 -1.5955  0.6537  0.3968
   17MOL   H47215864   2.139   4.253   1.456 -1.3850  0.7398  0.3988
   17MOL   H47315865   2.227   4.251   1.303  0.2393  1.1408 -0.6539
   17MOL   H47415866   1.838   3.912   1.313 -1.4927 -0.7067 -2.0247
   17MOL   H47515867   1.868   4.017   1.179  0.8497  0.7411 -0.5613
   17MOL   H47615868   2.057   3.809   1.277  0.3165 -1.0551  0.0762
   17MOL   H47715869   2.102   3.922   1.145 -0.0499 -0.3136  0.0573
   17MOL   H47815870   1.918   3.837   1.000  2.8230  0.5113 -0.5269
   17MOL   H47915871   1.863   3.756   1.143 -1.0028 -0.9023 -3.6580
   17MOL   H48015872   1.971   3.614   0.967  1.5199 -0.3442 -2.3210
   17MOL   H48115873   2.019   3.593   1.135 -0.1464  0.9552  0.0028
   17MOL   O48215874   2.251   3.688   1.133 -0.1739 -0.4644  0.1329
   17MOL   C48315875   2.391   3.697   1.117  0.2336 -0.7934 -0.5004
   17MOL   C48415876   2.448   3.742   1.257 -0.1564  0.0216 -0.3044
   17MOL   C48515877   2.409   3.886   1.302 -0.5922  0.3321  0.1873
   17MOL   C48615878   2.481   3.929   1.424 -0.0757  0.2230  0.3557
   17MOL   C48715879   2.474   4.086   1.438 -0.0318 -0.0756  0.3096
   17MOL   C48815880   2.562   4.129   1.554 -0.3169 -0.3308 -0.2775
   17MOL   C48915881   2.511   4.264   1.613  0.8594  0.4896  0.1328
   17MOL   C49015882   2.514   4.386   1.517  0.3475  0.3331  0.1446
   17MOL   C49115883   2.481   4.519   1.597  0.5270 -0.2947  0.1484
   17MOL   C49215884   2.499   4.649   1.515  0.3380 -0.1960 -0.1986
   17MOL   O49315885   2.452   4.764   1.589  0.2588  0.3920  0.0470
   17MOL   C49415886   2.532   4.848   1.650 -0.4521  0.4146  0.3613
   17MOL   O49515887   2.653   4.832   1.654 -0.0967 -0.0340  0.5336
   17MOL   C49615888   2.455   4.945   1.740 -0.6059 -0.2267  0.2599
   17MOL   C49715889   2.540   5.066   1.796  0.3334 -0.2779 -0.7080
   17MOL   C49815890   2.448   5.189   1.834  0.2899 -0.5873  0.3156
   17MOL   C49915891   2.354   5.159   1.957 -0.6422 -0.0410 -0.5873
   17MOL   C50015892   2.420   5.135   2.092 -0.4564  0.1679 -0.8080
   17MOL   O50115893   2.527   5.188   2.117 -0.1430  0.4652  0.8001
   17MOL   H50215894   2.425   3.597   1.089  0.0410 -0.4642 -1.9448
   17MOL   H50315895   2.412   3.760   1.031  0.9112 -0.9995 -0.4881
   17MOL   H50415896   2.557   3.741   1.264 -0.2754 -1.1858  1.7784
   17MOL   H50515897   2.427   3.672   1.338  3.0058 -0.7481 -0.0783
   17MOL   H50615898   2.446   3.947   1.220 -1.3921  0.9152  0.2559
   17MOL   H50715899   2.304   3.907   1.320 -0.7941  1.3052 -2.0099
   17MOL   H50815900   2.582   3.898   1.398 -0.3382  0.4371 -0.9699
   17MOL   H50915901   2.436   3.883   1.512  1.1068  0.7741  1.2394
   17MOL   H51015902   2.368   4.111   1.449  0.1978  0.4066  1.4586
   17MOL   H51115903   2.504   4.134   1.345  0.9047 -0.8837  0.1854
   17MOL   H51215904   2.665   4.139   1.519  0.0932  0.0619  1.0438
   17MOL   H51315905   2.563   4.063   1.640 -1.2546 -0.3971 -0.3087
   17MOL   H51415906   2.573   4.282   1.701 -0.3184 -1.6056  1.4571
   17MOL   H51515907   2.405   4.256   1.641  1.1687 -1.6740  0.7896
   17MOL   H51615908   2.458   4.353   1.430  0.7263  2.1327 -0.8014
   17MOL   H51715909   2.618   4.390   1.483 -0.3573  1.9641 -1.8925
   17MOL   H51815910   2.381   4.515   1.639  0.9053  2.0260  1.3957
   17MOL   H51915911   2.561   4.520   1.672  0.8958 -0.3286 -0.2437
   17MOL   H52015912   2.450   4.645   1.418 -0.8149 -1.7358  0.4139
   17MOL   H52115913   2.605   4.660   1.496  0.0974  0.1816 -1.3624
   17MOL   H52215914   2.374   4.985   1.678  0.2019 -0.5883 -1.0527
   17MOL   H52315915   2.425   4.879   1.822  1.0084 -3.1482 -1.3989
   17MOL   H52415916   2.611   5.098   1.720  0.3023 -0.4970 -0.8313
   17MOL   H52515917   2.603   5.031   1.878  1.3673  0.0319 -1.3550
   17MOL   H52615918   2.386   5.217   1.749 -0.8656 -2.1635  0.6241
   17MOL   H52715919   2.497   5.286   1.841  0.4228 -0.5887 -0.5039
   17MOL   H52815920   2.302   5.067   1.930  0.3087 -0.7112 -0.1543
   17MOL   H52915921   2.295   5.250   1.970  0.3535  0.8340 -1.9853
   17MOL   O53015922   2.343   5.069   2.174  0.2783 -0.2223 -0.1174
   17MOL   C53115923   2.370   5.041   2.308  0.0787  0.5757 -0.2782
   17MOL   C53215924   2.355   5.164   2.407 -0.5297 -0.1716  0.0090
   17MOL   C53315925   2.213   5.204   2.455  0.3058 -0.3695  0.4189
   17MOL   C53415926   2.133   5.271   2.341 -0.1929  0.8372 -0.0316
   17MOL   C53515927   2.199   5.393   2.279  0.0949 -0.8914 -0.3124
   17MOL   C53615928   2.087   5.455   2.187 -1.0797 -0.3386 -0.5163
   17MOL   C53715929   2.149   5.569   2.103  0.0402 -0.0500 -0.8816
   17MOL   C53815930   2.059   5.601   1.979  0.0131  0.2798 -0.1871
   17MOL   C53915931   2.101   5.741   1.910 -0.0592  0.5832  0.5169
   17MOL   C54015932   2.230   5.738   1.825  0.2069 -0.0637  0.3373
   17MOL   O54115933   2.340   5.728   1.917  0.3476  1.0377 -0.1852
   17MOL   C54215934   2.462   5.734   1.867 -0.4375 -0.6971  0.2333
   17MOL   O54315935   2.490   5.748   1.747  0.0170 -0.6645  0.0724
   17MOL   C54415936   2.567   5.725   1.978 -0.1588  0.2304  0.3299
   17MOL   C54515937   2.607   5.583   2.010 -0.0189 -0.6091  0.1547
   17MOL   C54615938   2.700   5.520   1.897 -0.7503  0.0689 -0.5004
   17MOL   C54715939   2.760   5.387   1.941 -0.1561  0.5659  0.0657
   17MOL   C54815940   2.840   5.311   1.842 -1.0415  0.1126 -0.3450
   17MOL   O54915941   2.857   5.354   1.729  0.0429  0.3175 -0.3321
   17MOL   H55015942   2.290   4.971   2.331 -1.4577  2.1983 -0.5962
   17MOL   H55115943   2.467   4.993   2.322 -0.4174 -0.3026  0.1824
   17MOL   H55215944   2.410   5.251   2.370  1.4075 -1.4767 -0.2292
   17MOL   H55315945   2.412   5.127   2.492  0.9663  0.4237 -0.7222
   17MOL   H55415946   2.154   5.124   2.500 -1.7029  1.4643  1.1456
   17MOL   H55515947   2.225   5.272   2.539 -2.4082  2.2268 -1.1906
   17MOL   H55615948   2.039   5.295   2.392  1.2841  1.7258  2.3497
   17MOL   H55715949   2.113   5.196   2.264  0.6370 -1.4254  1.8906
   17MOL   H55815950   2.287   5.363   2.221 -1.9439 -2.4722 -2.6616
   17MOL   H55915951   2.229   5.453   2.365  0.6637  0.0028 -1.1340
   17MOL   H56015952   2.007   5.489   2.251 -1.0936 -3.7193  1.3806
   17MOL   H56115953   2.053   5.371   2.127 -0.7514 -1.5258  0.9155
   17MOL   H56215954   2.242   5.528   2.064 -1.0531 -1.7615 -1.7842
   17MOL   H56315955   2.164   5.659   2.162 -0.8644 -1.4526  1.5449
   17MOL   H56415956   1.955   5.626   2.002  0.6620  1.6934  1.2953
   17MOL   H56515957   2.061   5.515   1.912  3.5884  0.1065  0.0697
   17MOL   H56615958   2.016   5.759   1.844 -0.3020  0.9941  0.9402
   17MOL   H56715959   2.099   5.821   1.985 -0.0298  0.1943  0.9317
   17MOL   H56815960   2.244   5.832   1.770 -0.3929  0.0519  0.3814
   17MOL   H56915961   2.247   5.651   1.763 -0.3940 -0.4369  0.6958
   17MOL   H57015962   2.653   5.787   1.954 -1.0640  2.1474  1.9381
   17MOL   H57115963   2.518   5.767   2.066  1.8802  0.2141  1.4961
   17MOL   H57215964   2.518   5.524   2.032 -1.3391  0.8987 -1.0638
   17MOL   H57315965   2.665   5.591   2.102 -1.5034  0.7562  0.9970
   17MOL   H57415966   2.784   5.587   1.882 -0.2721 -0.1715  1.0304
   17MOL   H57515967   2.643   5.509   1.805  0.3030 -0.0788 -1.1407
   17MOL   H57615968   2.683   5.323   1.984 -1.6648  0.3217 -2.7975
   17MOL   H57715969   2.824   5.407   2.026 -0.1439 -0.2775  0.2553
   17MOL   O57815970   2.894   5.199   1.903 -0.3806  0.7818  0.4343
   17MOL   C57915971   2.992   5.119   1.842 -0.5602  0.1324  0.3498
   17MOL   C58015972   3.116   5.093   1.926 -0.0816 -0.4917  0.2035
   17MOL   C58115973   3.101   5.021   2.062  0.1009 -0.9197  0.2165
   17MOL   C58215974   3.056   4.867   2.041 -0.8425  0.5738 -0.2825
   17MOL   C58315975   3.089   4.775   2.166  0.3571 -0.2019 -0.0451
   17MOL   C58415976   3.064   4.633   2.132  0.2038  0.2648  0.5417
   17MOL   C58515977   3.075   4.531   2.246  0.2601 -0.1285  0.0138
   17MOL   C58615978   3.006   4.398   2.214 -0.8041 -0.7698 -0.2287
   17MOL   C58715979   3.067   4.330   2.087  0.1277  0.3350 -0.1326
   17MOL   C58815980   3.043   4.178   2.074 -0.1311  0.1369  0.2435
   17MOL   O58915981   3.072   4.116   1.947 -0.3690  0.4219  0.2295
   17MOL   C59015982   2.983   4.115   1.842 -0.1005  0.3712  0.4488
   17MOL   O59115983   2.875   4.175   1.846  0.4940  0.2248  0.1790
   17MOL   C59215984   3.033   4.048   1.716 -0.3666 -0.0822 -0.0848
   17MOL   C59315985   2.918   3.980   1.642 -0.4661 -0.2007  0.1557
   17MOL   C59415986   2.964   3.922   1.514  0.5900 -0.4236 -0.2896
   17MOL   C59515987   2.851   3.858   1.430  0.3422  0.2219 -0.2277
   17MOL   C59615988   2.913   3.780   1.317  0.3627 -0.7595  0.1958
   17MOL   O59715989   3.030   3.802   1.285 -0.6982  0.0442  0.1543
   17MOL   H59815990   2.945   5.026   1.811  0.9421 -0.4742 -0.1261
   17MOL   H59915991   3.027   5.173   1.754  0.4867 -0.3727  0.4577
   17MOL   H60015992   3.168   5.187   1.947  1.4166 -1.4359  0.7876
   17MOL   H60115993   3.181   5.034   1.862 -0.6196  0.4044 -1.1888
   17MOL   H60215994   3.190   5.019   2.124 -0.1248  2.5845  0.7713
   17MOL   H60315995   3.033   5.084   2.119 -2.3107 -1.8511 -1.5360
   17MOL   H60415996   3.116   4.825   1.960  0.7764  2.2920 -0.0175
   17MOL   H60515997   2.948   4.864   2.025 -0.9836  1.3490  0.4569
   17MOL   H60615998   3.025   4.805   2.249  0.5581  1.1023 -0.3408
   17MOL   H60715999   3.194   4.785   2.196 -0.0033  1.4968  0.7585
   17MOL   H60816000   3.148   4.612   2.066 -1.9569 -2.2973 -1.5287
   17MOL   H60916001   2.976   4.624   2.069  0.2809 -0.6406  0.5502
   17MOL   H61016002   3.038   4.570   2.341  2.5279  1.6278  0.2293
   17MOL   H61116003   3.178   4.521   2.280  0.2360 -0.9215 -0.1359
   17MOL   H61216004   2.899   4.413   2.208 -0.9535 -2.0930 -1.2555
   17MOL   H61316005   3.029   4.330   2.296 -0.5142  0.7538  0.9790
   17MOL   H61416006   3.010   4.373   2.005 -0.9014  1.5440  1.1737
   17MOL   H61516007   3.169   4.365   2.073  0.0824  0.9591  1.0136
   17MOL   H61616008   2.946   4.139   2.105  0.0282 -0.4449  0.0042
   17MOL   H61716009   3.110   4.124   2.141  0.2848  2.2675  1.6065
   17MOL   H61816010   3.077   4.132   1.662 -1.9523 -0.0133 -1.3219
   17MOL   H61916011   3.113   3.980   1.743 -0.8538 -0.1049  1.3554
   17MOL   H62016012   2.845   4.059   1.624 -1.1884 -1.1564 -1.1842
   17MOL   H62116013   2.875   3.896   1.695 -2.1945 -0.6518 -1.9107
   17MOL   H62216014   3.049   3.855   1.518  1.5851  0.7418 -1.6258
   17MOL   H62316015   3.009   4.001   1.454 -0.8544  1.0239  0.5106
   17MOL   H62416016   2.790   3.935   1.382  0.9819 -0.7907 -2.6931
   17MOL   H62516017   2.787   3.797   1.494  1.2059 -1.4232 -0.9077
   17MOL   O62616018   2.833   3.704   1.254 -0.3109 -0.6522 -0.3040
   17MOL   C62716019   2.891   3.628   1.151 -0.0103 -0.1540  0.9371
   17MOL   C62816020   2.904   3.698   1.017 -0.2784 -0.3884 -0.2170
   17MOL   C62916021   2.783   3.725   0.931  0.7256 -0.3901  0.7845
   17MOL   C63016022   2.711   3.605   0.868  0.7361 -0.0274 -0.3173
   17MOL   C63116023   2.582   3.651   0.795 -0.8982  0.4026 -0.2875
   17MOL   C63216024   2.596   3.741   0.674  0.0203 -0.1994 -0.0217
   17MOL   C63316025   2.475   3.842   0.664  0.9260 -0.2733  0.7098
   17MOL   C63416026   2.475   3.921   0.530  0.2524 -0.2851  0.8703
   17MOL   C63516027   2.419   3.839   0.416 -0.2638 -0.1887 -0.7233
   17MOL   C63616028   2.456   3.887   0.276 -0.6792  0.2597 -0.0664
   17MOL   O63716029   2.592   3.875   0.248  0.0637 -0.0463  0.3324
   17MOL   C63816030   2.642   3.771   0.187 -0.5619  0.5741 -0.3829
   17MOL   O63916031   2.583   3.667   0.153 -0.0343 -0.3026  0.0613
   17MOL   C64016032   2.781   3.796   0.156 -0.4852 -0.7068  0.5107
   17MOL   C64116033   2.798   3.906   0.043  0.4220  0.1188 -0.4767
   17MOL   C64216034   2.781   3.853   7.670 -0.4408  0.6367 -0.1589
   17MOL   C64316035   2.751   3.967   7.565 -0.0254 -0.4149  0.3971
   17MOL   C64416036   2.717   3.914   7.432  0.1243  0.0909 -0.4375
   17MOL   O64516037   2.618   3.955   7.367 -0.1676 -0.7935 -0.2256
   17MOL   H64616038   2.992   3.594   1.171 -0.8722 -2.8865  0.7997
   17MOL   H64716039   2.823   3.544   1.139 -0.5452 -0.2315  4.2549
   17MOL   H64816040   2.968   3.641   0.950 -1.3795 -0.4587 -1.2276
   17MOL   H64916041   2.957   3.790   1.041 -0.9871 -0.4250  1.5378
   17MOL   H65016042   2.709   3.776   0.993  0.2759 -0.4256  0.2689
   17MOL   H65116043   2.810   3.784   0.843 -1.0756  0.1673  0.5920
   17MOL   H65216044   2.688   3.531   0.945  0.7682  1.8726  1.5781
   17MOL   H65316045   2.778   3.560   0.795  0.3573 -2.2027  0.6096
   17MOL   H65416046   2.517   3.708   0.861 -2.3166 -1.1728 -0.3040
   17MOL   H65516047   2.528   3.559   0.774 -1.7131  0.5974  0.9115
   17MOL   H65616048   2.609   3.679   0.585  0.9330 -0.3923  0.2391
   17MOL   H65716049   2.686   3.802   0.677  0.3849 -0.7894  1.2509
   17MOL   H65816050   2.472   3.920   0.740 -0.9937  1.6712 -1.2855
   17MOL   H65916051   2.376   3.797   0.671  0.9221 -0.3263  0.3438
   17MOL   H66016052   2.573   3.969   0.521  0.4131 -1.1014 -2.9478
   17MOL   H66116053   2.408   4.005   0.544 -2.3973 -2.1361 -0.3375
   17MOL   H66216054   2.447   3.733   0.422  3.2051  0.7565  1.3245
   17MOL   H66316055   2.311   3.836   0.423 -0.1619 -3.2452  0.2253
   17MOL   H66416056   2.419   3.988   0.258 -1.0157  0.4161  1.4497
   17MOL   H66516057   2.393   3.825   0.211 -1.4748  0.1823  0.7703
   17MOL   H66616058   2.829   3.834   0.246 -0.0690  0.5162 -0.2019
   17MOL   H66716059   2.849   3.711   0.142  0.8280  0.6084 -1.3840
   17MOL   H66816060   2.899   3.946   0.053 -0.0556  1.6390 -1.4387
   17MOL   H66916061   2.731   3.989   0.065 -0.2325  0.0036 -1.9388
   17MOL   H67016062   2.683   3.806   7.667 -0.5193  0.8250 -0.6800
   17MOL   H67116063   2.852   3.781   7.630 -1.7143 -0.4200 -0.5485
   17MOL   H67216064   2.833   4.038   7.555  1.0697 -1.2993  2.7563
   17MOL   H67316065   2.672   4.030   7.606 -1.0399 -2.0308  0.9614
   17MOL   O67416066   2.798   3.817   7.391 -0.2213  0.0618 -0.5378
   17MOL   C67516067   2.772   3.745   7.272 -0.2160  0.2180 -0.6269
   17MOL   C67616068   2.820   3.817   7.146  0.1381 -0.0594  0.2978
   17MOL   C67716069   2.970   3.867   7.143  0.1737 -0.6882 -0.6747
   17MOL   C67816070   3.008   3.898   7.003 -0.2547  0.0014 -0.1223
   17MOL   C67916071   3.154   3.945   6.995  0.0844 -0.6036  0.3076
   17MOL   C68016072   3.204   3.947   6.845  0.2848  0.3518 -0.1563
   17MOL   C68116073   3.326   4.044   6.822  0.1755  0.6551 -0.5307
   17MOL   C68216074   3.455   4.001   6.893 -0.0276 -0.0738 -0.0757
   17MOL   C68316075   3.556   4.113   6.904 -0.4592 -0.1079 -0.3820
   17MOL   C68416076   3.678   4.060   6.974  0.5267 -0.4421 -0.1696
   17MOL   O68516077   3.658   4.072   7.111  0.1857  0.5341 -0.6831
   17MOL   C68616078   3.727   4.157   7.195 -0.3433  0.2187  0.3210
   17MOL   O68716079   3.811   4.249   7.163  0.3995  0.7391  0.0038
   17MOL   C68816080   3.683   4.134   7.338 -0.6012 -0.2237  0.3534
   17MOL   C68916081   3.545   4.186   7.381 -0.3658  0.2135 -0.4651
   17MOL   C69016082   3.428   4.100   7.330  0.5613 -0.3852  0.5475
   17MOL   C69116083   3.286   4.136   7.375 -0.2904  0.6881  0.1303
   17MOL   C69216084   3.245   4.118   7.523 -0.1637 -0.1518  0.2151
   17MOL   O69316085   3.233   4.214   7.595 -1.3295 -0.5292 -0.2038
   17MOL   H69416086   2.812   3.644   7.272 -0.5034  0.0807  1.5685
   17MOL   H69516087   2.663   3.741   7.263 -0.3491  0.2991  0.7958
   17MOL   H69616088   2.761   3.905   7.121  2.6320  1.0989 -1.7184
   17MOL   H69716089   2.801   3.750   7.062  2.2641 -0.3910  0.0598
   17MOL   H69816090   2.962   3.958   7.202 -2.2424 -1.1853 -0.1590
   17MOL   H69916091   3.042   3.804   7.195 -0.2759 -0.8780 -0.2717
   17MOL   H70016092   2.934   3.964   6.959  0.1295 -1.2327 -2.7297
   17MOL   H70116093   2.999   3.811   6.937 -0.3498 -0.4595  0.4931
   17MOL   H70216094   3.215   3.878   7.057 -0.2135 -0.7037  0.4967
   17MOL   H70316095   3.166   4.040   7.047  0.0503  0.4780 -1.6256
   17MOL   H70416096   3.117   3.970   6.783 -0.3673 -3.9217 -0.9766
   17MOL   H70516097   3.237   3.849   6.812 -0.8626 -0.9486  2.4931
   17MOL   H70616098   3.286   4.141   6.852 -0.1240  0.3131  0.1912
   17MOL   H70716099   3.350   4.053   6.716  0.1350  2.5480 -0.4090
   17MOL   H70816100   3.505   3.923   6.834  0.1652  1.1007 -1.4961
   17MOL   H70916101   3.418   3.966   6.989  2.6079 -0.3862  0.8751
   17MOL   H71016102   3.584   4.151   6.806  0.4938 -1.2949 -0.5935
   17MOL   H71116103   3.510   4.193   6.961 -3.9177 -1.8804 -0.5504
   17MOL   H71216104   3.762   4.128   6.957 -0.0313 -0.1363 -1.7493
   17MOL   H71316105   3.704   3.958   6.948  2.8332  0.5523 -1.9072
   17MOL   H71416106   3.708   4.030   7.360  3.3199  0.1833 -1.7921
   17MOL   H71516107   3.760   4.189   7.392  1.8061 -0.7792 -2.4106
   17MOL   H71616108   3.523   4.287   7.344  0.6323  0.3265 -0.7491
   17MOL   H71716109   3.541   4.170   7.489 -2.1832 -3.7818 -1.0275
   17MOL   H71816110   3.447   3.997   7.363  1.0345 -0.6486 -0.5213
   17MOL   H71916111   3.424   4.094   7.221 -1.2187  0.6303  0.5345
   17MOL   H72016112   3.207   4.081   7.324  0.0533 -1.4930  1.8422
   17MOL   H72116113   3.267   4.241   7.356 -0.2074  0.5992 -0.4301
   17MOL   O72216114   3.227   3.987   7.551 -0.6453 -0.1669  0.4831
   17MOL   C72316115   3.211   3.943   7.679  0.4500 -0.0595  0.0922
   17MOL   C72416116   3.209   3.790   7.670 -0.3658 -0.2281 -0.1176
   17MOL   C72516117   3.183   3.715   0.040 -0.0198  0.5445 -0.3720
   17MOL   C72616118   3.183   3.562   0.038 -0.3366 -0.2493 -0.8106
   17MOL   C72716119   3.039   3.506   0.012  0.5278  0.1648  0.0599
   17MOL   C72816120   3.031   3.359   7.758 -0.4593 -0.5142 -0.0508
   17MOL   C72916121   2.898   3.308   7.704 -0.3990 -0.2664  0.4168
   17MOL   C73016122   2.898   3.164   7.649 -0.0877 -0.5856 -0.4480
   17MOL   C73116123   2.761   3.105   7.628  0.0819  0.3197 -0.0046
   17MOL   C73216124   2.756   2.959   7.566 -0.3832  0.0792 -0.9851
   17MOL   O73316125   2.623   2.904   7.570 -0.2874 -0.4687  0.1274
   17MOL   C73416126   2.612   2.801   7.653 -0.6770 -0.1613 -0.0611
   17MOL   O73516127   2.692   2.761   7.737 -0.1255 -0.3736  0.1479
   17MOL   C73616128   2.465   2.738   7.648  0.0528 -0.5258  0.7204
   17MOL   C73716129   2.449   2.634   7.758  0.0808 -0.2424 -1.8382
   17MOL   C73816130   2.311   2.579   0.012 -0.2683  0.5619 -0.3162
   17MOL   C73916131   2.317   2.451   0.100  0.2449 -0.4459  0.5024
   17MOL   C74016132   2.390   2.333   0.043  0.3868  0.4253 -0.2502
   17MOL   O74116133   2.384   2.302   7.691  0.4765 -0.5279  1.2420
   17MOL   H74216134   3.297   3.983   7.733  0.0459  0.0615  0.6536
   17MOL   H74316135   3.123   3.989   7.723  0.6625 -0.8280  1.3568
   17MOL   H74416136   3.296   3.756   7.613  1.2965 -1.5959  3.0667
   17MOL   H74516137   3.139   3.769   7.590 -0.1329  0.2997 -0.4614
   17MOL   H74616138   3.259   3.745   0.112 -0.8284 -0.6147  1.0031
   17MOL   H74716139   3.091   3.741   0.094 -0.5451 -1.6835 -0.1588
   17MOL   H74816140   3.203   3.518   0.136  0.4465  1.4627 -0.1839
   17MOL   H74916141   3.255   3.521   7.732 -0.8122 -2.3384 -0.1272
   17MOL   H75016142   2.999   3.556   7.688 -0.6080 -1.4831 -0.3967
   17MOL   H75116143   2.976   3.542   0.093 -0.3199  0.2400 -0.6116
   17MOL   H75216144   3.069   3.309   0.082 -0.3752  0.5812  0.5431
   17MOL   H75316145   3.110   3.341   7.686 -0.7555  0.3261 -0.5953
   17MOL   H75416146   2.861   3.364   7.618 -1.0036 -0.7206  0.3759
   17MOL   H75516147   2.821   3.319   0.015 -0.8617  0.7833 -0.2040
   17MOL   H75616148   2.948   3.098   7.720  0.4141  1.6847  1.3821
   17MOL   H75716149   2.950   3.168   7.554  0.9601  1.4668  0.1792
   17MOL   H75816150   2.714   3.106   7.727  1.3744 -1.6154  0.6507
   17MOL   H75916151   2.710   3.177   7.564  1.8627  2.6499  1.1682
   17MOL   H76016152   2.825   2.894   7.618 -4.2096 -1.7932  1.9815
   17MOL   H76116153   2.787   2.954   7.461  1.7142  0.1681 -0.3983
   17MOL   H76216154   2.389   2.816   7.652 -2.1058 -2.5615  0.0357
   17MOL   H76316155   2.450   2.687   7.554 -2.5932  0.7799  0.3948
   17MOL   H76416156   2.471   2.671   0.093 -2.1086 -1.9432 -0.6631
   17MOL   H76516157   2.521   2.555   7.736 -0.8416 -1.9893  1.0553
   17MOL   H76616158   2.250   2.564   7.687 -0.3498 -1.5345  0.0557
   17MOL   H76716159   2.255   2.653   0.068  1.7705  1.0628  1.1337
   17MOL   H76816160   2.220   2.416   0.135  1.1844 -1.2625  2.3605
   17MOL   H76916161   2.362   2.473   0.197  0.5924 -2.1274  0.7327
   17MOL   O77016162   2.443   2.253   0.136  0.2925 -0.5025 -0.4839
   17MOL   C77116163   2.488   2.126   0.113 -0.1194 -0.3823 -0.0874
   17MOL   C77216164   2.579   2.087   0.230  0.0805 -0.3464 -0.1098
   17MOL   C77316165   2.638   1.947   0.228 -0.2237  0.6331 -0.4985
   17MOL   C77416166   2.763   1.919   0.305 -0.6352  0.9253  0.7969
   17MOL   C77516167   2.732   1.942   0.455  0.2065 -0.2795  0.4686
   17MOL   C77616168   2.845   1.907   0.551  0.5816 -0.0399  0.0708
   17MOL   C77716169   2.808   1.923   0.702  0.0893 -0.5630  0.8870
   17MOL   C77816170   2.927   1.889   0.794 -0.4497 -0.0644 -0.2358
   17MOL   C77916171   2.912   1.942   0.939 -0.2346  0.3509 -1.2841
   17MOL   C78016172   3.043   1.939   1.020  0.4201 -0.2468  0.3930
   17MOL   O78116173   3.145   2.037   0.984  0.0207  0.4301  0.1769
   17MOL   C78216174   3.151   2.159   1.046  0.1589  0.5045  0.0340
   17MOL   O78316175   3.106   2.195   1.151  0.4043  0.5885 -0.0889
   17MOL   C78416176   3.239   2.255   0.975 -0.1822 -0.2061 -0.2192
   17MOL   C78516177   3.167   2.338   0.871  0.7920 -0.0618  0.3265
   17MOL   C78616178   3.138   2.254   0.738  0.3564  0.2502  0.1559
   17MOL   C78716179   3.068   2.330   0.623 -1.3694  0.1122  0.8857
   17MOL   C78816180   2.912   2.330   0.638 -0.3684 -0.0609 -0.1843
   17MOL   O78916181   2.847   2.243   0.577 -0.0208 -0.2413 -0.2201
   17MOL   H79016182   2.393   2.073   0.106 -0.2787  0.1467 -2.1381
   17MOL   H79116183   2.536   2.115   0.016 -1.0064 -1.7566 -0.3875
   17MOL   H79216184   2.536   2.105   0.328  2.1835 -0.7692  0.9405
   17MOL   H79316185   2.665   2.155   0.233 -0.2521  0.0956 -0.6755
   17MOL   H79416186   2.558   1.877   0.251  1.3441 -0.4158  1.9696
   17MOL   H79516187   2.667   1.921   0.127  0.5469 -1.3739  0.2088
   17MOL   H79616188   2.840   1.992   0.277  3.0039 -3.3727 -0.9224
   17MOL   H79716189   2.805   1.821   0.287  1.4025  1.9584 -0.2465
   17MOL   H79816190   2.651   1.873   0.477  0.9004 -1.0387  0.6766
   17MOL   H79916191   2.694   2.042   0.478  2.2112  0.5406  0.3137
   17MOL   H80016192   2.922   1.980   0.527  1.6169 -0.5797  1.6894
   17MOL   H80116193   2.879   1.805   0.534 -1.8062 -0.4448 -2.8512
   17MOL   H80216194   2.716   1.867   0.716 -1.7531  1.9071 -0.9222
   17MOL   H80316195   2.772   2.024   0.719  0.6886 -0.1687 -0.1339
   17MOL   H80416196   3.014   1.929   0.743  0.9697 -0.8524  1.4942
   17MOL   H80516197   2.948   1.782   0.789 -0.9420 -0.0970 -1.9459
   17MOL   H80616198   2.876   2.045   0.940 -2.1419 -0.2994  0.7868
   17MOL   H80716199   2.837   1.879   0.985  0.2761  0.3613 -0.4218
   17MOL   H80816200   3.101   1.850   0.999  1.0733  0.5783 -1.4212
   17MOL   H80916201   3.024   1.939   1.128  3.5540 -0.7848  0.9836
   17MOL   H81016202   3.265   2.326   1.053 -1.1560  1.4952 -1.4026
   17MOL   H81116203   3.334   2.213   0.941  0.6956  0.9479  0.7807
   17MOL   H81216204   3.231   2.420   0.838 -1.2611  1.1416 -0.8051
   17MOL   H81316205   3.078   2.384   0.913  0.4126  0.2437 -0.7839
   17MOL   H81416206   3.089   2.158   0.753 -1.9697  1.5735  1.2888
   17MOL   H81516207   3.238   2.228   0.704 -0.9102 -1.8636 -2.0574
   17MOL   H81616208   3.093   2.303   0.520  0.1358  0.0817  1.2610
   17MOL   H81716209   3.095   2.435   0.638 -0.5873  0.1759 -0.8332
   17MOL   O81816210   2.869   2.429   0.719  0.1032  0.1281  0.2499
   17MOL   C81916211   2.735   2.460   0.746 -0.5193  0.1517 -0.8169
   17MOL   C82016212   2.674   2.356   0.830 -0.6598 -0.0521  0.0384
   17MOL   C82116213   2.737   2.349   0.967  0.4600  0.7771  0.1227
   17MOL   C82216214   2.629   2.283   1.054  0.3983  0.4165  0.1865
   17MOL   C82316215   2.674   2.272   1.205 -0.1931  0.3323 -0.1210
   17MOL   C82416216   2.564   2.211   1.286 -0.4437 -0.8217 -0.1283
   17MOL   C82516217   2.588   2.185   1.435 -0.0779  0.7739  0.6536
   17MOL   C82616218   2.468   2.124   1.504 -0.4847 -0.4923  0.2860
   17MOL   C82716219   2.490   2.100   1.651  0.1020 -0.2309 -0.0366
   17MOL   C82816220   2.359   2.049   1.722  0.3838 -0.0719  0.1153
   17MOL   O82916221   2.275   2.161   1.741 -0.0576 -0.2271 -0.5049
   17MOL   C83016222   2.153   2.137   1.812 -0.4427  0.8974 -0.3856
   17MOL   O83116223   2.117   2.020   1.844 -0.7569  0.7312  0.8204
   17MOL   C83216224   2.067   2.259   1.847  0.6811 -0.9891  0.4527
   17MOL   C83316225   2.107   2.324   1.988 -0.4275 -0.5430 -0.5783
   17MOL   C83416226   2.248   2.370   1.999  0.0910  0.4248  0.2913
   17MOL   C83516227   2.271   2.436   2.131 -0.0967  0.3775 -0.3597
   17MOL   C83616228   2.186   2.565   2.166 -0.8107 -0.1639 -0.3099
   17MOL   O83716229   2.139   2.577   2.275 -0.7976 -0.2578  0.1544
   17MOL   H83816230   2.729   2.551   0.805 -2.7225 -0.8339  0.5373
   17MOL   H83916231   2.675   2.473   0.655 -1.0277 -0.2392 -0.5383
   17MOL   H84016232   2.674   2.260   0.778  2.7320  0.4880 -1.1124
   17MOL   H84116233   2.569   2.385   0.833 -0.4126  1.7426 -4.4562
   17MOL   H84216234   2.825   2.286   0.979 -1.1645 -1.6357 -0.1460
   17MOL   H84316235   2.761   2.449   1.001  3.7000  0.4830 -1.1709
   17MOL   H84416236   2.619   2.179   1.022  0.4654  0.0813  1.2078
   17MOL   H84516237   2.542   2.349   1.059  0.7878  1.1313 -2.1648
   17MOL   H84616238   2.695   2.372   1.243 -0.0303  0.4222 -0.4356
   17MOL   H84716239   2.769   2.223   1.229  0.0097  0.6072 -0.3532
   17MOL   H84816240   2.538   2.115   1.242  0.9110 -0.0456 -2.7455
   17MOL   H84916241   2.474   2.271   1.276  1.5117  2.0332 -1.3795
   17MOL   H85016242   2.613   2.279   1.483 -2.0328  1.3950  0.4781
   17MOL   H85116243   2.676   2.123   1.455  1.0213  1.8025 -0.9036
   17MOL   H85216244   2.437   2.036   1.447  0.9716 -1.6477  1.2492
   17MOL   H85316245   2.381   2.189   1.497  0.2992  0.7128  1.5777
   17MOL   H85416246   2.566   2.022   1.659 -0.2657 -0.3707  2.5973
   17MOL   H85516247   2.538   2.179   1.708  1.0280 -1.4922  0.9866
   17MOL   H85616248   2.381   2.009   1.821  0.2870  0.5432  0.3853
   17MOL   H85716249   2.297   1.972   1.676 -2.2156  0.3560  2.7212
   17MOL   H85816250   2.088   2.327   1.764 -2.4629 -0.9405 -0.3786
   17MOL   H85916251   1.962   2.229   1.844  0.6422 -0.8365  0.2433
   17MOL   H86016252   2.089   2.258   2.073  2.3173  0.9681  1.2531
   17MOL   H86116253   2.044   2.412   1.994 -1.7571 -1.4818 -0.4552
   17MOL   H86216254   2.261   2.444   1.920  0.7932  0.3213  0.3013
   17MOL   H86316255   2.305   2.278   1.983 -0.6659  0.0226 -0.0964
   17MOL   H86416256   2.373   2.471   2.144  0.0970 -0.1933 -0.3433
   17MOL   H86516257   2.237   2.360   2.202 -1.8626 -0.0377 -1.6092
   17MOL   O86616258   2.182   2.649   2.068  1.0011  0.0258  0.0011
   17MOL   C86716259   2.120   2.773   2.088 -0.3669 -0.5451  0.4172
   17MOL   C86816260   2.080   2.829   1.953  0.1493 -0.7267  0.2032
   17MOL   C86916261   2.051   2.981   1.949  0.0329 -0.4499 -0.3319
   17MOL   C87016262   1.966   3.035   1.829  0.4836 -0.1198 -0.1090
   17MOL   C87116263   1.966   3.190   1.829  1.2648 -0.4774 -0.1756
   17MOL   C87216264   1.907   3.251   1.699 -0.0791 -0.5696 -0.2425
   17MOL   C87316265   1.762   3.276   1.721 -0.4670  0.8186 -0.5300
   17MOL   C87416266   1.704   3.341   1.594 -0.2025  0.4254  0.2789
   17MOL   C87516267   1.753   3.480   1.564  0.4700  0.1695 -0.2703
   17MOL   C87616268   1.752   3.506   1.410  0.8777 -0.5614 -0.3771
   17MOL   O87716269   1.628   3.480   1.350 -0.0842  0.3193  0.6029
   17MOL   C87816270   1.627   3.465   1.212  0.1122  0.2041 -0.2571
   17MOL   O87916271   1.720   3.472   1.129  0.2772 -0.2957 -0.9406
   17MOL   C88016272   1.485   3.450   1.160 -0.2255 -0.4159  0.2933
   17MOL   C88116273   1.440   3.303   1.175  0.5320  0.6011 -0.0939
   17MOL   C88216274   1.503   3.209   1.072  0.0715  0.4083 -0.0219
   17MOL   C88316275   1.485   3.058   1.111 -0.4997 -0.5390  0.4201
   17MOL   C88416276   1.601   2.998   1.190 -0.4828 -0.3278  0.4372
   17MOL   O88516277   1.664   2.906   1.143 -0.0213  0.2110  0.2003
   17MOL   H88616278   2.028   2.763   2.145 -1.0762  0.5081 -0.5313
   17MOL   H88716279   2.191   2.833   2.145  1.0160 -1.5949 -0.1749
   17MOL   H88816280   1.990   2.776   1.922  0.5991 -0.4551 -1.6012
   17MOL   H88916281   2.152   2.816   1.873 -1.0078  0.6319 -1.1015
   17MOL   H89016282   1.991   2.995   2.039  2.2257  1.2665  0.9150
   17MOL   H89116283   2.134   3.047   1.972  0.3468 -0.4384 -1.4596
   17MOL   H89216284   1.871   2.985   1.847 -0.1906  1.1645 -0.0770
   17MOL   H89316285   2.025   2.994   1.747 -0.9379  1.9509 -2.2492
   17MOL   H89416286   2.060   3.241   1.850  1.3762  0.5528 -3.0835
   17MOL   H89516287   1.903   3.214   1.915 -0.7714 -2.5024 -1.0434
   17MOL   H89616288   1.921   3.189   1.610  2.2673 -0.5383  0.0879
   17MOL   H89716289   1.957   3.343   1.668 -0.4488  0.0376  0.9454
   17MOL   H89816290   1.747   3.344   1.804  1.0667  0.5833 -0.0362
   17MOL   H89916291   1.723   3.175   1.731 -1.7534  1.3896  0.3000
   17MOL   H90016292   1.596   3.341   1.581 -0.1304 -0.9410 -0.4054
   17MOL   H90116293   1.725   3.277   1.509  0.5897 -0.0296  0.8165
   17MOL   H90216294   1.680   3.554   1.597  2.5455  1.7199  0.9028
   17MOL   H90316295   1.842   3.514   1.616  0.3376  0.6228 -0.3444
   17MOL   H90416296   1.822   3.445   1.353  2.5140  1.0068 -0.0836
   17MOL   H90516297   1.780   3.609   1.392 -0.3481  0.3419  2.5687
   17MOL   H90616298   1.423   3.524   1.210  0.1773  1.3418 -1.7578
   17MOL   H90716299   1.486   3.466   1.052 -1.1713  1.7022  0.5707
   17MOL   H90816300   1.333   3.291   1.157  0.3027  2.1793  0.1302
   17MOL   H90916301   1.446   3.257   1.273 -0.9616 -2.1205 -1.2270
   17MOL   H91016302   1.604   3.230   1.038 -0.0785 -1.0037 -1.4047
   17MOL   H91116303   1.445   3.218   0.980  1.9583  3.1588 -1.0199
   17MOL   H91216304   1.466   3.004   1.018  0.1654 -0.7242  0.3958
   17MOL   H91316305   1.393   3.043   1.168 -0.2709 -3.2113  0.1525
   17MOL   O91416306   1.603   3.051   1.318  0.1372  0.1220  0.2724
   17MOL   C91516307   1.655   2.970   1.418 -0.2653  0.8562 -0.0333
   17MOL   C91616308   1.552   2.954   1.536  0.5332 -0.0605  0.0126
   17MOL   C91716309   1.436   2.853   1.498  0.4415 -0.9415 -0.4066
   17MOL   C91816310   1.348   2.827   1.621 -0.6281 -0.2090  0.0747
   17MOL   C91916311   1.212   2.754   1.585 -0.0940  0.1162  0.9046
   17MOL   C92016312   1.122   2.726   1.710  0.8275  0.5995  0.5341
   17MOL   C92116313   0.999   2.638   1.687  0.1685  0.3564 -0.0132
   17MOL   C92216314   0.904   2.611   1.803  0.1718 -0.4400 -0.4681
   17MOL   C92316315   0.779   2.535   1.750 -0.2257 -0.7604 -0.2386
   17MOL   C92416316   0.668   2.631   1.712 -0.1725 -0.0599  0.0119
   17MOL   O92516317   0.703   2.677   1.578 -0.0401 -0.0593  0.2078
   17MOL   C92616318   0.680   2.805   1.540 -0.2791  0.3775 -0.3035
   17MOL   O92716319   0.651   2.897   1.622  0.3298  0.5933  0.1439
   17MOL   C92816320   0.701   2.836   1.391 -0.0156 -0.5124 -0.0542
   17MOL   C92916321   0.845   2.891   1.359 -0.3186 -0.0556  0.1465
   17MOL   C93016322   0.867   2.949   1.215 -0.7648  1.1320  0.3571
   17MOL   C93116323   1.013   2.953   1.157  0.7949 -0.3771 -0.5299
   17MOL   C93216324   1.099   3.054   1.226  0.5636 -0.5870  0.5911
   17MOL   O93316325   1.055   3.174   1.244 -0.0535  0.3391 -0.4893
   17MOL   H93416326   1.680   2.868   1.387 -1.1498  0.4532  0.5585
   17MOL   H93516327   1.746   3.019   1.453 -1.2597  3.2890 -0.7613
   17MOL   H93616328   1.510   3.049   1.572 -0.4420 -0.8055  0.8820
   17MOL   H93716329   1.615   2.934   1.623  0.9315  0.1587 -0.2238
   17MOL   H93816330   1.383   2.901   1.416  1.4881 -1.6886 -1.5368
   17MOL   H93916331   1.490   2.765   1.461 -0.1144 -1.4374 -0.0372
   17MOL   H94016332   1.319   2.923   1.664 -1.7875 -1.2291  1.6014
   17MOL   H94116333   1.409   2.775   1.694 -0.0631 -0.5087 -0.5961
   17MOL   H94216334   1.231   2.657   1.539 -0.7742  0.6621 -0.5604
   17MOL   H94316335   1.159   2.819   1.516  0.4766  3.0086  3.1190
   17MOL   H94416336   1.091   2.822   1.749 -0.2845  0.5354 -0.1709
   17MOL   H94516337   1.189   2.683   1.785  2.0255  0.4213 -0.6156
   17MOL   H94616338   1.040   2.543   1.652  0.4257  0.5159 -0.1437
   17MOL   H94716339   0.935   2.678   1.608 -0.0475 -1.9507 -1.0445
   17MOL   H94816340   0.871   2.706   1.847 -0.8609 -1.5787  1.2734
   17MOL   H94916341   0.968   2.553   1.869  0.2545 -0.5786 -0.6708
   17MOL   H95016342   0.801   2.476   1.661  1.6733  1.9469 -1.6204
   17MOL   H95116343   0.736   2.462   1.819  1.2239 -0.7720  0.6668
   17MOL   H95216344   0.669   2.714   1.784  1.2133 -0.0435 -0.0138
   17MOL   H95316345   0.570   2.584   1.718  0.3875 -1.2695 -0.2837
   17MOL   H95416346   0.687   2.755   1.319  0.5945  0.6327 -1.4925
   17MOL   H95516347   0.622   2.907   1.368  1.6580  0.9690 -1.3922
   17MOL   H95616348   0.919   2.813   1.373  1.2225  1.3360 -0.0590
   17MOL   H95716349   0.872   2.971   1.428 -1.2831 -0.0257  0.4929
   17MOL   H95816350   0.818   3.046   1.207  2.5073  2.7791 -0.5725
   17MOL   H95916351   0.809   2.886   1.147 -0.8081  2.0813 -0.4951
   17MOL   H96016352   1.019   2.979   1.051 -2.4729 -1.1142 -0.9434
   17MOL   H96116353   1.065   2.857   1.159 -0.4985 -1.0869 -0.4764
   17MOL   H96216354   1.198   3.028   1.264  0.5910  0.9170  1.6038
   18MOL     O116355   5.031   6.418   3.835  0.8479  0.2824 -0.1022
   18MOL     C216356   5.111   6.454   3.945 -0.0479  0.1436  0.6065
   18MOL     C316357   5.178   6.328   4.007 -0.1609 -0.1301  0.0236
   18MOL     C416358   5.227   6.366   4.144  0.5729 -0.0799 -0.0153
   18MOL     C516359   5.265   6.239   4.225 -0.7091  0.2358  0.2882
   18MOL     C616360   5.386   6.169   4.158 -0.9065  0.1900 -0.3273
   18MOL     C716361   5.465   6.071   4.259  0.3974 -0.6141  0.5585
   18MOL     C816362   5.495   5.938   4.189  0.2110 -0.3429  0.1671
   18MOL     C916363   5.607   5.865   4.258 -0.4251  0.0165 -0.1638
   18MOL    C1016364   5.658   5.750   4.171 -0.4283  0.0061  0.2889
   18MOL    C1116365   5.753   5.662   4.255  0.1560  0.2225 -0.1705
   18MOL    O1216366   5.893   5.674   4.221  0.1798 -0.6475 -0.3695
   18MOL    C1316367   5.977   5.581   4.283  0.1289  0.4781  0.3222
   18MOL    O1416368   5.944   5.482   4.346  0.1362  0.4125 -0.2993
   18MOL    C1516369   6.119   5.611   4.228 -0.4157 -0.5014 -0.4775
   18MOL    C1616370   6.230   5.514   4.269 -0.1866  0.4166  0.0392
   18MOL    C1716371   6.215   5.375   4.203  0.5159 -0.5224 -0.0057
   18MOL    C1816372   6.332   5.286   4.245 -0.5796  0.2013  0.2526
   18MOL    C1916373   6.319   5.138   4.223 -1.1216  1.1386  0.0542
   18MOL    O2016374   6.336   5.089   4.105  0.2935  0.4675 -0.1199
   18MOL    H2116375   5.181   6.534   3.923 -1.0176  0.6282 -0.8750
   18MOL    H2216376   5.044   6.503   4.016 -0.3369  2.1971 -1.0407
   18MOL    H2316377   5.263   6.294   3.949  0.3579  0.6906  0.2939
   18MOL    H2416378   5.108   6.244   4.008  1.7490 -1.7567 -0.3015
   18MOL    H2516379   5.312   6.434   4.144 -1.4552  2.5289 -0.9162
   18MOL    H2616380   5.151   6.425   4.193  1.7731  0.9219  0.6563
   18MOL    H2716381   5.177   6.175   4.232 -1.1830  0.6566 -1.6129
   18MOL    H2816382   5.295   6.265   4.326  0.7624  1.6085 -0.4831
   18MOL    H2916383   5.458   6.239   4.113 -0.2946 -0.5477 -0.5048
   18MOL    H3016384   5.349   6.102   4.082 -0.8600  1.2213 -1.2756
   18MOL    H3116385   5.403   6.048   4.346 -2.0420  1.2583 -0.6121
   18MOL    H3216386   5.559   6.114   4.293 -0.2575  0.7680  0.6586
   18MOL    H3316387   5.526   5.961   4.087  0.0567  0.0677  0.2109
   18MOL    H3416388   5.405   5.877   4.177  0.6502 -0.5343 -2.3877
   18MOL    H3516389   5.556   5.824   4.346  0.3320 -0.5353  0.0207
   18MOL    H3616390   5.693   5.921   4.295  0.4471 -0.8498 -0.8539
   18MOL    H3716391   5.572   5.689   4.145 -0.8826  0.4508  0.7278
   18MOL    H3816392   5.704   5.785   4.078 -0.3042 -1.5216 -0.2277
   18MOL    H3916393   5.722   5.558   4.268 -0.0271  0.3315  0.2949
   18MOL    H4016394   5.760   5.689   4.361 -1.3966 -0.0384  0.0025
   18MOL    H4116395   6.113   5.613   4.119  0.3272 -2.9948 -0.5808
   18MOL    H4216396   6.143   5.713   4.260 -0.7355 -0.9412  1.2032
   18MOL    H4316397   6.232   5.508   4.378  0.8313 -1.7617 -0.0775
   18MOL    H4416398   6.325   5.562   4.243  0.1019  0.6600  1.4731
   18MOL    H4516399   6.216   5.387   4.095  1.4869  2.3767  0.2824
   18MOL    H4616400   6.119   5.333   4.233 -0.4819  0.9181 -1.1709
   18MOL    H4716401   6.361   5.302   4.349 -1.2794 -0.1614  0.5088
   18MOL    H4816402   6.416   5.319   4.184 -0.4341 -3.2319 -1.5545
   18MOL    H4916403   5.001   6.497   3.793  0.0815  0.0061 -0.0712
   18MOL    O5016404   6.293   5.076   4.344  0.4993  0.2460  0.2197
   18MOL    C5116405   6.272   4.933   4.354 -0.5922 -0.2757 -0.0350
   18MOL    C5216406   6.125   4.887   4.334  0.2257 -0.0423  0.5002
   18MOL    C5316407   6.051   4.906   4.469 -0.2905  0.2983  0.1774
   18MOL    C5416408   5.917   4.829   4.463 -0.1976  0.3617 -0.1357
   18MOL    C5516409   5.838   4.860   4.593 -0.4524 -0.9055  0.4775
   18MOL    C5616410   5.689   4.828   4.594  0.3802 -0.7044  0.3370
   18MOL    C5716411   5.623   4.829   4.737 -0.1438  0.3941  0.2647
   18MOL    C5816412   5.466   4.817   4.738  0.7358 -0.3286  0.2388
   18MOL    C5916413   5.401   4.847   4.876  0.1654  0.2991  0.2796
   18MOL    C6016414   5.248   4.830   4.874 -0.2086 -0.1410  0.0493
   18MOL    O6116415   5.203   4.921   4.782 -0.1762 -0.0903 -0.5970
   18MOL    C6216416   5.079   4.904   4.727  0.1153  0.4054 -0.4277
   18MOL    O6316417   5.006   4.806   4.753  0.0169 -0.2715  0.0020
   18MOL    C6416418   5.051   5.009   4.623 -0.0156  0.2896  0.3228
   18MOL    C6516419   5.049   4.932   4.487  0.1197  0.6587  0.0182
   18MOL    C6616420   5.074   5.023   4.367  0.5558  0.6338  0.1341
   18MOL    C6716421   5.059   4.945   4.239 -0.5187  0.2720  0.6376
   18MOL    C6816422   5.111   5.024   4.118 -0.3290  0.1295  0.3556
   18MOL    O6916423   5.219   4.999   4.070 -0.4537  0.2911  0.4900
   18MOL    H7016424   6.340   4.880   4.287 -1.9586  0.1401 -1.7764
   18MOL    H7116425   6.304   4.905   4.454 -2.7940  0.7032  0.9758
   18MOL    H7216426   6.126   4.781   4.306  0.6450  0.3242 -0.9116
   18MOL    H7316427   6.090   4.933   4.242  2.3239 -0.4174 -0.5120
   18MOL    H7416428   6.113   4.871   4.551 -1.2491  0.8561  1.1565
   18MOL    H7516429   6.042   5.013   4.487  2.0234  0.4360  0.6850
   18MOL    H7616430   5.924   4.722   4.447 -0.5367  0.4619 -0.9841
   18MOL    H7716431   5.862   4.876   4.381  1.8258  1.4670 -0.9019
   18MOL    H7816432   5.836   4.967   4.612 -0.1648 -0.8737  0.3282
   18MOL    H7916433   5.886   4.803   4.672 -1.7725 -0.5107  1.5815
   18MOL    H8016434   5.660   4.730   4.557  0.6703  0.3978 -3.0033
   18MOL    H8116435   5.627   4.886   4.525  0.8798  0.1279  0.5847
   18MOL    H8216436   5.645   4.924   4.785 -3.2437  1.5417 -0.4401
   18MOL    H8316437   5.656   4.747   4.800 -2.9731 -1.1174 -0.1078
   18MOL    H8416438   5.436   4.718   4.704  3.6096 -1.8332  1.7925
   18MOL    H8516439   5.425   4.886   4.665  2.5337  1.6555  1.0442
   18MOL    H8616440   5.433   4.775   4.952 -0.6936 -0.9556 -0.5220
   18MOL    H8716441   5.424   4.950   4.904  2.0370  0.7417 -2.6496
   18MOL    H8816442   5.216   4.849   4.977  0.4837  0.6349  0.1304
   18MOL    H8916443   5.209   4.731   4.849 -1.1170 -0.0676  1.1328
   18MOL    H9016444   4.953   5.056   4.630 -0.3924 -0.5303  0.5228
   18MOL    H9116445   5.124   5.090   4.621  1.1756 -0.7708  0.0643
   18MOL    H9216446   4.953   4.881   4.487  0.2772  0.3409 -1.1552
   18MOL    H9316447   5.121   4.850   4.493  1.8356  1.7200 -3.9921
   18MOL    H9416448   5.169   5.074   4.369  0.4916  0.7809 -0.4086
   18MOL    H9516449   5.005   5.107   4.378  0.7819  0.7665  0.5487
   18MOL    H9616450   4.955   4.912   4.229 -0.4480  0.3271 -0.2662
   18MOL    H9716451   5.126   4.860   4.251 -1.5328 -0.4685  1.1006
   18MOL    O9816452   5.039   5.139   4.100 -0.5947  0.1412 -0.1476
   18MOL    C9916453   5.063   5.224   3.992  0.5330 -0.4394 -0.7065
   18MOL   C10016454   5.183   5.312   4.030  0.5573 -0.1373  0.6243
   18MOL   C10116455   5.153   5.395   4.157 -0.1753  0.4782 -0.2355
   18MOL   C10216456   5.258   5.500   4.195 -0.5289 -0.2290 -0.0420
   18MOL   C10316457   5.268   5.619   4.091  0.2452  0.1921  0.2957
   18MOL   C10416458   5.141   5.702   4.063 -0.0382 -0.3428  0.7141
   18MOL   C10516459   5.176   5.836   3.987 -0.2167 -0.8471 -0.4013
   18MOL   C10616460   5.044   5.894   3.936 -1.4354 -0.3811 -0.0824
   18MOL   C10716461   4.993   5.846   3.798 -0.2277 -0.4571 -0.2414
   18MOL   C10816462   4.845   5.889   3.775 -0.6768 -0.1772  0.0425
   18MOL   O10916463   4.828   6.026   3.756 -0.3801 -0.0074 -0.3745
   18MOL   C11016464   4.702   6.074   3.732 -0.2457  0.3921 -0.3824
   18MOL   O11116465   4.604   6.001   3.728  0.3699  0.2983  0.6727
   18MOL   C11216466   4.698   6.228   3.718 -0.4459  0.0582 -0.2906
   18MOL   C11316467   4.694   6.307   3.851 -0.3388  0.5739  0.0976
   18MOL   C11416468   4.542   6.334   3.896  0.4156 -0.1268  0.3996
   18MOL   C11516469   4.476   6.433   3.807 -0.5676 -0.2069  0.7245
   18MOL   C11616470   4.516   6.580   3.824  0.6812  0.4319  0.8351
   18MOL   O11716471   4.546   6.652   3.728 -0.8007  0.2190  0.3510
   18MOL   H11816472   5.072   5.165   3.901  0.6658  0.5221 -1.3191
   18MOL   H11916473   4.974   5.286   3.982 -0.6257 -1.8083  0.8988
   18MOL   H12016474   5.225   5.372   3.950  2.4589  1.0026  2.4318
   18MOL   H12116475   5.275   5.257   4.055  1.9704  1.2407 -1.4037
   18MOL   H12216476   5.052   5.437   4.151 -1.0738 -1.3977  1.3033
   18MOL   H12316477   5.144   5.320   4.235 -1.5488 -1.1439 -1.8976
   18MOL   H12416478   5.352   5.445   4.188 -0.0019  0.9903 -4.1401
   18MOL   H12516479   5.258   5.541   4.296 -2.2623  1.2884 -0.6270
   18MOL   H12616480   5.303   5.580   3.995  1.2682 -0.4402  0.9131
   18MOL   H12716481   5.336   5.688   4.140 -0.7946  0.7947  0.9186
   18MOL   H12816482   5.079   5.712   4.152  0.2523 -0.6963  0.9561
   18MOL   H12916483   5.072   5.650   3.997  1.5239 -1.3102 -0.1638
   18MOL   H13016484   5.241   5.818   3.901 -1.3136 -2.5432 -0.9002
   18MOL   H13116485   5.219   5.901   4.064  2.8849 -0.6705 -2.2057
   18MOL   H13216486   5.066   6.001   3.930 -0.1010 -0.6375  0.1799
   18MOL   H13316487   4.970   5.875   4.014  0.2374 -1.4713  1.2737
   18MOL   H13416488   5.052   5.887   3.716 -0.5916  0.6142  0.0156
   18MOL   H13516489   4.992   5.739   3.782 -1.2802 -0.3324 -1.0534
   18MOL   H13616490   4.786   5.852   3.859 -2.5787 -0.6481 -1.4536
   18MOL   H13716491   4.816   5.830   3.688  0.4863 -1.2098  0.3401
   18MOL   H13816492   4.778   6.255   3.650 -0.4485 -0.6517 -0.5883
   18MOL   H13916493   4.603   6.249   3.667  0.2439  2.1742 -0.7506
   18MOL   H14016494   4.730   6.409   3.840 -0.1066  0.4673 -0.1507
   18MOL   H14116495   4.747   6.255   3.931  0.7223 -2.1837 -2.3227
   18MOL   H14216496   4.553   6.371   3.998 -1.6837  0.3929  0.4627
   18MOL   H14316497   4.481   6.245   3.914 -0.7399  0.6904  0.5843
   18MOL   H14416498   4.368   6.431   3.809 -0.5897 -0.1082 -0.2150
   18MOL   H14516499   4.503   6.408   3.704 -2.0700 -0.5530  0.4125
   18MOL   O14616500   4.502   6.613   3.954 -0.0313 -0.4957  0.0806
   18MOL   C14716501   4.496   6.748   3.987  0.0465  0.1279  0.2836
   18MOL   C14816502   4.555   6.764   4.123  0.3541 -0.3437 -0.3336
   18MOL   C14916503   4.697   6.711   4.144  0.6627 -0.1614 -0.0522
   18MOL   C15016504   4.733   6.719   4.300 -0.4653  0.3427 -0.2004
   18MOL   C15116505   4.670   6.609   4.383 -0.2608  0.3305  0.3601
   18MOL   C15216506   4.713   6.459   4.343  0.3739 -0.7249  0.0272
   18MOL   C15316507   4.865   6.433   4.341  0.6032 -0.0330 -0.0452
   18MOL   C15416508   4.892   6.278   4.346  0.0428  0.3940  0.5239
   18MOL   C15516509   4.818   6.206   4.226 -1.0979 -0.5560  0.6244
   18MOL   C15616510   4.851   6.059   4.230 -0.5465 -0.1657 -0.0173
   18MOL   O15716511   4.793   5.987   4.336 -0.4567  0.3066  0.0160
   18MOL   C15816512   4.818   5.861   4.362 -0.5762 -0.1082 -0.2298
   18MOL   O15916513   4.901   5.791   4.304 -0.1286 -0.2723  0.4982
   18MOL   C16016514   4.724   5.808   4.464 -0.3364  0.6764 -0.2675
   18MOL   C16116515   4.724   5.886   4.598  0.7321  0.3219 -0.1073
   18MOL   C16216516   4.632   6.011   4.603  0.5123  1.0823 -0.3307
   18MOL   C16316517   4.664   6.101   4.732  0.7278 -0.6743  0.5627
   18MOL   C16416518   4.550   6.186   4.767  1.1544  0.0789  0.1533
   18MOL   O16516519   4.527   6.226   4.884  0.2484 -0.3682  0.3981
   18MOL   H16616520   4.550   6.818   3.922  1.7924  0.2365  1.8166
   18MOL   H16716521   4.392   6.780   3.987 -0.3595 -0.9665 -2.8387
   18MOL   H16816522   4.487   6.717   4.194  1.4917  1.5987  2.1305
   18MOL   H16916523   4.555   6.869   4.153 -0.4324  0.0045 -1.5011
   18MOL   H17016524   4.714   6.610   4.108  1.9675 -0.0154  0.1267
   18MOL   H17116525   4.772   6.771   4.093  0.5743 -0.0913 -0.0968
   18MOL   H17216526   4.717   6.817   4.347 -1.7168  1.0913 -2.1385
   18MOL   H17316527   4.841   6.717   4.314 -0.5024 -1.3785 -0.0762
   18MOL   H17416528   4.562   6.603   4.387 -0.1867 -1.7719 -0.5168
   18MOL   H17516529   4.695   6.620   4.489 -2.2156 -1.3737  1.0357
   18MOL   H17616530   4.657   6.427   4.255  1.1837 -3.9887  0.6488
   18MOL   H17716531   4.666   6.389   4.413  0.0517  0.3951  0.9418
   18MOL   H17816532   4.920   6.479   4.423 -0.8272 -0.4402  1.1539
   18MOL   H17916533   4.911   6.483   4.255  1.3962 -3.2427 -1.5495
   18MOL   H18016534   4.862   6.241   4.444  0.2305  0.1730  0.5001
   18MOL   H18116535   4.999   6.264   4.331 -0.4286 -1.3711 -1.4142
   18MOL   H18216536   4.710   6.221   4.232 -0.7283  2.0166  1.2222
   18MOL   H18316537   4.859   6.258   4.139  1.3786 -1.2996  1.2989
   18MOL   H18416538   4.952   6.032   4.201 -0.8080  0.1294 -1.2340
   18MOL   H18516539   4.797   6.020   4.143  0.3930  1.4251 -1.3469
   18MOL   H18616540   4.625   5.787   4.424 -0.7005 -0.4979  1.2237
   18MOL   H18716541   4.754   5.706   4.488 -1.3397  0.3694 -0.2994
   18MOL   H18816542   4.821   5.924   4.628  0.0674  2.4540 -0.5717
   18MOL   H18916543   4.703   5.820   4.682  2.1775 -0.1963 -0.1347
   18MOL   H19016544   4.527   5.980   4.603  0.4333  1.2932  1.1429
   18MOL   H19116545   4.640   6.067   4.510 -1.6610  1.7653 -0.1437
   18MOL   H19216546   4.746   6.170   4.711 -1.4593  1.0801 -2.6963
   18MOL   H19316547   4.677   6.036   4.819 -1.4055 -3.1747 -0.9016
   18MOL   O19416548   4.480   6.226   4.660 -0.0289  0.3045  0.3626
   18MOL   C19516549   4.371   6.312   4.679  1.0063  0.2267  0.7746
   18MOL   C19616550   4.416   6.457   4.662  0.8230  1.0417 -0.1100
   18MOL   C19716551   4.316   6.573   4.671 -0.4588 -0.5314  0.4257
   18MOL   C19816552   4.385   6.710   4.648  0.5828  0.2877 -0.7108
   18MOL   C19916553   4.283   6.828   4.647  0.1603  0.2069  0.0607
   18MOL   C20016554   4.340   6.955   4.600  0.4674 -0.0653 -0.2033
   18MOL   C20116555   4.224   7.056   4.574  0.1654  0.3227  0.3049
   18MOL   C20216556   4.288   7.191   4.553  0.5759  0.7034  0.2425
   18MOL   C20316557   4.204   7.314   4.511 -0.8361 -0.2882  0.5703
   18MOL   C20416558   4.281   7.443   4.523 -0.4464 -0.4524 -0.3129
   18MOL   O20516559   4.319   7.493   4.392  0.1114 -0.4927 -0.6070
   18MOL   C20616560   4.430   7.560   4.373 -0.0465 -0.3134 -0.2670
   18MOL   O20716561   4.512   7.588   4.461  0.4532 -0.0527  0.6791
   18MOL   C20816562   4.452   7.614   4.231 -0.2198 -0.2102 -0.3323
   18MOL   C20916563   4.563   7.713   4.224  0.4561 -0.1030  0.9769
   18MOL   C21016564   4.520   0.092   4.251 -0.1097 -0.5996  0.3578
   18MOL   C21116565   4.627   0.193   4.214  0.1859  0.4228 -0.3295
   18MOL   C21216566   4.627   0.211   4.060  0.3942 -0.3304 -0.0580
   18MOL   O21316567   4.724   0.175   3.985  0.5107  0.7827 -0.0512
   18MOL   H21416568   4.293   6.299   4.605  0.3211  1.0748  1.3322
   18MOL   H21516569   4.308   6.294   4.767  0.2319  1.6006  0.5120
   18MOL   H21616570   4.460   6.478   4.565  1.2025  0.6551 -0.0224
   18MOL   H21716571   4.491   6.486   4.736  1.1839 -1.4236  0.5518
   18MOL   H21816572   4.245   6.560   4.589 -2.6324  2.1274  1.7772
   18MOL   H21916573   4.267   6.574   4.768  0.0091  0.7623  0.6549
   18MOL   H22016574   4.435   6.709   4.551  2.2957 -0.9234  0.1793
   18MOL   H22116575   4.456   6.731   4.728  0.7986  1.3989 -1.1836
   18MOL   H22216576   4.235   6.844   4.744  0.2774  1.6735 -0.1156
   18MOL   H22316577   4.198   6.800   4.585  0.7013 -2.2496  0.3518
   18MOL   H22416578   4.389   6.941   4.503 -0.1647 -1.3177 -0.3450
   18MOL   H22516579   4.411   6.998   4.670  0.9075 -0.6387 -0.2947
   18MOL   H22616580   4.158   7.059   4.661 -0.0481  0.9317  0.1253
   18MOL   H22716581   4.168   7.031   4.484  0.2996  1.7399 -0.1736
   18MOL   H22816582   4.369   7.174   4.481 -0.4670  0.0738 -0.8045
   18MOL   H22916583   4.337   7.227   4.643  2.3220  0.4911 -0.5857
   18MOL   H23016584   4.170   7.291   4.410  0.4392 -3.1058  0.7177
   18MOL   H23116585   4.127   7.317   4.587 -0.0174 -1.1832  1.4580
   18MOL   H23216586   4.371   7.432   4.583 -0.3067  1.1083 -0.2221
   18MOL   H23316587   4.227   7.521   4.576  0.6879  0.0893  0.0442
   18MOL   H23416588   4.460   7.522   4.172 -2.0691  0.5378 -1.8129
   18MOL   H23516589   4.361   7.669   4.205 -0.9432 -0.3991  1.7124
   18MOL   H23616590   4.605   7.701   4.124 -0.4628  1.3246  0.4067
   18MOL   H23716591   4.641   7.692   4.297  0.7307  2.2160  1.3776
   18MOL   H23816592   4.491   0.103   4.355  1.2312  1.6350  0.5250
   18MOL   H23916593   4.424   0.113   4.204 -0.4091  0.8478  1.5632
   18MOL   H24016594   4.725   0.149   4.235  1.2546  2.6717 -0.4171
   18MOL   H24116595   4.614   0.292   4.258 -1.5181  0.3060 -0.5666
   18MOL   O24216596   4.524   0.289   4.022 -0.0779 -0.8235 -0.3570
   18MOL   C24316597   4.507   0.303   3.881 -0.1102 -0.0308 -0.3491
   18MOL   C24416598   4.566   0.431   3.835 -0.2082 -0.1220 -0.5020
   18MOL   C24516599   4.557   0.441   3.683 -0.7486  0.3161 -0.8140
   18MOL   C24616600   4.620   0.569   3.624  0.1384 -0.2120  0.5849
   18MOL   C24716601   4.613   0.573   3.474  0.1454  0.1092 -0.5853
   18MOL   C24816602   4.664   0.710   3.425 -0.3132  0.0998 -0.4623
   18MOL   C24916603   4.645   0.736   3.270  0.3190  0.7136 -0.4640
   18MOL   C25016604   4.710   0.863   3.216 -0.2281 -0.0823  0.3544
   18MOL   C25116605   4.651   0.997   3.272  1.1008  0.7059 -0.3197
   18MOL   C25216606   4.691   1.116   3.183 -0.0088 -0.3347  1.1270
   18MOL   O25316607   4.828   1.152   3.202  0.2320 -0.0524  0.7967
   18MOL   C25416608   4.926   1.106   3.117 -0.1774 -0.0116 -0.2086
   18MOL   O25516609   4.905   1.032   3.018  0.0008  0.0438  0.5848
   18MOL   C25616610   5.061   1.161   3.147 -0.4965  0.6443  0.1278
   18MOL   C25716611   5.070   1.296   3.094 -0.4692 -0.3197  0.7247
   18MOL   C25816612   5.194   1.370   3.149 -0.6434 -0.9232  0.4304
   18MOL   C25916613   5.327   1.295   3.117 -0.8886 -0.0072  0.2773
   18MOL   C26016614   5.450   1.356   3.185 -0.4278  0.2308  0.4481
   18MOL   O26116615   5.548   1.397   3.122  0.0871  0.1848 -0.2446
   18MOL   H26216616   4.552   0.220   3.825 -1.4335 -0.0020 -1.4911
   18MOL   H26316617   4.400   0.298   3.860 -0.2845  1.5609  0.1727
   18MOL   H26416618   4.673   0.428   3.859  0.4659  2.8753 -2.7499
   18MOL   H26516619   4.525   0.523   3.877  0.8035 -0.0374  0.3393
   18MOL   H26616620   4.598   0.357   3.627 -0.4248 -0.0071 -0.0924
   18MOL   H26716621   4.451   0.437   3.655 -1.5106  1.2611  1.8483
   18MOL   H26816622   4.718   0.578   3.671  1.5599 -3.8450 -1.5000
   18MOL   H26916623   4.571   0.656   3.669  1.3180 -0.6223  2.7643
   18MOL   H27016624   4.512   0.561   3.437 -1.0933 -1.8568  3.1554
   18MOL   H27116625   4.672   0.493   3.431  2.3682  0.0471  2.3775
   18MOL   H27216626   4.769   0.720   3.452 -0.2692 -1.2643 -0.0977
   18MOL   H27316627   4.622   0.789   3.487  2.6140  1.0097  0.4589
   18MOL   H27416628   4.539   0.731   3.245  0.4714 -0.1425 -0.9553
   18MOL   H27516629   4.689   0.649   3.222 -2.3050 -0.6363 -0.4698
   18MOL   H27616630   4.728   0.852   3.109  1.9202 -2.0370  0.8607
   18MOL   H27716631   4.811   0.852   3.255  0.0220  1.4459  0.1424
   18MOL   H27816632   4.542   0.997   3.267  1.0740  1.6649  0.1758
   18MOL   H27916633   4.684   1.020   3.373  0.1484  1.8893 -0.2631
   18MOL   H28016634   4.638   1.202   3.223 -0.6954  0.9477 -2.3909
   18MOL   H28116635   4.654   1.109   3.081  1.9964  1.5678  0.2334
   18MOL   H28216636   5.067   1.162   3.256  1.4693 -1.8425  0.0848
   18MOL   H28316637   5.142   1.093   3.122  0.2768  0.9617  1.6929
   18MOL   H28416638   4.988   1.367   3.109  1.3129  1.7107  1.1720
   18MOL   H28516639   5.082   1.296   2.986  1.3281  0.1189  0.9157
   18MOL   H28616640   5.179   1.385   3.256  2.3553  0.0446  0.7435
   18MOL   H28716641   5.178   1.464   3.097 -0.8397 -1.3728 -0.3238
   18MOL   H28816642   5.339   1.303   3.009  0.8578  0.6969  0.4968
   18MOL   H28916643   5.319   1.189   3.144 -1.5271 -0.0125  0.0784
   18MOL   O29016644   5.449   1.334   3.317  0.2595  0.9503  0.1923
   18MOL   C29116645   5.553   1.368   3.398 -0.0453  0.2258  0.0541
   18MOL   C29216646   5.505   1.354   3.545  0.4404  0.5728 -0.2395
   18MOL   C29316647   5.464   1.219   3.587  0.5403 -0.0671  0.3682
   18MOL   C29416648   5.446   1.211   3.743 -0.1981  0.1386 -0.6239
   18MOL   C29516649   5.350   1.309   3.815 -0.3250 -0.4258 -0.2455
   18MOL   C29616650   5.338   1.275   3.964  0.4002 -0.3702  0.6400
   18MOL   C29716651   5.266   1.151   3.996 -0.2209 -0.3381 -0.2433
   18MOL   C29816652   5.203   1.148   4.143 -0.3866 -0.1649  0.1254
   18MOL   C29916653   5.084   1.044   4.154 -0.0557 -0.3938 -0.8347
   18MOL   C30016654   5.012   1.034   4.294 -0.6620  0.2586  0.3255
   18MOL   O30116655   5.104   0.977   4.389 -0.3524  0.4118 -0.1885
   18MOL   C30216656   5.171   1.055   4.477  0.0709 -0.3100 -0.1147
   18MOL   O30316657   5.163   1.178   4.474 -0.0114 -0.1534 -0.1179
   18MOL   C30416658   5.255   0.977   4.585  0.3329  0.2283  0.3264
   18MOL   C30516659   5.347   1.061   4.677 -0.2649 -0.1214 -0.1041
   18MOL   C30616660   5.263   1.121   4.788 -0.1764  0.4704  0.5060
   18MOL   C30716661   5.352   1.182   4.896  0.9440 -0.7713 -0.5832
   18MOL   C30816662   5.270   1.257   5.003 -0.7208  0.3870 -0.0418
   18MOL   O30916663   5.153   1.227   5.028  0.5174  0.4523 -0.7300
   18MOL   H31016664   5.637   1.301   3.378  1.2355  1.6620  0.5562
   18MOL   H31116665   5.596   1.465   3.375  0.3983  0.1450  0.5427
   18MOL   H31216666   5.416   1.411   3.572 -0.7638 -1.7053  0.7290
   18MOL   H31316667   5.588   1.385   3.609  1.6777 -2.4147 -0.3173
   18MOL   H31416668   5.366   1.205   3.541 -0.0378  2.5628  0.7632
   18MOL   H31516669   5.527   1.137   3.552  1.0665  1.1294 -1.5254
   18MOL   H31616670   5.544   1.220   3.790 -1.2568  1.5461  1.3546
   18MOL   H31716671   5.413   1.111   3.772  0.3785  0.9323  3.0459
   18MOL   H31816672   5.253   1.309   3.765 -0.0893  1.1948 -0.7465
   18MOL   H31916673   5.376   1.413   3.798 -1.3626 -0.5484 -2.7513
   18MOL   H32016674   5.287   1.359   4.012  0.0374  0.3838 -1.0154
   18MOL   H32116675   5.437   1.269   4.008 -0.1579  0.3330  2.0081
   18MOL   H32216676   5.332   1.066   3.977  1.8918  1.4723 -1.2479
   18MOL   H32316677   5.188   1.146   3.920 -1.7467  3.3310  0.9729
   18MOL   H32416678   5.181   1.249   4.177  1.9217  0.5423 -0.4350
   18MOL   H32516679   5.279   1.106   4.209  0.3521 -0.7356 -1.0842
   18MOL   H32616680   5.005   1.079   4.089 -0.1202 -0.0703 -0.5863
   18MOL   H32716681   5.107   0.944   4.116  0.8479 -0.9183  1.0090
   18MOL   H32816682   4.933   0.960   4.283  0.4964 -0.7232 -1.6599
   18MOL   H32916683   4.959   1.119   4.338  1.3444  0.1215  3.1493
   18MOL   H33016684   5.193   0.910   4.645  2.2083 -1.0931  0.8036
   18MOL   H33116685   5.321   0.917   4.523 -1.4271 -2.6566  1.1112
   18MOL   H33216686   5.405   1.142   4.632 -1.2121 -1.2252 -3.4873
   18MOL   H33316687   5.423   0.996   4.721  0.6388 -0.1883 -1.7074
   18MOL   H33416688   5.215   1.042   4.846  1.7824 -0.2733  1.1570
   18MOL   H33516689   5.181   1.180   4.749  0.1088  0.9917  0.6876
   18MOL   H33616690   5.420   1.257   4.855 -1.8118  1.6962 -0.8396
   18MOL   H33716691   5.406   1.105   4.951 -0.4130 -1.0764  0.3313
   18MOL   O33816692   5.340   1.348   5.077 -0.4953 -0.4403  0.4654
   18MOL   C33916693   5.271   1.431   5.169 -0.1939  0.0152 -0.1427
   18MOL   C34016694   5.369   1.515   5.244 -0.3802  0.3319 -0.1474
   18MOL   C34116695   5.293   1.597   5.363 -0.0078  0.1881  0.3196
   18MOL   C34216696   5.374   1.714   5.415 -0.6839 -0.4248 -0.4539
   18MOL   C34316697   5.296   1.776   5.537 -0.7279  0.0103  0.1590
   18MOL   C34416698   5.361   1.885   5.618  0.2173  0.5847 -0.0383
   18MOL   C34516699   5.277   1.936   5.742  0.3180 -0.0680  0.3027
   18MOL   C34616700   5.341   2.044   5.831 -0.7105  0.2772  0.6123
   18MOL   C34716701   5.247   2.104   5.935 -0.4336  0.1797  0.5885
   18MOL   C34816702   5.304   2.218   6.019  0.0586 -0.0190 -0.1891
   18MOL   O34916703   5.232   2.228   6.137  0.8178  0.3910  0.1260
   18MOL   C35016704   5.201   2.350   6.183  0.0649  0.5244  0.5802
   18MOL   O35116705   5.213   2.457   6.119 -0.3366  0.5526  0.3453
   18MOL   C35216706   5.128   2.345   6.323  0.0680  0.1000 -0.8318
   18MOL   C35316707   5.142   2.468   6.415  0.5188  0.8886  0.8001
   18MOL   C35416708   5.052   2.584   6.373 -0.5375 -0.3425 -0.4725
   18MOL   C35516709   5.088   2.716   6.450 -0.3469 -0.2629 -0.4541
   18MOL   C35616710   5.200   2.809   6.400  0.0314 -0.1367 -0.8522
   18MOL   O35716711   5.307   2.802   6.448 -0.7245 -0.0073  0.1994
   18MOL   H35816712   5.197   1.486   5.112 -0.2836  0.0541  0.0088
   18MOL   H35916713   5.221   1.365   5.240  0.0917  0.4539  0.4797
   18MOL   H36016714   5.409   1.589   5.174 -0.7581  1.9886  1.3535
   18MOL   H36116715   5.445   1.455   5.293 -0.8971  0.8161  1.2641
   18MOL   H36216716   5.194   1.631   5.335  0.5263  1.6288  0.1346
   18MOL   H36316717   5.270   1.534   5.449 -0.4628  0.2950  0.2766
   18MOL   H36416718   5.367   1.795   5.342 -1.7630  1.6074  1.8045
   18MOL   H36516719   5.478   1.696   5.442 -0.3227  2.0368 -0.0833
   18MOL   H36616720   5.284   1.694   5.608  0.3372 -1.3837 -1.2197
   18MOL   H36716721   5.192   1.797   5.511 -1.4148 -3.3044 -0.0337
   18MOL   H36816722   5.400   1.969   5.561 -0.1333  1.2629  0.6967
   18MOL   H36916723   5.459   1.856   5.656  0.1347 -0.1289 -0.3713
   18MOL   H37016724   5.243   1.845   5.790 -2.0027 -0.2140 -1.5343
   18MOL   H37116725   5.195   1.989   5.693  2.4674  0.6666 -2.6702
   18MOL   H37216726   5.376   2.125   5.767  0.4637  0.2653  1.2415
   18MOL   H37316727   5.424   1.996   5.882  1.2609  1.4195 -1.3894
   18MOL   H37416728   5.155   2.133   5.884  0.4126 -0.7814 -1.5381
   18MOL   H37516729   5.226   2.017   5.996  0.6682  0.6134  1.6052
   18MOL   H37616730   5.299   2.306   5.955 -2.4012 -0.9947 -1.4195
   18MOL   H37716731   5.408   2.194   6.040  0.7490  1.5507 -1.6929
   18MOL   H37816732   5.019   2.339   6.315  0.0244 -2.3299  1.0982
   18MOL   H37916733   5.158   2.252   6.371 -3.5913 -0.5527  0.4073
   18MOL   H38016734   5.249   2.484   6.426  0.3796  1.8589  0.7508
   18MOL   H38116735   5.112   2.442   6.516  2.1289  1.0234  1.3257
   18MOL   H38216736   4.948   2.554   6.386 -0.7228  0.6087  0.3350
   18MOL   H38316737   5.074   2.602   6.268  1.6299 -1.2256 -0.1996
   18MOL   H38416738   5.106   2.693   6.555 -0.1536  1.6525 -0.0464
   18MOL   H38516739   5.000   2.779   6.458  0.1628  0.2452  1.6415
   18MOL   O38616740   5.157   2.885   6.299  0.2137  0.3280 -0.0056
   18MOL   C38716741   5.240   2.970   6.238 -0.0830 -0.1745 -0.2416
   18MOL   C38816742   5.315   2.909   6.123 -0.9521 -0.5407  0.0029
   18MOL   C38916743   5.224   2.843   6.018  0.8412 -1.5864 -0.1063
   18MOL   C39016744   5.294   2.778   5.901  0.1502  0.1739  0.7139
   18MOL   C39116745   5.369   2.872   5.809 -0.1842 -0.0365 -0.0065
   18MOL   C39216746   5.288   2.996   5.765  0.5982 -0.1514  0.6496
   18MOL   C39316747   5.386   3.091   5.688 -0.9610  1.0634  0.0832
   18MOL   C39416748   5.446   3.037   5.553  0.6373  0.5837  0.5193
   18MOL   C39516749   5.530   3.141   5.485 -0.4000  0.2557 -0.4352
   18MOL   C39616750   5.573   3.090   5.341 -0.4433 -0.7865  0.6274
   18MOL   O39716751   5.653   3.193   5.278 -0.2840 -0.2423  0.2836
   18MOL   C39816752   5.784   3.204   5.315  0.2266  0.1920  0.4778
   18MOL   O39916753   5.846   3.126   5.395 -0.3634 -0.3966  0.8696
   18MOL   C40016754   5.855   3.322   5.253 -0.6054  0.1468 -0.1940
   18MOL   C40116755   5.808   3.459   5.302 -0.0216  0.1113 -0.0246
   18MOL   C40216756   5.793   3.478   5.450  0.6365  0.1396  0.8188
   18MOL   C40316757   5.923   3.433   5.527 -0.4250  0.2586 -0.1560
   18MOL   C40416758   6.038   3.536   5.511 -0.0539  0.3137  0.1827
   18MOL   O40516759   6.082   3.571   5.403  0.4724 -0.0052  0.8460
   18MOL   H40616760   5.169   3.042   6.198  0.0298  0.3822  0.5395
   18MOL   H40716761   5.305   3.022   6.309  1.7458 -1.0082 -1.2817
   18MOL   H40816762   5.388   2.837   6.161 -2.4005 -1.2076  1.5923
   18MOL   H40916763   5.377   2.990   6.085 -3.0679  1.4506  0.6646
   18MOL   H41016764   5.159   2.762   6.050  0.1022 -1.0580 -0.2598
   18MOL   H41116765   5.163   2.927   5.986  0.5040 -0.8192  2.4251
   18MOL   H41216766   5.212   2.737   5.841 -1.0393  3.5456 -0.1499
   18MOL   H41316767   5.355   2.694   5.933  0.0735 -0.1010  0.1478
   18MOL   H41416768   5.396   2.817   5.719 -3.7701 -0.0428 -1.1757
   18MOL   H41516769   5.453   2.894   5.875  0.9615  1.2107 -1.8474
   18MOL   H41616770   5.254   3.064   5.843 -0.6485 -2.0633  1.8067
   18MOL   H41716771   5.192   2.975   5.719  1.2060 -1.3743 -0.0771
   18MOL   H41816772   5.469   3.121   5.751 -1.6625  1.3691  0.8681
   18MOL   H41916773   5.342   3.190   5.673 -0.3992  1.3214  0.1611
   18MOL   H42016774   5.368   3.009   5.482  0.8007  1.7586 -0.1258
   18MOL   H42116775   5.499   2.947   5.586 -0.6973 -0.7306 -0.8440
   18MOL   H42216776   5.471   3.231   5.471  0.6152  0.8324 -1.1217
   18MOL   H42316777   5.625   3.162   5.535 -0.5409  0.4859 -0.2633
   18MOL   H42416778   5.484   3.066   5.283 -0.2763  0.0204  0.0279
   18MOL   H42516779   5.624   2.994   5.345 -1.2225 -1.2389 -0.0658
   18MOL   H42616780   5.962   3.304   5.260 -1.0565 -2.0706  1.9250
   18MOL   H42716781   5.840   3.316   5.145  2.5977 -2.1962 -0.5991
   18MOL   H42816782   5.714   3.480   5.251 -0.0152  0.1410 -0.0242
   18MOL   H42916783   5.882   3.529   5.263 -0.0693 -0.3730 -1.0155
   18MOL   H43016784   5.706   3.419   5.478 -2.3976  2.6156 -2.7892
   18MOL   H43116785   5.769   3.578   5.487 -0.6829  0.7815 -1.6805
   18MOL   H43216786   5.966   3.342   5.484  0.0232  1.0488 -1.4107
   18MOL   H43316787   5.898   3.398   5.627  0.6342 -0.8414 -0.2559
   18MOL   O43416788   6.080   3.588   5.630  0.0287 -0.2901  0.8117
   18MOL   C43516789   6.216   3.647   5.636 -0.1586 -0.3987 -0.0021
   18MOL   C43616790   6.323   3.537   5.683 -0.4219  0.7750  0.1945
   18MOL   C43716791   6.459   3.587   5.684 -0.0706  0.0321  0.3521
   18MOL   C43816792   6.560   3.525   5.780 -0.1655  0.1668 -0.1975
   18MOL   C43916793   6.524   3.548   5.928 -0.1364 -0.4017 -0.1760
   18MOL   C44016794   6.627   3.481   6.025  0.1903  0.0527  0.2469
   18MOL   C44116795   6.584   3.476   6.171 -0.0010 -0.0951 -0.4062
   18MOL   C44216796   6.588   3.604   6.248  0.2821  0.0228  0.9042
   18MOL   C44316797   6.544   3.580   6.393  0.1038  0.4763  0.6837
   18MOL   C44416798   6.527   3.706   6.482 -0.1768  0.7370  0.1360
   18MOL   O44516799   6.661   3.754   6.503 -0.0770 -0.3752  0.2123
   18MOL   C44616800   6.689   3.816   6.617  0.0991  0.1903  0.0850
   18MOL   O44716801   6.611   3.848   6.708  0.0687 -0.4465  0.2606
   18MOL   C44816802   6.837   3.852   6.639 -0.2672 -0.5681  0.5164
   18MOL   C44916803   6.923   3.740   6.706  0.1582 -0.1182 -0.2721
   18MOL   C45016804   7.051   3.797   6.762  0.5084  0.4425  0.2960
   18MOL   C45116805   7.175   3.716   6.710  0.2282 -0.1840  0.3332
   18MOL   C45216806   7.297   3.755   6.791 -0.3527 -0.6346  0.1746
   18MOL   O45316807   7.291   3.807   6.903 -0.1682  0.6116  0.1644
   18MOL   H45416808   6.235   3.689   5.537 -2.4836 -0.7695 -0.6325
   18MOL   H45516809   6.222   3.736   5.698 -1.2281  0.5849 -1.2858
   18MOL   H45616810   6.319   3.447   5.623  2.0619 -1.1238  2.7411
   18MOL   H45716811   6.283   3.501   5.778  4.3275 -4.1039  0.5761
   18MOL   H45816812   6.491   3.568   5.582 -0.6726  1.1234 -0.0455
   18MOL   H45916813   6.452   3.695   5.698  0.7598 -0.2295  3.1755
   18MOL   H46016814   6.652   3.574   5.748 -0.4138  1.0191  0.3664
   18MOL   H46116815   6.581   3.424   5.744  0.3932 -0.1353  0.9481
   18MOL   H46216816   6.432   3.494   5.949  0.4056 -0.4524  2.1217
   18MOL   H46316817   6.517   3.655   5.945 -3.0665 -0.6570  0.4815
   18MOL   H46416818   6.726   3.525   6.015  0.6027 -0.9655 -0.2907
   18MOL   H46516819   6.641   3.382   5.982  0.9901  0.1141  0.3636
   18MOL   H46616820   6.637   3.395   6.220  0.4488 -0.2282 -1.1103
   18MOL   H46716821   6.481   3.439   6.174 -0.6547  1.6093 -0.9659
   18MOL   H46816822   6.527   3.680   6.199 -0.2691 -1.7144 -1.1558
   18MOL   H46916823   6.691   3.641   6.249  0.5491 -0.7274  2.0150
   18MOL   H47016824   6.443   3.543   6.378 -0.2275  1.2977  0.8509
   18MOL   H47116825   6.607   3.501   6.434  0.7588  0.7979  0.2986
   18MOL   H47216826   6.472   3.686   6.574 -4.0317 -2.5785 -2.7324
   18MOL   H47316827   6.479   3.791   6.434 -1.1293  0.2092  0.1496
   18MOL   H47416828   6.881   3.897   6.550  0.3153 -2.1455 -0.0134
   18MOL   H47516829   6.823   3.941   6.701  0.0187 -0.9517  1.1461
   18MOL   H47616830   6.938   3.662   6.631 -1.5149  0.0790 -0.8344
   18MOL   H47716831   6.869   3.696   6.790 -0.3215  1.5764  0.3427
   18MOL   H47816832   7.054   3.803   6.870  2.9040  0.2892  0.2680
   18MOL   H47916833   7.055   3.901   6.728 -0.7418 -0.1927 -1.9275
   18MOL   H48016834   7.192   3.742   6.606  0.5430 -3.3463 -0.4448
   18MOL   H48116835   7.163   3.609   6.720 -0.0513 -0.1966 -0.1236
   18MOL   O48216836   7.402   3.757   6.707  0.2041  0.1758 -0.0312
   18MOL   C48316837   7.517   3.831   6.757 -0.1103  0.3122 -0.4437
   18MOL   C48416838   7.590   3.764   6.879 -0.0560 -0.0812 -0.2930
   18MOL   C48516839   7.620   3.616   6.844 -0.0437 -0.0468 -0.0473
   18MOL   C48616840   7.717   3.539   6.939 -0.2673  0.0948  0.2175
   18MOL   C48716841   7.763   3.414   6.868  0.6170  0.3324 -0.5459
   18MOL   C48816842   0.085   3.330   6.956 -0.0962 -0.9111  0.5001
   18MOL   C48916843   0.018   3.239   7.058  0.4063 -0.8417  0.3399
   18MOL   C49016844   7.693   3.130   6.994  0.0331  0.3852 -0.2855
   18MOL   C49116845   7.614   3.055   7.102  0.2541 -0.3575 -0.2846
   18MOL   C49216846   7.513   2.948   7.058 -0.6424  0.5755 -0.0081
   18MOL   O49316847   7.454   2.878   7.170 -0.0511  0.0426  0.5522
   18MOL   C49416848   7.325   2.892   7.191 -0.4802  0.3845 -0.3791
   18MOL   O49516849   7.239   2.941   7.114  0.3598  0.0255 -0.1174
   18MOL   C49616850   7.282   2.819   7.316 -0.0674 -0.3525 -0.1656
   18MOL   C49716851   7.210   2.909   7.418 -1.3374  0.1070 -0.3969
   18MOL   C49816852   7.066   2.952   7.379 -0.3085  0.7540  0.1197
   18MOL   C49916853   6.995   3.030   7.485 -0.4029 -0.3194  0.9976
   18MOL   C50016854   6.931   2.954   7.595  0.0674 -0.9769  0.0741
   18MOL   O50116855   6.829   2.883   7.583  0.5734  0.3862  0.3213
   18MOL   H50216856   7.588   3.840   6.675  1.4695 -0.8473  0.7695
   18MOL   H50316857   7.489   3.933   6.783  0.1570  0.3893 -0.4583
   18MOL   H50416858   7.519   3.762   6.961 -0.6989  1.5916 -0.7845
   18MOL   H50516859   7.669   3.811   6.939  0.3088  0.1927 -0.9842
   18MOL   H50616860   7.525   3.563   6.838 -1.1872  2.0072 -0.6145
   18MOL   H50716861   7.673   3.613   6.748 -0.3481  1.6289 -0.2878
   18MOL   H50816862   7.664   3.525   7.033 -2.7829 -1.9023 -1.4348
   18MOL   H50916863   0.037   3.605   6.957  0.3700 -0.7916  0.5103
   18MOL   H51016864   0.052   3.443   6.778 -1.0853  0.6040 -1.4842
   18MOL   H51116865   7.688   3.345   6.830  0.5159  0.9063 -1.3937
   18MOL   H51216866   0.164   3.398   6.989  0.1242 -0.6970 -0.4571
   18MOL   H51316867   0.139   3.264   6.888  3.0448  1.3671  0.6957
   18MOL   H51416868   7.735   3.299   7.136 -0.4143 -1.8116  0.5993
   18MOL   H51516869   0.090   3.176   7.111  3.3159  0.4161 -1.9685
   18MOL   H51616870   7.755   3.061   6.937  2.1578 -0.1418  2.4955
   18MOL   H51716871   7.621   3.163   6.920 -0.4108 -1.5989 -0.7641
   18MOL   H51816872   7.680   3.013   7.177 -1.4281 -1.1949  0.7619
   18MOL   H51916873   7.555   3.135   7.148  0.2958 -0.1032 -0.6674
   18MOL   H52016874   7.564   2.878   6.991 -0.6734  1.2791 -0.7697
   18MOL   H52116875   7.430   2.995   7.007 -1.0789  2.0310  1.9697
   18MOL   H52216876   7.208   2.748   7.280  2.8087 -2.6486 -1.7707
   18MOL   H52316877   7.376   2.773   7.348 -0.5381 -1.0900  0.1541
   18MOL   H52416878   7.274   2.996   7.430 -1.6349  0.2001  0.5670
   18MOL   H52516879   7.206   2.872   7.520  3.0593 -0.5220 -0.3635
   18MOL   H52616880   7.009   2.862   7.357 -0.2653  0.4986  1.0440
   18MOL   H52716881   7.081   3.019   7.294 -0.4467  0.1578 -0.3782
   18MOL   H52816882   6.916   3.085   7.433  0.8658 -0.5115 -1.1975
   18MOL   H52916883   7.068   3.101   7.525  1.8991 -1.2481 -1.4254
   18MOL   O53016884   6.994   2.975   7.711 -0.2923 -0.1957 -0.0875
   18MOL   C53116885   6.933   2.935   0.072 -0.0155  0.1644 -0.1109
   18MOL   C53216886   6.880   3.057   0.154  1.0301 -0.1998 -0.1139
   18MOL   C53316887   6.771   3.134   0.081 -0.6956  0.5461  0.4659
   18MOL   C53416888   6.709   3.245   0.168 -0.4444 -0.4280 -0.4283
   18MOL   C53516889   6.815   3.363   0.183  0.0373  0.3445 -0.1994
   18MOL   C53616890   6.755   3.487   0.253  0.1994  0.7033 -0.7004
   18MOL   C53716891   6.853   3.600   0.286 -0.8806  0.1648  0.8218
   18MOL   C53816892   6.896   3.686   0.172 -0.1326  0.6103 -0.6429
   18MOL   C53916893   6.937   3.827   0.209  0.2717  0.6959 -0.1302
   18MOL   C54016894   6.953   3.916   0.084 -0.6754 -0.4481  0.5442
   18MOL   O54116895   7.068   3.865   0.016 -0.2441  0.1531 -0.0679
   18MOL   C54216896   7.053   3.831   7.654 -0.0022  0.3188 -0.7407
   18MOL   O54316897   6.947   3.824   7.588  0.0720 -0.5440 -0.1157
   18MOL   C54416898   7.182   3.780   7.601 -0.2727 -0.8092  0.2194
   18MOL   C54516899   7.181   3.627   7.590  0.0815  0.0100 -0.1487
   18MOL   C54616900   7.235   3.545   7.712  0.7255 -0.0983  0.3696
   18MOL   C54716901   7.194   3.391   7.705 -0.0083 -0.0917 -0.3218
   18MOL   C54816902   7.270   3.309   0.033  0.5499 -0.0746  0.1181
   18MOL   O54916903   7.341   3.361   0.116 -0.2647 -0.6271  0.3837
   18MOL   H55016904   6.853   2.862   0.058  0.0564  0.0979 -0.1773
   18MOL   H55116905   7.017   2.882   0.117  0.9669 -0.1641 -2.2609
   18MOL   H55216906   6.959   3.126   0.181 -0.4357  0.9975  1.2487
   18MOL   H55316907   6.843   3.027   0.252  0.5957  0.8876  0.0705
   18MOL   H55416908   6.811   3.165   7.749  1.1998 -1.0088  0.7108
   18MOL   H55516909   6.696   3.059   0.058 -1.1389  0.9786  0.4917
   18MOL   H55616910   6.678   3.210   0.266  0.9883  0.2958  0.3111
   18MOL   H55716911   6.620   3.278   0.114 -1.3125 -0.6683  0.8382
   18MOL   H55816912   6.871   3.391   0.094 -1.7428  0.6743 -1.2287
   18MOL   H55916913   6.893   3.322   0.248  0.7389  1.6830 -0.1887
   18MOL   H56016914   6.705   3.450   0.343  0.3904 -0.4952 -1.0848
   18MOL   H56116915   6.674   3.531   0.194  2.4509 -0.7527 -5.0286
   18MOL   H56216916   6.939   3.564   0.342 -0.0059 -0.1740 -0.7208
   18MOL   H56316917   6.801   3.659   0.362 -1.3877  0.0907  0.5350
   18MOL   H56416918   6.812   3.687   0.103 -0.7575 -0.2502  0.0853
   18MOL   H56516919   6.978   3.628   0.129  1.8257 -0.0084  3.6019
   18MOL   H56616920   6.857   3.871   0.269  1.0190  0.3287  1.1564
   18MOL   H56716921   7.029   3.819   0.268  1.0603  0.3720 -1.3724
   18MOL   H56816922   6.972   4.012   0.131 -0.5837  0.1842 -0.7482
   18MOL   H56916923   6.857   3.912   0.032  0.4203  0.7086 -1.6252
   18MOL   H57016924   7.208   3.825   7.506 -1.7652 -1.4366 -0.5180
   18MOL   H57116925   7.267   3.805   7.665 -0.6056  0.4953  0.1664
   18MOL   H57216926   7.227   3.587   7.499  0.1446  0.6049 -0.3783
   18MOL   H57316927   7.079   3.589   7.596 -0.5450  1.7301  0.1309
   18MOL   H57416928   7.185   3.580   0.038  1.3734  0.4509  0.5219
   18MOL   H57516929   7.341   3.569   7.714  0.3944  1.6745 -1.6552
   18MOL   H57616930   7.224   3.349   7.609 -1.4462 -0.6547 -0.5286
   18MOL   H57716931   7.086   3.381   7.715  0.1646 -1.1998  0.5990
   18MOL   O57816932   7.253   3.181   0.024 -0.2260  0.1997  0.0607
   18MOL   C57916933   7.298   3.087   0.116 -0.8984 -0.4091  0.3959
   18MOL   C58016934   7.380   2.973   0.052  0.1179  0.1118  0.3800
   18MOL   C58116935   7.361   2.841   0.121 -0.7152 -0.9257  0.3102
   18MOL   C58216936   7.421   2.834   0.255 -0.0496 -0.1070  0.5795
   18MOL   C58316937   7.405   2.697   0.324 -0.3872  0.3227 -0.3333
   18MOL   C58416938   7.270   2.662   0.369  0.5509 -0.4115 -0.2369
   18MOL   C58516939   7.257   2.520   0.422  0.5811  0.0313 -0.6086
   18MOL   C58616940   7.308   2.502   0.567 -0.5965 -0.3311  0.7122
   18MOL   C58716941   7.291   2.356   0.605  0.0507 -0.2569  0.1859
   18MOL   C58816942   7.290   2.332   0.760  0.1117 -0.0104 -0.3973
   18MOL   O58916943   7.284   2.195   0.772 -0.6437 -0.0426  0.0657
   18MOL   C59016944   7.169   2.117   0.778  0.3188 -0.9263 -0.0680
   18MOL   O59116945   7.053   2.168   0.776 -0.2670  0.0259  0.0194
   18MOL   C59216946   7.187   1.961   0.794  0.1661 -0.1822 -0.0524
   18MOL   C59316947   7.088   1.883   0.711  0.4793  0.3606  0.0784
   18MOL   C59416948   7.110   1.736   0.729 -0.2190 -0.4625 -0.2843
   18MOL   C59516949   7.097   1.686   0.869  0.8399 -0.6307 -0.7494
   18MOL   C59616950   6.954   1.644   0.902 -0.3588  0.3848  0.0831
   18MOL   O59716951   6.907   1.554   0.834  0.2934 -0.8006  0.2281
   18MOL   H59816952   7.335   3.124   0.211  0.6351 -0.8394 -0.0265
   18MOL   H59916953   7.203   3.040   0.144 -1.8566 -0.2251 -2.3460
   18MOL   H60016954   7.482   3.009   0.035  0.5382 -0.0649  2.4365
   18MOL   H60116955   7.344   2.961   7.715 -0.2458  2.9689  0.1159
   18MOL   H60216956   7.253   2.825   0.126 -0.9935  0.9124  0.5553
   18MOL   H60316957   7.386   2.748   0.070  0.5459 -0.4933  0.1381
   18MOL   H60416958   7.384   2.911   0.323  0.7564 -0.2716  1.2212
   18MOL   H60516959   7.525   2.863   0.242  0.0959  0.4064  2.6300
   18MOL   H60616960   7.474   2.694   0.409 -0.0748 -1.5312 -0.6264
   18MOL   H60716961   7.448   2.620   0.260 -0.7077 -0.4439  0.3622
   18MOL   H60816962   7.204   2.680   0.284 -1.2746 -0.6548  1.0950
   18MOL   H60916963   7.244   2.724   0.455  0.1816 -3.1826  1.7113
   18MOL   H61016964   7.300   2.446   0.355  2.5034  0.1265  0.4649
   18MOL   H61116965   7.153   2.488   0.425  0.0932  1.3923 -2.2718
   18MOL   H61216966   7.250   2.563   0.636 -1.2374 -1.0905  0.8581
   18MOL   H61316967   7.412   2.533   0.577 -1.4432  1.6977  3.7166
   18MOL   H61416968   7.202   2.316   0.557  0.2009 -0.8426  0.3923
   18MOL   H61516969   7.384   2.313   0.567 -0.6248 -2.2774  0.8031
   18MOL   H61616970   7.213   2.393   0.807  0.5128  1.0993 -1.1763
   18MOL   H61716971   7.384   2.363   0.807  0.2192 -2.2918  0.9965
   18MOL   H61816972   7.292   1.937   0.778  0.0623 -0.8287  0.2389
   18MOL   H61916973   7.161   1.943   0.898  1.8979  1.4535  0.6936
   18MOL   H62016974   7.089   1.921   0.609  0.3822 -0.4238 -0.2212
   18MOL   H62116975   6.986   1.902   0.742 -0.0639  1.9016 -2.4712
   18MOL   H62216976   7.214   1.721   0.700 -1.0531  3.2052 -5.8536
   18MOL   H62316977   7.047   1.681   0.659  0.7059 -0.9333 -0.7527
   18MOL   H62416978   7.125   1.750   0.953 -1.5318 -0.0508 -0.3786
   18MOL   H62516979   7.156   1.595   0.887  0.9265 -0.3417  0.5112
   18MOL   O62616980   6.913   1.694   1.014 -0.1549  0.2516  0.2865
   18MOL   C62716981   6.780   1.664   1.057  0.5714  0.3232 -0.3205
   18MOL   C62816982   6.699   1.795   1.059 -0.1355 -0.8209  0.1447
   18MOL   C62916983   6.562   1.798   1.133 -0.0989  0.1424 -0.4063
   18MOL   C63016984   6.513   1.929   1.195 -0.1111 -0.6315 -1.0287
   18MOL   C63116985   6.485   2.038   1.095 -0.0590 -0.9991 -0.7977
   18MOL   C63216986   6.439   2.166   1.159  0.1249 -0.1908 -0.4453
   18MOL   C63316987   6.395   2.274   1.055  0.0403 -0.5335  0.0256
   18MOL   C63416988   6.372   2.412   1.116  0.5622  0.1602  0.1152
   18MOL   C63516989   6.271   2.419   1.232  0.2055  0.9944 -0.0117
   18MOL   C63616990   6.231   2.565   1.269 -0.0760 -0.2131  0.0097
   18MOL   O63716991   6.135   2.564   1.360 -0.5628  0.2722 -0.3632
   18MOL   C63816992   6.151   2.588   1.497  0.0336  0.1619  0.0430
   18MOL   O63916993   6.260   2.593   1.557 -0.4390  0.1620  0.6213
   18MOL   C64016994   6.021   2.618   1.564 -0.4262  0.1314  0.0225
   18MOL   C64116995   5.942   2.742   1.507 -0.1011 -0.2381 -0.2399
   18MOL   C64216996   5.812   2.765   1.583 -0.2568  0.6094  0.7300
   18MOL   C64316997   5.715   2.640   1.558  0.0087  0.2862  0.5392
   18MOL   C64416998   5.582   2.647   1.635 -0.2304  0.2619  0.2471
   18MOL   O64516999   5.570   2.720   1.733  0.0089 -0.3842  0.8638
   18MOL   H64617000   6.729   1.585   1.001  2.4744 -1.2741  0.1504
   18MOL   H64717001   6.787   1.628   1.160  1.1435 -0.6211 -0.6815
   18MOL   H64817002   6.677   1.831   0.959  2.2706  1.8209  0.4907
   18MOL   H64917003   6.763   1.866   1.111 -0.0137 -0.9540  0.1773
   18MOL   H65017004   6.484   1.756   1.069  0.5207 -1.2529 -0.2546
   18MOL   H65117005   6.569   1.726   1.215  0.4856 -0.0207 -0.5945
   18MOL   H65217006   6.585   1.971   1.265  0.2853  0.8642 -2.3087
   18MOL   H65317007   6.423   1.906   1.252  1.2518 -3.5168  0.0601
   18MOL   H65417008   6.417   2.000   1.019  1.1424 -0.3899 -2.2002
   18MOL   H65517009   6.580   2.057   1.046  0.4587  0.4039  0.7068
   18MOL   H65617010   6.517   2.205   1.224 -2.5401  3.6308  0.6718
   18MOL   H65717011   6.364   2.158   1.238  1.7652  1.9063  1.3853
   18MOL   H65817012   6.297   2.247   1.017 -1.5348  3.0641  1.3279
   18MOL   H65917013   6.459   2.271   0.966 -0.3013  1.4857 -0.3015
   18MOL   H66017014   6.322   2.475   1.042  0.5491  0.3142  0.2572
   18MOL   H66117015   6.469   2.453   1.141  0.4612 -0.6793  1.9994
   18MOL   H66217016   6.185   2.361   1.199  0.5921  0.6924 -0.5027
   18MOL   H66317017   6.315   2.368   1.317 -1.1703  0.2693  0.2739
   18MOL   H66417018   6.209   2.601   1.168  0.2881 -0.9035 -0.3242
   18MOL   H66517019   6.323   2.605   1.312  0.4547 -0.8714 -0.4913
   18MOL   H66617020   5.963   2.526   1.563 -0.1306 -0.0661  1.0397
   18MOL   H66717021   6.042   2.641   1.668 -1.0398 -0.4609  0.2754
   18MOL   H66817022   5.906   2.722   1.406 -0.5798  0.0472 -0.1274
   18MOL   H66917023   6.017   2.820   1.492  0.5633 -1.2046 -2.1811
   18MOL   H67017024   5.752   2.849   1.546  1.7564  0.6491 -2.6565
   18MOL   H67117025   5.842   2.777   1.687 -1.0728  0.8094  0.9513
   18MOL   H67217026   5.766   2.546   1.581 -3.1222 -1.2576  1.4432
   18MOL   H67317027   5.693   2.630   1.452  2.7797  0.5859 -0.0928
   18MOL   O67417028   5.493   2.568   1.582  0.7712 -0.4107  0.7326
   18MOL   C67517029   5.364   2.539   1.628  1.0228 -0.1190 -0.2939
   18MOL   C67617030   5.273   2.523   1.505  0.4232 -0.1881 -0.1702
   18MOL   C67717031   5.130   2.477   1.519 -0.0959 -0.5093 -0.8551
   18MOL   C67817032   5.057   2.453   1.384 -0.5775 -0.3802 -0.2807
   18MOL   C67917033   4.911   2.403   1.402 -0.2746 -0.0291  0.2762
   18MOL   C68017034   4.845   2.373   1.267 -0.5544  0.2652  0.3325
   18MOL   C68117035   4.697   2.329   1.283  0.5100  0.3761 -0.0829
   18MOL   C68217036   4.618   2.333   1.152  0.0869  0.2646  0.1962
   18MOL   C68317037   4.653   2.215   1.065 -0.3544  0.0432 -0.4528
   18MOL   C68417038   4.590   2.218   0.920 -0.0590  0.5272 -0.4188
   18MOL   O68517039   4.622   2.335   0.852  0.4465 -0.3257  0.2828
   18MOL   C68617040   4.744   2.352   0.803  0.0840  0.1055 -0.5789
   18MOL   O68717041   4.830   2.264   0.794 -0.3148 -0.7637  0.3521
   18MOL   C68817042   4.780   2.502   0.773  0.0038 -0.4520  0.5416
   18MOL   C68917043   4.863   2.559   0.894 -0.4393  1.0433 -0.0718
   18MOL   C69017044   4.919   2.699   0.858  0.4052  0.3225  0.2063
   18MOL   C69117045   5.009   2.763   0.964 -0.1218 -0.2039  0.6266
   18MOL   C69217046   5.055   2.897   0.911  0.3351  0.0290  0.2172
   18MOL   O69317047   5.140   2.912   0.828 -0.2968  0.1072  0.0117
   18MOL   H69417048   5.368   2.442   1.679 -1.3741 -0.2322 -0.2749
   18MOL   H69517049   5.319   2.622   1.683 -0.0807 -0.7290 -0.2583
   18MOL   H69617050   5.320   2.453   1.436  1.1186 -0.1171  0.2196
   18MOL   H69717051   5.271   2.614   1.444  0.8060 -0.4729 -0.6175
   18MOL   H69817052   5.123   2.388   1.582  0.4149  0.0788  0.0401
   18MOL   H69917053   5.086   2.561   1.572  0.3101 -0.4566 -0.5995
   18MOL   H70017054   5.110   2.373   1.332 -0.9273 -0.6074 -0.2922
   18MOL   H70117055   5.055   2.543   1.324 -1.8037  0.8964  1.6026
   18MOL   H70217056   4.866   2.490   1.451 -0.7551 -0.6896  1.0062
   18MOL   H70317057   4.914   2.321   1.473 -0.0465  0.0535  0.3626
   18MOL   H70417058   4.894   2.300   1.202 -1.3232  1.3758 -1.5286
   18MOL   H70517059   4.843   2.463   1.206  0.2560 -0.3663 -0.6510
   18MOL   H70617060   4.663   2.410   1.347 -0.9698  1.0088 -1.6344
   18MOL   H70717061   4.698   2.241   1.348 -3.2956  1.2823  1.3346
   18MOL   H70817062   4.639   2.426   1.101  1.0229 -0.4742 -0.7679
   18MOL   H70917063   4.510   2.345   1.162  0.4594  2.3354  2.3858
   18MOL   H71017064   4.761   2.206   1.052 -0.0638 -0.2357  2.0487
   18MOL   H71117065   4.626   2.127   1.123 -0.0493  1.3707  1.7641
   18MOL   H71217066   4.483   2.216   0.941 -0.0077  1.2011 -0.0620
   18MOL   H71317067   4.625   2.131   0.865  4.4080  1.5238  0.6278
   18MOL   H71417068   4.839   2.488   0.683  0.4612 -1.0070  0.9195
   18MOL   H71517069   4.679   2.537   0.750 -1.3093 -3.0151  2.1556
   18MOL   H71617070   4.945   2.491   0.916  0.4462  2.5427  1.4490
   18MOL   H71717071   4.809   2.562   0.989  0.5855  0.0879  0.5488
   18MOL   H71817072   4.832   2.761   0.840  0.2078  0.2053  0.7443
   18MOL   H71917073   4.973   2.693   0.764 -0.4369  0.2164 -0.2678
   18MOL   H72017074   5.095   2.709   1.003 -0.2727  0.9132  2.5675
   18MOL   H72117075   4.948   2.780   1.052  0.3317  1.2259  0.6707
   18MOL   O72217076   4.971   3.006   0.940 -0.1451  0.0964  0.3548
   18MOL   C72317077   4.985   3.131   0.866 -0.6670 -0.2625 -0.3905
   18MOL   C72417078   4.850   3.209   0.874  0.3257 -0.4838  0.0625
   18MOL   C72517079   4.724   3.122   0.842  0.3874  0.5307  0.0696
   18MOL   C72617080   4.592   3.187   0.880 -0.3480 -0.5224  0.4948
   18MOL   C72717081   4.476   3.081   0.888  0.6684  0.3561  0.6168
   18MOL   C72817082   4.347   3.154   0.931  0.7788  0.4059 -0.2983
   18MOL   C72917083   4.230   3.063   0.946  0.8904 -0.2004  0.7705
   18MOL   C73017084   4.108   3.127   1.017 -0.0005  0.0938  0.1840
   18MOL   C73117085   3.982   3.041   1.025 -0.0453  0.3147  0.0363
   18MOL   C73217086   3.865   3.114   1.098 -0.3995 -0.6251  0.4204
   18MOL   O73317087   3.826   3.213   0.998 -0.1200 -0.4987  0.1932
   18MOL   C73417088   3.708   3.274   1.006  0.0549 -0.6917 -0.2678
   18MOL   O73517089   3.615   3.251   1.082 -0.1659  0.1896 -0.1003
   18MOL   C73617090   3.691   3.379   0.892 -0.0738  0.5100 -0.0084
   18MOL   C73717091   3.712   3.534   0.919  0.3526  0.4845 -0.9534
   18MOL   C73817092   3.847   3.571   0.983 -0.4150  0.9246  0.9694
   18MOL   C73917093   3.971   3.542   0.893  0.0354 -0.5255  0.0793
   18MOL   C74017094   4.060   3.656   0.856  0.2172 -0.2252 -0.2282
   18MOL   O74117095   4.043   3.770   0.884 -0.0206  0.9497 -0.0452
   18MOL   H74217096   5.065   3.190   0.911 -0.3202 -1.3154  0.3989
   18MOL   H74317097   5.007   3.096   0.765  0.8773  0.4024 -0.2909
   18MOL   H74417098   4.853   3.293   0.805  1.0133 -0.8882 -0.4027
   18MOL   H74517099   4.845   3.252   0.974  2.2782  0.8323 -0.3805
   18MOL   H74617100   4.733   3.094   0.737 -1.8817  0.7429 -0.2055
   18MOL   H74717101   4.720   3.034   0.906 -3.1780  0.9869  0.5795
   18MOL   H74817102   4.577   3.261   0.801  2.0319  1.4112  1.7836
   18MOL   H74917103   4.595   3.247   0.971 -1.4841 -2.9472  2.1775
   18MOL   H75017104   4.496   3.011   0.969  1.6083 -2.1051 -1.6828
   18MOL   H75117105   4.465   3.020   0.798  1.8920 -0.3208  0.9092
   18MOL   H75217106   4.330   3.225   0.849  0.5994  1.4993  0.6697
   18MOL   H75317107   4.358   3.217   1.019 -1.2579  0.9257 -0.3836
   18MOL   H75417108   4.265   2.976   1.003  1.7763 -0.3209  0.0481
   18MOL   H75517109   4.197   3.029   0.848 -1.0424  1.4111  0.8417
   18MOL   H75617110   4.089   3.220   0.962  1.9044 -1.5022 -3.3182
   18MOL   H75717111   4.135   3.152   1.120 -1.6976 -2.9356  1.4230
   18MOL   H75817112   3.950   3.033   0.921  2.8236 -0.7202 -0.8311
   18MOL   H75917113   4.004   2.944   1.070 -2.0194  0.1291  0.6246
   18MOL   H76017114   3.896   3.175   1.183 -1.0608  2.2290 -1.3166
   18MOL   H76117115   3.786   3.050   1.138 -2.6741  1.1108 -1.1969
   18MOL   H76217116   3.756   3.348   0.810  2.4661  1.0433  1.7535
   18MOL   H76317117   3.591   3.371   0.852 -0.6610  1.1138  1.2913
   18MOL   H76417118   3.621   3.570   0.967  0.1489  1.9926 -2.4411
   18MOL   H76517119   3.710   3.586   0.823 -1.1558  0.9609 -0.6705
   18MOL   H76617120   3.849   3.511   1.074 -2.5607 -1.0707 -0.2324
   18MOL   H76717121   3.841   3.676   1.010 -0.9172  1.3291 -0.7111
   18MOL   H76817122   3.938   3.500   0.799 -3.2617 -0.5192  1.1692
   18MOL   H76917123   4.041   3.477   0.946 -0.5582 -0.2049  1.2852
   18MOL   O77017124   4.157   3.617   0.778  0.0324 -0.5001 -0.2016
   18MOL   C77117125   4.255   3.709   0.731 -0.0942 -0.2192  0.0535
   18MOL   C77217126   4.375   3.688   0.826  0.0563 -0.3088 -0.2381
   18MOL   C77317127   4.485   3.800   0.802 -0.3998  0.0127 -0.7981
   18MOL   C77417128   4.565   3.771   0.670  0.0739 -0.2410 -0.0439
   18MOL   C77517129   4.676   3.872   0.644  0.1406  0.1292  0.8757
   18MOL   C77617130   4.737   3.869   0.505 -0.6756 -0.2323  0.0483
   18MOL   C77717131   4.837   3.976   0.491  0.0414  0.7610 -0.1830
   18MOL   C77817132   4.896   3.980   0.348  0.2295 -0.4599  0.1328
   18MOL   C77917133   5.023   4.070   0.332 -0.1280  0.4092  0.6466
   18MOL   C78017134   5.048   4.075   0.181 -0.2944  0.1661 -0.2524
   18MOL   O78117135   5.126   3.966   0.151  0.8626  0.2450  0.4601
   18MOL   C78217136   5.173   3.950   0.024  0.7226 -0.5715 -0.1899
   18MOL   O78317137   5.126   4.008   7.691  0.3407  0.3735 -0.6973
   18MOL   C78417138   5.280   3.845   0.014  0.3240  1.0625  0.2994
   18MOL   C78517139   5.395   3.880   7.688 -0.4037  0.2582 -0.2635
   18MOL   C78617140   5.512   3.791   7.704 -0.2653  0.1091  0.3798
   18MOL   C78717141   5.634   3.807   7.605 -0.2725  0.9004  0.0605
   18MOL   C78817142   5.759   3.728   7.649 -0.0587  0.3411  0.0116
   18MOL   O78917143   5.766   3.662   7.758 -0.3288  0.1517  0.1513
   18MOL   H79017144   4.279   3.687   0.627 -0.6423 -0.5588 -0.0016
   18MOL   H79117145   4.221   3.812   0.733  1.1038  0.1792  0.5735
   18MOL   H79217146   4.415   3.587   0.832  1.1097  0.1477  0.5591
   18MOL   H79317147   4.354   3.705   0.932  1.7429  2.5566 -0.2868
   18MOL   H79417148   4.437   3.898   0.806 -0.5505 -0.1397  2.9358
   18MOL   H79517149   4.559   3.802   0.882  0.1685  0.4027 -1.3273
   18MOL   H79617150   4.495   3.774   0.586  1.4896  0.8050 -1.2035
   18MOL   H79717151   4.597   3.667   0.674 -0.0265 -0.2475  0.6402
   18MOL   H79817152   4.758   3.846   0.710  2.0846 -1.9314 -2.1876
   18MOL   H79917153   4.649   3.973   0.673 -2.1931 -0.7747  1.9786
   18MOL   H80017154   4.663   3.915   0.438 -3.1056 -1.4616  1.8319
   18MOL   H80117155   4.757   3.766   0.477 -1.0196  0.0447 -1.2884
   18MOL   H80217156   4.914   3.975   0.568  0.8105  0.2977 -0.9450
   18MOL   H80317157   4.796   4.076   0.503 -2.7751 -0.5533  1.7449
   18MOL   H80417158   4.831   3.993   0.261  0.5370  0.7958  0.0906
   18MOL   H80517159   4.940   3.880   0.349  0.1540 -0.4908  0.2374
   18MOL   H80617160   4.990   4.167   0.369 -1.2901  0.2464  0.0721
   18MOL   H80717161   5.104   4.025   0.388 -0.0392  0.8508  0.8708
   18MOL   H80817162   5.094   4.171   0.154 -0.1000 -0.1507 -1.0481
   18MOL   H80917163   4.958   4.074   0.120 -0.5361 -0.2034  0.1117
   18MOL   H81017164   5.315   3.822   0.115  3.3511 -1.4220 -1.2492
   18MOL   H81117165   5.231   3.759   7.732  1.6464 -1.1293  2.8374
   18MOL   H81217166   5.437   3.972   7.728 -0.0316  0.5760 -1.3596
   18MOL   H81317167   5.362   3.882   7.584  0.3616 -0.5959 -0.5184
   18MOL   H81417168   5.482   3.687   7.695  0.0567  0.1132 -0.9642
   18MOL   H81517169   5.551   3.801   0.041 -0.0475  0.4231  0.2686
   18MOL   H81617170   5.654   3.914   7.594 -0.9700  0.8659 -1.7071
   18MOL   H81717171   5.610   3.771   7.505  2.1383  2.0916 -0.9999
   18MOL   O81817172   5.844   3.724   7.550 -0.1128  0.1062 -0.2157
   18MOL   C81917173   5.957   3.644   7.565  0.4276  0.1905  0.3907
   18MOL   C82017174   6.071   3.729   7.516  0.3422 -0.6562 -0.1439
   18MOL   C82117175   6.090   3.873   7.580  0.0652  0.3129 -0.1673
   18MOL   C82217176   6.217   3.941   7.520 -1.0291  0.0355  0.2490
   18MOL   C82317177   6.223   4.094   7.561 -0.4715  0.6876 -0.5310
   18MOL   C82417178   6.351   4.168   7.514 -0.0870 -0.3145 -0.4049
   18MOL   C82517179   6.362   4.315   7.547  0.4145  0.2423  0.6914
   18MOL   C82617180   6.431   4.337   7.684 -0.4382  0.2338  0.3508
   18MOL   C82717181   6.471   4.487   7.707  0.1633 -0.0160 -0.2568
   18MOL   C82817182   6.368   4.579   0.005  0.4510 -0.0251  0.7412
   18MOL   O82917183   6.274   4.600   7.673 -0.1056 -0.1106  0.6409
   18MOL   C83017184   6.164   4.659   7.706 -0.3246 -0.5237 -1.5788
   18MOL   O83117185   6.130   4.705   0.054  0.4720 -0.3432 -0.8737
   18MOL   C83217186   6.084   4.694   7.589  1.4245 -0.1788 -0.6029
   18MOL   C83317187   5.969   4.585   7.582 -0.3765 -1.1380 -0.1058
   18MOL   C83417188   5.902   4.568   7.451  0.1704 -0.0890  1.0980
   18MOL   C83517189   5.994   4.506   7.340 -0.0063 -0.1992 -0.6113
   18MOL   C83617190   6.069   4.614   7.267  0.1363 -0.4108  0.3714
   18MOL   O83717191   6.188   4.632   7.283 -0.1115 -0.3332  0.8347
   18MOL   H83817192   5.972   3.622   7.670  0.1934  1.2815  0.6513
   18MOL   H83917193   5.944   3.555   7.502  0.6680  0.6697 -0.3507
   18MOL   H84017194   6.068   3.739   7.407 -0.8104 -1.6800 -0.2148
   18MOL   H84117195   6.162   3.671   7.534  0.1240 -0.2323  2.4029
   18MOL   H84217196   6.005   3.930   7.543 -0.3312 -0.2737 -0.1488
   18MOL   H84317197   6.080   3.876   7.689 -0.4772  1.2230 -0.2320
   18MOL   H84417198   6.219   3.938   7.411  0.3874  1.4167  0.2257
   18MOL   H84517199   6.301   3.889   7.565 -1.9672 -0.0025  2.0201
   18MOL   H84617200   6.207   4.107   7.668 -1.3645  0.1545 -0.6040
   18MOL   H84717201   6.145   4.154   7.514 -0.9232  0.3994 -0.1440
   18MOL   H84817202   6.363   4.146   7.408 -0.7236 -2.5970 -0.0387
   18MOL   H84917203   6.433   4.109   7.555 -0.5453 -1.1477 -0.6810
   18MOL   H85017204   6.261   4.355   7.553  1.2760  2.3059  2.0430
   18MOL   H85117205   6.416   4.368   7.469 -0.2685  0.5069  0.3975
   18MOL   H85217206   6.526   4.282   7.681  0.0497  1.1018 -0.2329
   18MOL   H85317207   6.384   4.293   0.007  1.6258  0.8395  1.7829
   18MOL   H85417208   6.548   4.490   0.019  1.9646  0.6389 -2.0591
   18MOL   H85517209   6.508   4.522   7.611 -1.4920  0.4350 -0.7530
   18MOL   H85617210   6.422   4.671   0.025 -0.0053  0.4513 -0.1560
   18MOL   H85717211   6.343   4.543   0.105  3.6098 -0.9148  1.2363
   18MOL   H85817212   6.043   4.794   7.580  3.4481  0.5897 -1.4716
   18MOL   H85917213   6.148   4.692   7.501  0.2423  0.1485 -1.4768
   18MOL   H86017214   5.889   4.595   7.657 -0.6193  0.8539 -0.6027
   18MOL   H86117215   6.017   4.494   7.618 -1.1744 -1.1969  0.8470
   18MOL   H86217216   5.871   4.666   7.414 -1.5133 -1.1819 -0.4800
   18MOL   H86317217   5.810   4.513   7.468  1.5026 -3.2078 -1.2993
   18MOL   H86417218   5.927   4.458   7.268  0.7036  1.1979 -2.2366
   18MOL   H86517219   6.058   4.430   7.384  0.1455 -0.3453 -1.0773
   18MOL   O86617220   5.987   4.701   7.207 -0.9224 -0.2500  0.1098
   18MOL   C86717221   6.030   4.814   7.133 -0.3916  1.0670 -0.3691
   18MOL   C86817222   6.064   4.933   7.223  0.2836 -0.1671  0.5484
   18MOL   C86917223   6.130   5.052   7.150 -0.3790  0.3492  0.5791
   18MOL   C87017224   6.144   5.183   7.230 -0.4113  0.2279 -0.7119
   18MOL   C87117225   6.195   5.301   7.148 -0.1150  0.1724 -0.4897
   18MOL   C87217226   6.194   5.419   7.238 -0.0573 -0.7499 -0.2769
   18MOL   C87317227   6.221   5.546   7.161  0.7245  0.2002 -0.3130
   18MOL   C87417228   6.240   5.681   7.248  0.1817  0.4864  0.1407
   18MOL   C87517229   6.273   5.804   7.159  0.4896 -0.0649  0.3996
   18MOL   C87617230   6.301   5.933   7.232  0.6002  0.9615 -0.3042
   18MOL   O87717231   6.317   6.044   7.144 -0.2878 -0.2765 -0.5994
   18MOL   C87817232   6.362   6.163   7.183 -0.5215 -0.7724 -0.1469
   18MOL   O87917233   6.410   6.182   7.293  0.1899 -0.3854 -0.0015
   18MOL   C88017234   6.352   6.269   7.072 -0.2396 -0.6724 -0.6064
   18MOL   C88117235   6.244   6.378   7.097 -0.4466 -0.1067 -0.0960
   18MOL   C88217236   6.281   6.485   7.202  0.1354 -0.3675  0.4806
   18MOL   C88317237   6.193   6.616   7.188  0.0249 -0.5421 -0.5372
   18MOL   C88417238   6.051   6.598   7.239  0.1159  0.0080 -0.2536
   18MOL   O88517239   5.961   6.592   7.158 -0.4344 -0.0450  0.4612
   18MOL   H88617240   6.109   4.780   7.066 -0.3530  0.6652 -0.1149
   18MOL   H88717241   5.956   4.845   7.058 -1.8599  0.6885  0.9049
   18MOL   H88817242   6.134   4.914   7.305  0.6535 -2.3614 -0.2570
   18MOL   H88917243   5.972   4.962   7.274  1.5640  3.7652  0.8146
   18MOL   H89017244   6.228   5.014   7.121  0.3671  1.7617  1.2115
   18MOL   H89117245   6.070   5.062   7.059  0.0291  2.1824  0.5075
   18MOL   H89217246   6.211   5.178   7.316  0.6845  1.9382 -1.4508
   18MOL   H89317247   6.046   5.217   7.265  0.0724  0.0238  0.8682
   18MOL   H89417248   6.126   5.319   7.065 -0.8419  2.5612  0.5751
   18MOL   H89517249   6.290   5.277   7.100  1.0949  1.1555  1.3534
   18MOL   H89617250   6.266   5.398   7.318  0.3222 -1.0283 -0.6909
   18MOL   H89717251   6.102   5.437   7.294  0.4547  1.9889 -0.2414
   18MOL   H89817252   6.145   5.553   7.083 -0.4261 -0.5536  0.7345
   18MOL   H89917253   6.312   5.538   7.100  0.5039 -1.6060 -0.4381
   18MOL   H90017254   6.314   5.664   7.326  0.6878 -1.5280 -0.7626
   18MOL   H90117255   6.144   5.699   7.297  0.0949 -1.1762  0.5989
   18MOL   H90217256   6.358   5.797   7.091 -1.0693  0.4749 -1.6559
   18MOL   H90317257   6.188   5.815   7.092 -0.6391 -0.9971  1.6693
   18MOL   H90417258   6.386   5.916   7.298  0.0237 -0.7434  0.0466
   18MOL   H90517259   6.217   5.938   7.302 -0.9030  2.1381 -2.1642
   18MOL   H90617260   6.453   6.307   7.058  0.1979 -1.4633  0.3805
   18MOL   H90717261   6.337   6.209   6.982  1.0271  0.4212 -1.5642
   18MOL   H90817262   6.154   6.329   7.133  0.8881 -1.4827  1.4600
   18MOL   H90917263   6.212   6.431   7.007 -1.1423  1.5481  1.1063
   18MOL   H91017264   6.383   6.522   7.190  0.0085  0.9304  2.9903
   18MOL   H91117265   6.281   6.445   7.304  0.6772 -1.2494  0.1416
   18MOL   H91217266   6.182   6.656   7.088  2.2072  0.4907 -0.3760
   18MOL   H91317267   6.234   6.695   7.250 -0.3044 -1.5334  0.9996
   18MOL   O91417268   6.045   6.588   7.372  0.4050  0.1746  0.4075
   18MOL   C91517269   5.919   6.578   7.442 -0.9909  0.2954  0.0049
   18MOL   C91617270   5.852   6.719   7.447  0.1706 -0.3692 -0.7025
   18MOL   C91717271   5.935   6.829   7.512 -0.6986  0.4268 -0.9468
   18MOL   C91817272   5.853   6.945   7.558  0.5794  0.6416 -0.1124
   18MOL   C91917273   5.776   6.911   7.685 -0.0379  0.9637 -0.0483
   18MOL   C92017274   5.705   7.040   7.729  1.0742 -0.2226 -0.0865
   18MOL   C92117275   5.631   7.018   0.096 -0.4876  0.4527 -0.9604
   18MOL   C92217276   5.543   7.132   0.135  0.0039 -0.3727  0.1718
   18MOL   C92317277   5.492   7.116   0.282 -0.3792 -0.4047  0.4000
   18MOL   C92417278   5.373   7.206   0.305  0.8035  0.3046 -0.4219
   18MOL   O92517279   5.265   7.164   0.217  0.8269  0.1636  0.2738
   18MOL   C92617280   5.201   7.256   0.145 -0.4416 -0.2526 -0.7737
   18MOL   O92717281   5.241   7.375   0.144  0.1984  0.7584 -0.0345
   18MOL   C92817282   5.076   7.195   0.075 -0.1439  0.2316 -0.4329
   18MOL   C92917283   5.067   7.223   7.693  0.0966 -0.4625  0.7232
   18MOL   C93017284   5.195   7.180   7.606  0.0845 -0.2646 -0.1155
   18MOL   C93117285   5.192   7.026   7.603  0.0709 -0.3251  0.2910
   18MOL   C93217286   5.309   6.967   7.538 -0.0993 -0.5184 -0.0388
   18MOL   O93317287   5.348   7.020   7.435 -0.0160  0.1532 -1.0096
   18MOL   H93417288   5.864   6.491   7.408  0.1970 -0.5539  0.2043
   18MOL   H93517289   5.934   6.556   7.547  0.2564  1.1068  0.0097
   18MOL   H93617290   5.760   6.690   7.497  0.8105 -1.9150 -0.3795
   18MOL   H93717291   5.827   6.744   7.344 -0.0457 -0.1431 -0.5923
   18MOL   H93817292   5.994   6.793   7.597 -0.3247  1.9013 -0.5673
   18MOL   H93917293   6.014   6.855   7.441  0.8383 -1.5005  0.0154
   18MOL   H94017294   5.776   6.989   7.495  0.6633 -1.0278 -1.4008
   18MOL   H94117295   5.922   7.026   7.581  1.4935  0.1625 -1.1307
   18MOL   H94217296   5.842   6.877   7.765 -1.4330 -0.6922  0.4282
   18MOL   H94317297   5.709   6.828   7.661 -0.4678  1.8480 -2.0098
   18MOL   H94417298   5.630   7.078   7.659  0.7419  1.2069  1.0332
   18MOL   H94517299   5.774   7.123   7.745 -0.6504  1.6084 -1.8030
   18MOL   H94617300   5.704   6.995   0.174 -0.0603 -1.0401 -1.7866
   18MOL   H94717301   5.571   6.928   0.083 -0.9833  0.8436 -1.4106
   18MOL   H94817302   5.462   7.117   0.063 -0.0047 -0.5777  0.2232
   18MOL   H94917303   5.584   7.229   0.109  0.2145 -0.6230 -0.4560
   18MOL   H95017304   5.460   7.018   0.318 -1.3580 -1.7556 -3.8392
   18MOL   H95117305   5.570   7.132   0.357  1.2863  3.2759 -1.9585
   18MOL   H95217306   5.415   7.306   0.297 -0.1037  0.8914  1.7049
   18MOL   H95317307   5.346   7.214   0.410 -1.5544 -0.2268 -0.9641
   18MOL   H95417308   5.053   7.092   0.102  0.7727 -0.2454 -1.4258
   18MOL   H95517309   4.992   7.251   0.114  0.5802  0.5433  0.7019
   18MOL   H95617310   5.053   7.330   7.681  0.3850 -0.2183  2.3902
   18MOL   H95717311   4.980   7.177   7.647  0.5408 -0.9728  0.3871
   18MOL   H95817312   5.290   7.223   7.640  0.6675 -0.8463 -0.9957
   18MOL   H95917313   5.175   7.221   7.507 -2.8779  1.4419  1.1264
   18MOL   H96017314   5.118   6.969   7.546 -0.4075  1.4958 -0.9700
   18MOL   H96117315   5.182   6.995   7.707 -1.8239  4.1028  1.5464
   18MOL   H96217316   5.347   6.869   7.566 -2.1352 -0.9460  1.3385
   19MOL     O117317   6.154   5.769   1.438  0.6841 -0.2366 -0.2743
   19MOL     C217318   6.040   5.706   1.392 -0.5449  0.2011 -0.0867
   19MOL     C317319   6.098   5.610   1.279 -0.5770  0.0315  0.4311
   19MOL     C417320   6.163   5.481   1.330  0.0059 -0.0388 -0.0092
   19MOL     C517321   6.233   5.412   1.216  0.0975 -0.2441  0.8069
   19MOL     C617322   6.153   5.287   1.179 -0.8519 -0.3237  0.0674
   19MOL     C717323   6.179   5.237   1.037 -0.0431  0.0372  0.4121
   19MOL     C817324   6.140   5.089   1.014  0.0517 -0.2161 -0.7911
   19MOL     C917325   6.164   5.029   0.877  0.5871  0.5616  0.0752
   19MOL    C1017326   6.126   4.881   0.876  0.2974  0.6606  1.0734
   19MOL    C1117327   6.197   4.802   0.761 -0.1999 -0.1838 -1.4607
   19MOL    O1217328   6.111   4.684   0.751  0.5674 -0.8122 -0.1157
   19MOL    C1317329   6.142   4.566   0.799 -0.2442 -0.2508 -0.1783
   19MOL    O1417330   6.252   4.535   0.847 -0.0878 -0.1684 -0.4426
   19MOL    C1517331   6.038   4.459   0.773  0.1437 -0.3666 -0.8524
   19MOL    C1617332   6.092   4.335   0.692  0.2174 -0.3875  0.0281
   19MOL    C1717333   6.102   4.380   0.544 -0.1455  0.1100 -0.4453
   19MOL    C1817334   6.129   4.260   0.445  0.1095 -0.3620 -0.3384
   19MOL    C1917335   6.136   4.311   0.304 -0.1877  0.1371 -0.2177
   19MOL    O2017336   6.237   4.358   0.250 -0.2222 -0.6647 -0.8236
   19MOL    H2117337   6.000   5.645   1.473  0.2986  0.0909  0.2573
   19MOL    H2217338   5.968   5.778   1.352  0.7655  1.2982 -0.5158
   19MOL    H2317339   6.173   5.671   1.228 -0.9484  1.0190  1.0402
   19MOL    H2417340   6.013   5.595   1.212 -1.3534 -0.2165  1.4531
   19MOL    H2517341   6.226   5.509   1.414 -1.4524 -1.0379  1.4512
   19MOL    H2617342   6.092   5.409   1.370 -0.2231 -0.0618 -0.4481
   19MOL    H2717343   6.334   5.379   1.243 -0.3004 -1.7590  0.5125
   19MOL    H2817344   6.250   5.479   1.132 -0.3551 -0.3976  0.5892
   19MOL    H2917345   6.045   5.298   1.179 -0.6430  2.0802  0.1436
   19MOL    H3017346   6.171   5.214   1.258  0.1179 -1.7008 -1.4055
   19MOL    H3117347   6.286   5.239   1.015 -0.0066  0.6859  0.6475
   19MOL    H3217348   6.142   5.295   0.952 -0.6727  0.1446  0.7557
   19MOL    H3317349   6.038   5.063   1.043 -0.4218  0.2808 -1.9527
   19MOL    H3417350   6.204   5.036   1.084  0.0646 -0.5441 -1.0475
   19MOL    H3517351   6.269   5.029   0.847 -0.0805 -0.0567 -2.4144
   19MOL    H3617352   6.095   5.081   0.810 -0.7394  1.7732  2.3323
   19MOL    H3717353   6.153   4.839   0.973  5.1131  0.5384 -0.1789
   19MOL    H3817354   6.021   4.856   0.869  0.9153 -1.8047 -0.1980
   19MOL    H3917355   6.298   4.775   0.792 -0.3492  1.2517  0.3326
   19MOL    H4017356   6.200   4.857   0.666 -0.3516 -1.5900 -2.3029
   19MOL    H4117357   5.994   4.430   0.869  0.8957  0.6910 -0.1740
   19MOL    H4217358   5.955   4.502   0.718  2.0106  3.4415 -0.8352
   19MOL    H4317359   6.021   4.253   0.702  0.7557 -0.9960 -1.1492
   19MOL    H4417360   6.186   4.300   0.734  0.1101  0.8627  1.3698
   19MOL    H4517361   6.183   4.452   0.529  0.0882 -0.0183  0.2110
   19MOL    H4617362   6.008   4.427   0.513 -1.7913 -2.1535  1.0139
   19MOL    H4717363   6.043   4.195   0.463 -0.5114  0.8345  1.1643
   19MOL    H4817364   6.219   4.204   0.467  0.1691 -0.3803 -0.6323
   19MOL    H4917365   6.205   5.706   1.486  1.0776 -0.2870 -0.7545
   19MOL    O5017366   6.018   4.307   0.242 -0.6733  0.4667  0.0124
   19MOL    C5117367   5.995   4.359   0.112  1.0807  0.2261  0.4926
   19MOL    C5217368   5.939   4.241   0.031 -0.1315 -0.3288 -0.2871
   19MOL    C5317369   5.795   4.208   0.060 -0.2932 -0.5599  0.2793
   19MOL    C5417370   5.702   4.324   0.049  0.7610  0.4057  0.1311
   19MOL    C5517371   5.565   4.274   0.084 -0.2798  0.7725 -0.0804
   19MOL    C5617372   5.466   4.386   0.056  0.1576 -0.3638 -0.3760
   19MOL    C5717373   5.326   4.354   0.092  0.6916 -0.1041 -0.3190
   19MOL    C5817374   5.229   4.470   0.055  1.0038  0.5443  0.1367
   19MOL    C5917375   5.076   4.443   0.074 -0.0598 -0.8717  0.2396
   19MOL    C6017376   4.979   4.553   0.031 -1.2909 -0.2249 -0.0978
   19MOL    O6117377   5.005   4.676   0.099  0.8420 -0.1465 -0.3424
   19MOL    C6217378   4.947   4.784   0.057  0.5001 -0.3671 -0.3210
   19MOL    O6317379   4.864   4.789   7.732  0.3987 -0.6720 -0.2240
   19MOL    C6417380   4.994   4.904   0.152  0.2306  0.1772 -0.5296
   19MOL    C6517381   5.119   4.976   0.111 -0.3097 -0.1398  0.4653
   19MOL    C6617382   5.258   4.896   0.131 -0.2279  0.6444  0.8442
   19MOL    C6717383   5.292   4.891   0.285 -0.0166  0.3134 -0.8796
   19MOL    C6817384   5.326   4.749   0.333 -0.1269  0.6303 -0.1583
   19MOL    O6917385   5.437   4.708   0.300  0.5602  0.5480 -0.0568
   19MOL    H7017386   5.919   4.437   0.122  0.9383  0.1563 -0.0227
   19MOL    H7117387   6.080   4.411   0.067 -0.2183 -0.3079 -2.7522
   19MOL    H7217388   6.011   4.162   0.054  1.3091  0.3439 -2.3676
   19MOL    H7317389   5.946   4.259   7.688  0.8422  2.4071  0.1941
   19MOL    H7417390   5.760   4.133   7.754 -0.2054 -1.2569  0.9756
   19MOL    H7517391   5.783   4.176   0.163  0.7926  0.3203  0.7008
   19MOL    H7617392   5.713   4.370   7.716 -1.1382  0.7281  0.0521
   19MOL    H7717393   5.726   4.400   0.123  0.4630  1.8959 -1.3009
   19MOL    H7817394   5.562   4.239   0.188 -2.2215  1.7151  0.1966
   19MOL    H7917395   5.547   4.184   0.025 -0.7586 -1.1844  2.9369
   19MOL    H8017396   5.474   4.415   7.716  0.2755  0.0558 -0.2558
   19MOL    H8117397   5.508   4.466   0.118 -2.3877  0.6500  0.0912
   19MOL    H8217398   5.320   4.322   0.196 -1.4347  2.4220  0.3854
   19MOL    H8317399   5.305   4.262   0.037 -0.3146 -0.4778  0.6815
   19MOL    H8417400   5.243   4.474   7.712 -1.4202 -0.2743 -0.2246
   19MOL    H8517401   5.266   4.563   0.099  1.0136  0.1377  1.0038
   19MOL    H8617402   5.057   4.357   0.009 -1.5437 -0.2599 -0.1610
   19MOL    H8717403   5.070   4.431   0.182  2.7154 -0.9963  0.4118
   19MOL    H8817404   4.877   4.522   0.052 -1.9050  2.4201  1.0361
   19MOL    H8917405   4.984   4.570   7.688 -0.9741  0.5111  0.0343
   19MOL    H9017406   4.915   4.979   0.158  0.6876  0.8104 -2.1487
   19MOL    H9117407   4.997   4.862   0.252 -1.3074 -0.7255 -0.8449
   19MOL    H9217408   5.133   5.077   0.148  0.7962 -0.7446  1.7686
   19MOL    H9317409   5.112   4.999   0.004  2.0131  0.4691  0.4161
   19MOL    H9417410   5.338   4.940   0.071  0.5783 -2.6074 -0.5941
   19MOL    H9517411   5.247   4.797   0.087 -1.1224  0.9254  0.4190
   19MOL    H9617412   5.217   4.943   0.345 -0.7422  1.0561 -2.4156
   19MOL    H9717413   5.385   4.946   0.300  0.6364 -1.1288  0.6281
   19MOL    O9817414   5.227   4.689   0.406  0.4326 -0.2022  0.0581
   19MOL    C9917415   5.246   4.555   0.445 -0.1120  0.1317  0.1508
   19MOL   C10017416   5.137   4.526   0.548  0.2574  0.1259 -0.4598
   19MOL   C10117417   5.144   4.389   0.619  0.5862  0.7160 -0.3172
   19MOL   C10217418   5.016   4.341   0.689 -0.8031 -0.0322 -0.2264
   19MOL   C10317419   5.040   4.227   0.786  0.5674 -0.0324  0.4130
   19MOL   C10417420   4.907   4.182   0.847  0.5160  0.4440 -0.0316
   19MOL   C10517421   4.917   4.095   0.971  0.3984  0.2755 -0.1811
   19MOL   C10617422   4.775   4.065   1.030  0.7073 -0.0452  0.4868
   19MOL   C10717423   4.758   4.014   1.175  0.1944  0.7050 -0.1893
   19MOL   C10817424   4.802   3.866   1.193  0.5555  0.0529  0.0377
   19MOL   O10917425   4.935   3.859   1.230  0.0640 -0.5093  0.1121
   19MOL   C11017426   4.976   3.806   1.345 -0.1365 -0.8372 -0.4446
   19MOL   O11117427   4.910   3.761   1.437 -0.0779 -0.3171 -0.5470
   19MOL   C11217428   5.127   3.809   1.349  0.1456  0.3450 -0.1038
   19MOL   C11317429   5.181   3.894   1.461 -0.0661  0.4471  0.1634
   19MOL   C11417430   5.143   4.040   1.460  0.6494 -0.0040 -0.0791
   19MOL   C11517431   5.170   4.116   1.594  0.5985 -0.2784  0.1891
   19MOL   C11617432   5.309   4.163   1.624  0.6450 -0.0521  0.4698
   19MOL   O11717433   5.403   4.111   1.569 -0.5113 -0.1473  0.3153
   19MOL   H11817434   5.242   4.488   0.359  1.0244 -0.7718  0.7853
   19MOL   H11917435   5.347   4.539   0.483 -0.2304  1.2778  0.9841
   19MOL   H12017436   5.039   4.525   0.501  0.1572 -1.9615 -0.2588
   19MOL   H12117437   5.122   4.601   0.625 -0.2175 -0.2194 -0.2160
   19MOL   H12217438   5.187   4.306   0.563  1.5183  1.0111 -0.0490
   19MOL   H12317439   5.218   4.406   0.696 -0.7758  2.1453  0.7079
   19MOL   H12417440   4.948   4.306   0.611  0.5943 -1.8885 -0.6410
   19MOL   H12517441   4.971   4.428   0.735 -0.0162 -1.0769  2.6018
   19MOL   H12617442   5.121   4.237   0.857  1.6945  0.2651 -0.9024
   19MOL   H12717443   5.067   4.140   0.727  1.0899  0.0687  0.4999
   19MOL   H12817444   4.843   4.130   0.776 -1.0812  0.1149  1.5944
   19MOL   H12917445   4.849   4.273   0.863 -0.8926 -0.4771  0.1576
   19MOL   H13017446   4.983   4.147   1.040  1.4430  0.1442 -1.0667
   19MOL   H13117447   4.973   4.005   0.945  0.1730  0.0551  0.1045
   19MOL   H13217448   4.729   3.985   0.972 -1.8464  0.5030  1.6973
   19MOL   H13317449   4.717   4.157   1.024 -0.9656 -1.1761 -1.0084
   19MOL   H13417450   4.815   4.074   1.246  1.7877  0.2502 -1.0465
   19MOL   H13517451   4.652   4.026   1.198  0.7376  2.1056  1.6835
   19MOL   H13617452   4.790   3.800   1.106  1.5722 -1.2612  0.8823
   19MOL   H13717453   4.732   3.824   1.265  0.4111  0.6532  0.2433
   19MOL   H13817454   5.161   3.706   1.366 -1.1428 -0.1667 -0.5418
   19MOL   H13917455   5.165   3.851   1.256  2.2136  0.3316  0.6907
   19MOL   H14017456   5.287   3.885   1.487 -0.1168 -0.4169  0.0975
   19MOL   H14117457   5.131   3.847   1.546  0.0594 -3.1413 -1.6511
   19MOL   H14217458   5.037   4.049   1.438  0.2220 -1.4178  1.3114
   19MOL   H14317459   5.186   4.089   1.372 -0.8740 -0.8477 -1.3353
   19MOL   H14417460   5.135   4.065   1.683 -2.2798  0.5663 -0.4197
   19MOL   H14517461   5.103   4.202   1.584  1.7326  1.1244  3.8081
   19MOL   O14617462   5.315   4.267   1.702  0.6258  0.3366 -0.4197
   19MOL   C14717463   5.434   4.333   1.741 -0.0611  0.3337  0.0887
   19MOL   C14817464   5.405   4.438   1.847 -0.6549 -0.5650  0.4535
   19MOL   C14917465   5.509   4.552   1.871 -0.0382  0.1007  0.6809
   19MOL   C15017466   5.652   4.499   1.884 -0.3863  0.9668 -0.7786
   19MOL   C15117467   5.705   4.448   2.018  0.0760  0.5992 -0.6480
   19MOL   C15217468   5.860   4.434   2.013  0.0681 -0.2541 -0.4668
   19MOL   C15317469   5.910   4.352   2.137 -0.4859 -0.1820 -0.7980
   19MOL   C15417470   5.849   4.373   2.274  0.1262 -0.3967  0.1357
   19MOL   C15517471   5.918   4.485   2.361  0.0841  0.4397  0.1536
   19MOL   C15617472   5.939   4.610   2.280 -0.2470 -0.1586  0.0179
   19MOL   O15717473   5.809   4.671   2.253  0.1746  0.0084  0.7145
   19MOL   C15817474   5.801   4.804   2.212 -0.1050 -0.4042 -0.4131
   19MOL   O15917475   5.886   4.898   2.227 -0.2063 -0.1816  0.0694
   19MOL   C16017476   5.666   4.828   2.136 -0.4873 -0.1589 -0.2281
   19MOL   C16117477   5.673   4.956   2.048 -0.1673 -0.7896  0.0057
   19MOL   C16217478   5.734   4.931   1.909  0.0651  0.8478  0.9526
   19MOL   C16317479   5.691   5.021   1.790  0.1116 -0.1346  0.1919
   19MOL   C16417480   5.535   5.026   1.779 -0.8652 -0.6003  0.0399
   19MOL   O16517481   5.470   4.922   1.804 -0.2901 -0.1227 -0.6296
   19MOL   H16617482   5.506   4.261   1.778 -1.0634 -0.6489  0.1383
   19MOL   H16717483   5.492   4.380   1.661  1.6867 -2.3474 -0.2697
   19MOL   H16817484   5.395   4.386   1.942  1.1010 -0.8262  0.5064
   19MOL   H16917485   5.314   4.492   1.820 -0.6320  0.4838  2.3837
   19MOL   H17017486   5.504   4.616   1.784 -2.3822 -1.9195 -0.7458
   19MOL   H17117487   5.491   4.612   1.960  1.2809  0.8820  0.4312
   19MOL   H17217488   5.720   4.581   1.861  0.8517 -0.1804 -1.2632
   19MOL   H17317489   5.668   4.422   1.808  1.5526 -1.3596  1.8769
   19MOL   H17417490   5.650   4.356   2.038  1.8246 -0.5061 -0.8145
   19MOL   H17517491   5.677   4.519   2.095 -0.3677 -0.1484 -0.1222
   19MOL   H17617492   5.903   4.533   2.020 -2.5614  0.9886 -1.2755
   19MOL   H17717493   5.898   4.395   1.919  0.3595 -2.0026  0.3483
   19MOL   H17817494   6.018   4.362   2.147 -0.6798  0.3046  1.0094
   19MOL   H17917495   5.897   4.246   2.113  1.3973 -0.8192  0.8749
   19MOL   H18017496   5.846   4.284   2.336 -1.0383  0.9988  2.1401
   19MOL   H18117497   5.741   4.382   2.265  0.1239 -0.7118 -0.1557
   19MOL   H18217498   5.853   4.510   2.445  0.1624 -3.0814  1.3550
   19MOL   H18317499   6.014   4.453   2.404 -0.4870 -2.7740 -0.7965
   19MOL   H18417500   6.006   4.609   2.195 -0.9377  2.3359 -0.5892
   19MOL   H18517501   5.989   4.686   2.341 -0.9442 -1.2611  2.0253
   19MOL   H18617502   5.643   4.735   2.084 -0.7612 -2.0636  3.0794
   19MOL   H18717503   5.588   4.849   2.209  0.0254 -0.2521  0.3620
   19MOL   H18817504   5.716   5.047   2.089  1.9976 -1.2482 -1.1809
   19MOL   H18917505   5.568   4.984   2.034 -0.4362 -3.4304 -4.3396
   19MOL   H19017506   5.698   4.831   1.881  0.0613  1.5164 -1.5231
   19MOL   H19117507   5.843   4.928   1.908  0.0703  0.1153 -2.2787
   19MOL   H19217508   5.735   5.009   1.691  0.7403  0.6822  0.3664
   19MOL   H19317509   5.735   5.118   1.817  3.0473 -1.2598 -0.3242
   19MOL   O19417510   5.488   5.144   1.741  0.0470  0.7294 -0.2265
   19MOL   C19517511   5.350   5.156   1.718 -0.6158  0.4065  0.3220
   19MOL   C19617512   5.346   5.258   1.609  0.8621  0.4062 -0.2589
   19MOL   C19717513   5.333   5.190   1.469 -0.3889 -0.5142 -0.3258
   19MOL   C19817514   5.286   5.296   1.365 -0.1025 -0.3249 -0.2230
   19MOL   C19917515   5.254   5.231   1.221 -1.1789 -0.1545 -0.4116
   19MOL   C20017516   5.206   5.322   1.117  0.3867  0.5259 -0.3528
   19MOL   C20117517   5.321   5.389   1.037  0.2988  0.4986 -1.0422
   19MOL   C20217518   5.276   5.501   0.945 -0.6990 -0.8346  0.3307
   19MOL   C20317519   5.403   5.569   0.884 -0.4078 -0.1611 -0.3113
   19MOL   C20417520   5.377   5.717   0.829 -0.0625 -0.3309 -0.8798
   19MOL   O20517521   5.280   5.710   0.726  0.1066 -0.6871 -0.0916
   19MOL   C20617522   5.323   5.721   0.599  0.2769  0.1914  0.1198
   19MOL   O20717523   5.439   5.727   0.564  0.0202 -0.1181  0.4377
   19MOL   C20817524   5.204   5.708   0.501 -1.1185 -0.0282 -0.0308
   19MOL   C20917525   5.135   5.842   0.479  0.0988 -0.7831  0.5414
   19MOL   C21017526   4.998   5.817   0.407 -0.3589  0.1963 -0.5463
   19MOL   C21117527   4.909   5.722   0.486 -0.1018 -0.6003 -0.3036
   19MOL   C21217528   4.895   5.735   0.638 -0.0767 -0.2159 -0.4782
   19MOL   O21317529   4.848   5.842   0.683  0.2660  0.6211  0.0361
   19MOL   H21417530   5.300   5.067   1.679 -0.4445  1.5095 -2.5660
   19MOL   H21517531   5.296   5.187   1.808  2.1151 -0.0960  2.1776
   19MOL   H21617532   5.424   5.335   1.617  0.5935  0.5868  0.6464
   19MOL   H21717533   5.253   5.310   1.631  1.5446  0.7194  2.0485
   19MOL   H21817534   5.420   5.132   1.440 -0.5864 -0.2058 -1.5753
   19MOL   H21917535   5.246   5.125   1.463  0.6934 -1.9291 -1.1298
   19MOL   H22017536   5.364   5.371   1.356 -0.5471 -0.0259 -1.7547
   19MOL   H22117537   5.198   5.348   1.404 -0.0451 -0.0869 -0.4091
   19MOL   H22217538   5.183   5.149   1.231 -0.0122 -1.0332  0.8193
   19MOL   H22317539   5.344   5.183   1.184 -0.2054  2.9947 -2.3561
   19MOL   H22417540   5.147   5.398   1.170  1.7995  0.3714  1.5001
   19MOL   H22517541   5.142   5.273   1.044  1.8929 -0.9405 -0.7226
   19MOL   H22617542   5.379   5.305   0.999  0.1306 -1.2872  2.5175
   19MOL   H22717543   5.387   5.446   1.102  0.2700 -0.2459 -0.3581
   19MOL   H22817544   5.207   5.565   1.000  0.4104  1.8139 -1.2626
   19MOL   H22917545   5.216   5.457   0.866 -0.0956  0.3432 -0.8078
   19MOL   H23017546   5.479   5.575   0.962 -0.4861 -0.2906 -0.2249
   19MOL   H23117547   5.436   5.503   0.804 -0.6089 -1.1169  0.3842
   19MOL   H23217548   5.473   5.762   0.804 -1.0976  1.8914 -0.9175
   19MOL   H23317549   5.345   5.788   0.906  2.1495  0.9342 -1.0717
   19MOL   H23417550   5.239   5.672   0.404 -2.2863 -0.5513 -0.2578
   19MOL   H23517551   5.134   5.633   0.537 -1.2278 -0.0481 -0.2872
   19MOL   H23617552   5.195   5.906   0.414 -3.1129  0.9841 -0.8138
   19MOL   H23717553   5.119   5.901   0.569  0.9155 -1.2819  1.0123
   19MOL   H23817554   5.017   5.760   0.316  0.2928 -0.4465 -0.0157
   19MOL   H23917555   4.952   5.914   0.388 -0.2390  0.3436 -0.1063
   19MOL   H24017556   4.933   5.621   0.453 -1.0173 -0.2613 -2.0078
   19MOL   H24117557   4.806   5.740   0.455 -0.4445  0.0554  1.1615
   19MOL   O24217558   4.944   5.629   0.707  0.2034 -0.4174  0.0184
   19MOL   C24317559   4.935   5.619   0.853 -0.2473 -0.3777  0.4881
   19MOL   C24417560   4.923   5.470   0.890 -0.1402  0.8131  0.4027
   19MOL   C24517561   4.780   5.405   0.883 -0.5150 -0.5871  0.0965
   19MOL   C24617562   4.776   5.256   0.925 -0.1091 -0.2323 -0.1219
   19MOL   C24717563   4.801   5.225   1.073  0.6728  0.2339 -0.0877
   19MOL   C24817564   4.816   5.072   1.098  0.6225  0.1216  0.2531
   19MOL   C24917565   4.835   5.029   1.246  0.2130  0.5184 -0.9464
   19MOL   C25017566   4.700   5.032   1.330 -0.2492 -0.0078 -0.2263
   19MOL   C25117567   4.609   4.909   1.303 -0.7919  0.4111  0.1912
   19MOL   C25217568   4.477   4.921   1.382  0.4990 -0.4378  0.2433
   19MOL   O25317569   4.393   4.810   1.355  0.3528 -1.0719 -0.4972
   19MOL   C25417570   4.280   4.822   1.288 -0.5802  0.2673 -0.0976
   19MOL   O25517571   4.232   4.932   1.254  0.5432  0.5580 -0.2752
   19MOL   C25617572   4.216   4.688   1.263 -0.4334 -0.0741  0.3276
   19MOL   C25717573   4.150   4.679   1.125  0.2500  0.0008 -0.4502
   19MOL   C25817574   4.251   4.651   1.004 -0.1662 -0.4454 -0.5203
   19MOL   C25917575   4.182   4.662   0.863 -0.1115 -0.3254  0.0568
   19MOL   C26017576   4.245   4.574   0.756  0.6422 -0.4616  0.0337
   19MOL   O26117577   4.183   4.501   0.678  0.0006 -0.1915 -0.4552
   19MOL   H26217578   5.023   5.664   0.899  0.1340 -0.2627 -0.3309
   19MOL   H26317579   4.850   5.680   0.883  1.6222  2.2476  0.6313
   19MOL   H26417580   4.953   5.466   0.995  1.6491 -1.2084 -0.1542
   19MOL   H26517581   5.002   5.407   0.849 -1.7098 -1.1979  0.3957
   19MOL   H26617582   4.713   5.461   0.948  0.0827 -1.2318  1.2980
   19MOL   H26717583   4.737   5.422   0.785 -1.2468 -1.2265  0.3038
   19MOL   H26817584   4.853   5.206   0.866  0.4214 -0.0445  0.4092
   19MOL   H26917585   4.681   5.219   0.887 -0.0579 -0.2584 -0.2254
   19MOL   H27017586   4.729   5.276   1.136  2.3715  3.3093 -0.5498
   19MOL   H27117587   4.896   5.273   1.095  0.0734  0.5411  1.8474
   19MOL   H27217588   4.898   5.023   1.045 -0.3468  0.7676 -1.8895
   19MOL   H27317589   4.729   5.017   1.062  0.6894  0.2464 -0.0937
   19MOL   H27417590   4.915   5.084   1.295  1.2485 -0.7388 -1.1982
   19MOL   H27517591   4.870   4.925   1.249 -0.8024  0.1387 -1.9414
   19MOL   H27617592   4.667   5.133   1.309  0.9613  0.7182  1.3015
   19MOL   H27717593   4.721   5.019   1.436 -0.0077 -0.4101 -0.3182
   19MOL   H27817594   4.585   4.908   1.196 -0.3570  0.7877  0.0849
   19MOL   H27917595   4.662   4.815   1.317 -0.3155  0.4451 -1.2664
   19MOL   H28017596   4.427   5.017   1.365  0.7179 -0.0969  1.4661
   19MOL   H28117597   4.495   4.924   1.489  1.7710  3.1538  0.0304
   19MOL   H28217598   4.296   4.616   1.279 -1.0792 -0.8751  0.0314
   19MOL   H28317599   4.143   4.668   1.342 -2.2253 -3.7336 -2.0965
   19MOL   H28417600   4.095   4.771   1.103 -2.1185 -1.8698 -2.7086
   19MOL   H28517601   4.084   4.594   1.139  1.2258 -0.5808  0.6339
   19MOL   H28617602   4.289   4.550   1.015  0.6941 -0.0335  0.2990
   19MOL   H28717603   4.336   4.719   1.010 -0.3058 -0.3519  0.4651
   19MOL   H28817604   4.176   4.767   0.836 -2.0780 -0.5349 -0.4134
   19MOL   H28917605   4.076   4.639   0.878 -0.0905 -0.3417  0.1792
   19MOL   O29017606   4.372   4.581   0.757 -0.3221 -0.6817 -0.1990
   19MOL   C29117607   4.452   4.498   0.672  0.2001 -0.5094  0.1514
   19MOL   C29217608   4.533   4.396   0.747  0.6841  0.2507 -0.7735
   19MOL   C29317609   4.444   4.304   0.830 -0.1682  0.4360 -0.5960
   19MOL   C29417610   4.347   4.215   0.755  0.1839 -0.5914 -0.6935
   19MOL   C29517611   4.259   4.139   0.851  0.1383 -0.1759 -0.2062
   19MOL   C29617612   4.158   4.224   0.931  0.1630 -0.0970  0.1522
   19MOL   C29717613   4.096   4.157   1.052  0.0813 -0.1077  0.6446
   19MOL   C29817614   4.182   4.150   1.176 -0.3379  0.0681  0.2127
   19MOL   C29917615   4.208   4.284   1.255  0.2738 -0.0757 -0.3239
   19MOL   C30017616   4.272   4.258   1.391  0.4722 -0.2816  0.0764
   19MOL   O30117617   4.291   4.380   1.454  0.0043  0.3762  0.1354
   19MOL   C30217618   4.298   4.384   1.586  0.0892  0.0360 -0.7644
   19MOL   O30317619   4.324   4.286   1.654 -0.1410  0.0625  0.4265
   19MOL   C30417620   4.263   4.519   1.645 -0.8073 -0.1624 -0.4592
   19MOL   C30517621   4.325   4.536   1.788  0.8295  0.3570 -1.0784
   19MOL   C30617622   4.314   4.676   1.842  0.3409 -0.3684 -0.5887
   19MOL   C30717623   4.387   4.780   1.761  0.2920  0.3664  0.4646
   19MOL   C30817624   4.530   4.748   1.744 -0.0932  0.4777  0.0710
   19MOL   O30917625   4.573   4.709   1.637  0.0642 -0.0817 -0.8235
   19MOL   H31017626   4.397   4.447   0.593  0.5090 -0.5968 -0.0078
   19MOL   H31117627   4.526   4.561   0.622  0.1778  0.4377  1.2849
   19MOL   H31217628   4.596   4.468   0.800  0.9106  0.8111 -1.7872
   19MOL   H31317629   4.600   4.339   0.682  1.0508  2.3222 -2.2729
   19MOL   H31417630   4.501   4.241   0.899  0.2828  0.6866 -0.7353
   19MOL   H31517631   4.387   4.368   0.898  1.8999  0.8829  0.7779
   19MOL   H31617632   4.402   4.148   0.689  1.6466  0.8476 -0.9770
   19MOL   H31717633   4.280   4.271   0.690 -0.7085 -0.6420  0.1775
   19MOL   H31817634   4.322   4.094   0.927 -0.1532 -2.9914 -1.5819
   19MOL   H31917635   4.202   4.065   0.795  0.1696 -0.7881  0.5751
   19MOL   H32017636   4.074   4.240   0.864  0.2912  0.0270  0.0199
   19MOL   H32117637   4.186   4.326   0.956 -0.4788 -0.2460  1.4674
   19MOL   H32217638   4.069   4.055   1.027  0.8801  0.5849 -3.3190
   19MOL   H32317639   4.000   4.205   1.069  0.2882  1.0714 -1.4105
   19MOL   H32417640   4.278   4.102   1.155 -0.8701 -1.1126  0.4585
   19MOL   H32517641   4.142   4.082   1.251 -0.7441  0.2774  0.1872
   19MOL   H32617642   4.270   4.357   1.204  4.5136 -1.6141  2.3755
   19MOL   H32717643   4.113   4.328   1.285 -0.9856 -3.4622  0.8981
   19MOL   H32817644   4.364   4.206   1.367  1.3070  1.5101 -0.6381
   19MOL   H32917645   4.209   4.183   1.441  0.3668  0.5400  1.2023
   19MOL   H33017646   4.284   4.595   1.569 -1.3729  0.2423 -0.2117
   19MOL   H33117647   4.155   4.507   1.650 -0.7233 -1.0528 -0.6800
   19MOL   H33217648   4.426   4.496   1.786 -0.2112 -2.3907 -1.2855
   19MOL   H33317649   4.279   4.467   1.859  0.8134  0.6160 -0.8347
   19MOL   H33417650   4.349   4.680   1.946  0.0573  2.1305 -0.5683
   19MOL   H33517651   4.208   4.693   1.855  0.4216 -1.9103  2.5013
   19MOL   H33617652   4.369   4.875   1.812 -1.0018 -0.3528  1.3623
   19MOL   H33717653   4.345   4.790   1.661  0.3117 -1.6298  0.2370
   19MOL   O33817654   4.599   4.760   1.857  0.3745 -0.4167  0.2299
   19MOL   C33917655   4.738   4.715   1.858  0.6945 -0.4113  0.7187
   19MOL   C34017656   4.751   4.561   1.876 -0.9248  0.2269  0.0023
   19MOL   C34117657   4.896   4.524   1.910 -0.4811 -0.4144 -0.1876
   19MOL   C34217658   4.922   4.381   1.930  0.0241  0.0738  0.5295
   19MOL   C34317659   5.070   4.339   1.958  0.0238  0.3553 -0.2092
   19MOL   C34417660   5.071   4.192   1.998  0.1373  0.2407  0.1126
   19MOL   C34517661   5.210   4.153   2.058  0.0867  0.3803  0.5829
   19MOL   C34617662   5.222   4.001   2.063 -0.2652 -0.1466 -0.3259
   19MOL   C34717663   5.362   3.961   2.094  0.3498 -0.2951  0.1135
   19MOL   C34817664   5.352   3.823   2.160  0.3361  0.3608 -1.0019
   19MOL   O34917665   5.291   3.720   2.085  0.2884  0.5037  0.0482
   19MOL   C35017666   5.354   3.659   1.988 -0.8320  0.1879  1.1195
   19MOL   O35117667   5.469   3.671   1.936 -0.3813 -0.3639  0.4553
   19MOL   C35217668   5.259   3.544   1.942 -0.3335  0.2304 -0.0019
   19MOL   C35317669   5.161   3.583   1.827  0.4269 -0.1918 -0.2840
   19MOL   C35417670   5.053   3.674   1.871  0.1406  0.1839 -0.0535
   19MOL   C35517671   4.953   3.714   1.761  0.4556  0.2202  0.1897
   19MOL   C35617672   4.851   3.817   1.803 -0.3874  0.0662  0.9116
   19MOL   O35717673   4.769   3.796   1.894 -0.3999 -0.1691 -0.1392
   19MOL   H35817674   4.780   4.743   1.762  0.2101 -1.5338  0.1702
   19MOL   H35917675   4.793   4.760   1.941  0.2751  1.8615 -0.2118
   19MOL   H36017676   4.722   4.508   1.786  1.9611 -1.6418  0.1182
   19MOL   H36117677   4.679   4.526   1.951 -0.8323 -0.0114 -0.0202
   19MOL   H36217678   4.969   4.567   1.842 -0.9654  0.1960 -0.3228
   19MOL   H36317679   4.920   4.563   2.009  0.6326 -0.9096 -0.2540
   19MOL   H36417680   4.885   4.329   1.841  3.5315 -0.7675 -0.5206
   19MOL   H36517681   4.878   4.344   2.023 -1.5571 -0.0745 -0.2537
   19MOL   H36617682   5.127   4.397   2.031 -1.2393  0.6058  0.5872
   19MOL   H36717683   5.126   4.344   1.865  1.5704  0.7339  0.7233
   19MOL   H36817684   5.043   4.131   1.912 -1.9537 -0.8817  1.5530
   19MOL   H36917685   4.989   4.172   2.067  0.1457 -0.5206 -0.0939
   19MOL   H37017686   5.223   4.191   2.160 -0.3228 -0.6891  1.0365
   19MOL   H37117687   5.292   4.206   2.010  0.2296  0.9964  1.4804
   19MOL   H37217688   5.185   3.956   1.971  1.2871 -1.7878 -0.1697
   19MOL   H37317689   5.152   3.971   2.142 -1.6245 -1.0880 -1.8582
   19MOL   H37417690   5.410   3.945   1.997 -0.2791 -1.6186  0.0133
   19MOL   H37517691   5.412   4.041   2.148 -0.6558 -0.1027  0.7716
   19MOL   H37617692   5.285   3.833   2.246  1.6447  2.8291 -0.2328
   19MOL   H37717693   5.444   3.785   2.205 -1.3155 -1.9953  0.5346
   19MOL   H37817694   5.314   3.453   1.918 -0.2283  0.5433 -0.9448
   19MOL   H37917695   5.203   3.532   2.035  0.7508  1.4226  0.8322
   19MOL   H38017696   5.124   3.493   1.778 -0.9389  1.4440 -2.3457
   19MOL   H38117697   5.214   3.640   1.751 -1.4295  0.0969 -1.3862
   19MOL   H38217698   5.084   3.764   1.923  1.0120 -0.3120  0.2965
   19MOL   H38317699   4.987   3.630   1.945  1.4649  1.0222  1.6470
   19MOL   H38417700   4.893   3.626   1.739  1.1682 -0.1129 -0.4171
   19MOL   H38517701   5.012   3.743   1.675  1.8764 -0.3642  0.9547
   19MOL   O38617702   4.866   3.929   1.729 -0.2081 -0.3775  0.1683
   19MOL   C38717703   4.783   4.044   1.745  0.0161 -0.1117  0.3497
   19MOL   C38817704   4.813   4.147   1.635 -0.3069  0.3832 -0.4670
   19MOL   C38917705   4.686   4.233   1.635  0.4758 -0.9137  0.0043
   19MOL   C39017706   4.691   4.361   1.544  0.2128 -0.4937 -0.3376
   19MOL   C39117707   4.667   4.319   1.397 -0.1057 -1.0290 -0.5184
   19MOL   C39217708   4.659   4.449   1.306 -0.1523  0.3470 -0.0412
   19MOL   C39317709   4.670   4.410   1.156 -0.3765  0.4047 -0.5342
   19MOL   C39417710   4.715   4.532   1.070  0.3061 -0.4330  0.2969
   19MOL   C39517711   4.596   4.615   1.027 -0.7155  0.4442 -0.2722
   19MOL   C39617712   4.638   4.734   0.938 -0.6378 -0.2923  0.0602
   19MOL   O39717713   4.523   4.796   0.883 -0.6722 -0.8226 -0.6085
   19MOL   C39817714   4.531   4.921   0.828  0.2343 -0.6438  0.1995
   19MOL   O39917715   4.635   4.978   0.798 -0.0103  0.2312 -0.1141
   19MOL   C40017716   4.398   4.984   0.796  0.4015  0.5882 -0.2604
   19MOL   C40117717   4.330   5.051   0.909 -0.3631  0.4962 -0.1938
   19MOL   C40217718   4.420   5.151   0.986 -0.5555  0.0335  0.4218
   19MOL   C40317719   4.349   5.221   1.102 -0.5399  0.2545  0.9390
   19MOL   C40417720   4.412   5.353   1.147 -0.1350  0.6239  0.0514
   19MOL   O40517721   4.445   5.367   1.264 -0.2949  0.0134  0.3202
   19MOL   H40617722   4.682   4.005   1.732  1.0344 -2.2908 -1.4422
   19MOL   H40717723   4.801   4.078   1.847  0.6220  2.6778 -0.6558
   19MOL   H40817724   4.822   4.107   1.534 -2.2532  1.4551 -1.1121
   19MOL   H40917725   4.905   4.201   1.656 -1.6695  1.9638  1.8759
   19MOL   H41017726   4.601   4.178   1.594 -1.7592  1.8238  0.8070
   19MOL   H41117727   4.656   4.257   1.737  1.4796 -1.5489  0.4563
   19MOL   H41217728   4.779   4.425   1.553 -0.3829  0.5949 -2.0697
   19MOL   H41317729   4.608   4.424   1.577 -1.6464 -2.2274 -1.5865
   19MOL   H41417730   4.579   4.257   1.382 -1.7852  0.8924  1.0702
   19MOL   H41517731   4.753   4.267   1.355  0.9623  0.6404 -0.4305
   19MOL   H41617732   4.744   4.510   1.339  0.3008 -1.1610  1.6868
   19MOL   H41717733   4.566   4.499   1.334 -0.3256 -1.2107  2.2844
   19MOL   H41817734   4.579   4.362   1.119 -0.8809 -0.5569  1.8589
   19MOL   H41917735   4.744   4.331   1.144 -1.4093 -0.7821  0.7322
   19MOL   H42017736   4.773   4.492   0.987  0.9374  0.4350  0.3073
   19MOL   H42117737   4.780   4.608   1.115 -0.1346 -1.7070  3.2051
   19MOL   H42217738   4.514   4.557   0.984 -0.5008 -0.8214  0.9838
   19MOL   H42317739   4.565   4.664   1.119 -0.6192 -0.4308  0.2321
   19MOL   H42417740   4.682   4.683   0.852 -1.1740  1.2211 -1.1464
   19MOL   H42517741   4.715   4.802   0.973  0.4919 -1.7621  0.4685
   19MOL   H42617742   4.414   5.053   0.713 -0.2954  1.3034  0.2014
   19MOL   H42717743   4.336   4.904   0.757  1.4824 -0.7320  0.6576
   19MOL   H42817744   4.290   4.975   0.976 -0.4713 -0.0911 -0.9166
   19MOL   H42917745   4.241   5.098   0.867 -0.3966 -0.1207 -0.8299
   19MOL   H43017746   4.466   5.225   0.922  0.2856 -0.9430 -0.1169
   19MOL   H43117747   4.501   5.090   1.027  0.9336  0.5643 -1.6687
   19MOL   H43217748   4.346   5.160   1.192 -3.0172 -0.6340  0.2884
   19MOL   H43317749   4.246   5.243   1.074  0.7759  3.3336 -1.9995
   19MOL   O43417750   4.408   5.450   1.051 -0.2275 -0.6374  0.6346
   19MOL   C43517751   4.441   5.587   1.081  0.3700  0.6140 -0.3732
   19MOL   C43617752   4.408   5.676   0.957 -0.0919 -0.5155  0.4448
   19MOL   C43717753   4.494   5.805   0.945  0.1277 -0.3388 -0.0345
   19MOL   C43817754   4.438   5.906   0.840  0.3556 -0.1148  0.0427
   19MOL   C43917755   4.525   6.037   0.832  0.3312 -0.5198 -0.9121
   19MOL   C44017756   4.441   6.143   0.760 -0.4608 -0.1754  0.2957
   19MOL   C44117757   4.510   6.282   0.770 -0.2994 -0.2943 -0.2974
   19MOL   C44217758   4.464   6.379   0.662  0.3014  0.4625  0.1930
   19MOL   C44317759   4.482   6.529   0.691  1.2068 -0.2242  0.1532
   19MOL   C44417760   4.624   6.566   0.693 -0.0872 -0.4379  0.3478
   19MOL   O44517761   4.625   6.709   0.700 -0.1776  0.0000  0.6375
   19MOL   C44617762   4.736   6.779   0.697  0.1015  0.4043 -0.1356
   19MOL   O44717763   4.842   6.730   0.664 -0.1762 -0.0814 -0.2951
   19MOL   C44817764   4.700   6.929   0.718  0.1046 -0.3085  0.2575
   19MOL   C44917765   4.800   6.984   0.823  0.4291 -0.5545  0.2454
   19MOL   C45017766   4.755   7.130   0.854 -0.9810 -0.0344  0.0935
   19MOL   C45117767   4.848   7.211   0.960  0.4757  0.1805  0.6268
   19MOL   C45217768   4.897   7.134   1.081  0.3781  0.6166 -0.0969
   19MOL   O45317769   4.816   7.117   1.174  0.5616 -0.5778  0.6966
   19MOL   H45417770   4.401   5.624   1.174 -0.9174  0.4493 -0.8563
   19MOL   H45517771   4.548   5.603   1.095  0.0052  1.3533  1.6420
   19MOL   H45617772   4.300   5.689   0.944  0.2715  3.2008  0.6657
   19MOL   H45717773   4.422   5.622   0.863 -0.7480 -0.3347  0.2411
   19MOL   H45817774   4.509   5.846   1.045  2.1642 -2.4112  0.5441
   19MOL   H45917775   4.591   5.781   0.904  0.2024  0.8313 -0.5540
   19MOL   H46017776   4.335   5.929   0.869  0.7438 -0.6219  1.9204
   19MOL   H46117777   4.424   5.864   0.741 -0.7641 -2.6040  1.2222
   19MOL   H46217778   4.615   6.006   0.781  0.3195 -0.7480 -0.7957
   19MOL   H46317779   4.542   6.064   0.937 -3.3487 -0.5106 -0.2493
   19MOL   H46417780   4.348   6.154   0.816  0.3584 -1.2597  1.9419
   19MOL   H46517781   4.427   6.110   0.657  0.2255  1.6594 -0.4010
   19MOL   H46617782   4.619   6.272   0.768 -0.2527 -0.0012  0.4487
   19MOL   H46717783   4.476   6.330   0.862 -1.7264 -1.3956 -0.2369
   19MOL   H46817784   4.358   6.357   0.650  0.5118 -0.0842 -0.6849
   19MOL   H46917785   4.500   6.360   0.561 -1.1770  0.0544 -0.2694
   19MOL   H47017786   4.437   6.587   0.610  0.4534 -0.5142  0.3592
   19MOL   H47117787   4.429   6.551   0.784  0.5778  2.2301 -0.7367
   19MOL   H47217788   4.677   6.534   0.603 -1.4976 -0.8396 -0.3475
   19MOL   H47317789   4.673   6.545   0.788 -1.2369 -1.5600  0.7140
   19MOL   H47417790   4.718   6.973   0.620 -1.5625 -1.2874 -0.5080
   19MOL   H47517791   4.597   6.954   0.743  0.1510 -0.7884  0.9282
   19MOL   H47617792   4.897   6.982   0.772 -0.3158  1.2703 -1.3102
   19MOL   H47717793   4.800   6.920   0.911 -1.2764 -2.1829 -0.9019
   19MOL   H47817794   4.653   7.142   0.888 -0.4755  3.0171  0.6807
   19MOL   H47917795   4.762   7.177   0.756 -1.4668 -0.8966 -0.3513
   19MOL   H48017796   4.792   7.302   0.984  0.8139  0.6325 -0.2813
   19MOL   H48117797   4.930   7.256   0.904 -1.7518  3.9795  0.2491
   19MOL   O48217798   5.019   7.086   1.069 -0.3376 -0.1244  0.2875
   19MOL   C48317799   5.080   7.017   1.179 -0.0791  0.1777 -0.4192
   19MOL   C48417800   5.048   6.864   1.177 -0.7144  0.3466  0.1873
   19MOL   C48517801   5.075   6.797   1.045  0.2370  0.2514  0.1504
   19MOL   C48617802   5.071   6.636   1.059  0.2062  0.3489 -0.5897
   19MOL   C48717803   5.036   6.569   0.925 -0.1687 -0.8889  0.5701
   19MOL   C48817804   5.038   6.417   0.945  0.3506 -0.2372  0.1859
   19MOL   C48917805   5.053   6.338   0.815  0.1345 -0.1814  0.1525
   19MOL   C49017806   4.927   6.337   0.727  0.7448  0.3645  0.1236
   19MOL   C49117807   4.952   6.268   0.591 -0.0692  0.8376  0.4769
   19MOL   C49217808   5.063   6.340   0.513 -0.5891  0.1538 -0.8313
   19MOL   O49317809   5.086   6.305   0.379  0.5773 -0.0612  0.5297
   19MOL   C49417810   5.179   6.388   0.312  0.9497 -0.2270 -0.1861
   19MOL   O49517811   5.249   6.481   0.355  0.1244  0.0208  0.2307
   19MOL   C49617812   5.177   6.356   0.165 -0.2276 -0.4492 -0.3773
   19MOL   C49717813   5.116   6.472   0.081  0.4010  0.1607  0.2940
   19MOL   C49817814   5.157   6.482   7.699 -1.0504 -0.3001 -0.1740
   19MOL   C49917815   5.105   6.608   7.625  0.0483  0.6232  0.1280
   19MOL   C50017816   4.957   6.622   7.613 -0.1070 -0.4084 -0.2191
   19MOL   O50117817   4.881   6.528   7.632 -0.0625 -0.0518  0.3214
   19MOL   H50217818   5.185   7.041   1.168  0.4381 -0.8978  1.7764
   19MOL   H50317819   5.049   7.076   1.266 -0.8818  0.5440 -0.9508
   19MOL   H50417820   4.944   6.847   1.205 -1.3849  0.7529 -1.9647
   19MOL   H50517821   5.101   6.812   1.256  0.6203  0.1904 -0.8017
   19MOL   H50617822   5.009   6.825   0.963 -1.3764  0.0061  1.3374
   19MOL   H50717823   5.177   6.824   1.019  0.0210  1.2927  0.3602
   19MOL   H50817824   4.989   6.610   1.127 -0.4987 -1.7623 -2.2066
   19MOL   H50917825   5.166   6.599   1.098 -0.1986  0.5051  0.5913
   19MOL   H51017826   5.096   6.601   0.839 -0.4412  1.0256  1.0771
   19MOL   H51117827   4.934   6.595   0.899  0.3575  0.2610 -0.4372
   19MOL   H51217828   4.949   6.389   1.001  0.8358  2.6881  2.5401
   19MOL   H51317829   5.127   6.396   1.004 -1.5262 -0.0826  3.1721
   19MOL   H51417830   5.091   6.237   0.823 -0.5649 -0.4503  0.0930
   19MOL   H51517831   5.128   6.398   0.763  1.4529 -0.8902  1.2254
   19MOL   H51617832   4.891   6.439   0.720 -0.9972 -0.3134 -0.9940
   19MOL   H51717833   4.852   6.281   0.784  1.9136 -1.8376 -0.4272
   19MOL   H51817834   4.974   6.162   0.608  0.2537  0.8652  0.2426
   19MOL   H51917835   4.863   6.279   0.529  0.6292  2.1315 -0.2947
   19MOL   H52017836   5.159   6.330   0.564 -2.3512 -1.3120  2.3688
   19MOL   H52117837   5.044   6.447   0.514 -3.7149 -0.3511 -1.3748
   19MOL   H52217838   5.281   6.347   0.132 -0.0366  1.7570 -0.4322
   19MOL   H52317839   5.129   6.259   0.153 -1.3824  0.1260 -0.4773
   19MOL   H52417840   5.160   6.564   0.118  1.8666 -1.2078  2.0457
   19MOL   H52517841   5.009   6.481   0.102  0.1032 -0.7995 -0.7674
   19MOL   H52617842   5.112   6.399   7.646 -1.7748 -1.2375  1.8566
   19MOL   H52717843   5.266   6.487   7.698 -1.0536  0.2957  1.0759
   19MOL   H52817844   5.153   6.626   7.529 -0.2999  1.6606  0.1368
   19MOL   H52917845   5.153   6.693   7.675  1.3595  0.2274 -0.4227
   19MOL   O53017846   4.926   6.749   7.591  0.0847  0.1785 -0.3250
   19MOL   C53117847   4.796   6.786   7.568  0.5456 -0.1789  0.2599
   19MOL   C53217848   4.787   6.923   7.504 -0.1930 -0.1415  1.1059
   19MOL   C53317849   4.850   6.935   7.364  0.7677  0.1294  0.5333
   19MOL   C53417850   4.869   7.082   7.318 -0.7617 -0.4962  0.8866
   19MOL   C53517851   4.751   7.173   7.269  0.6248 -0.0612  0.2820
   19MOL   C53617852   4.684   7.109   7.153  0.0632 -0.1753  0.1192
   19MOL   C53717853   4.539   7.135   7.152 -0.4695 -0.1380 -0.0356
   19MOL   C53817854   4.467   7.055   7.045 -0.1492  0.2099 -0.0923
   19MOL   C53917855   4.319   7.080   7.016 -0.1596 -0.1994  0.2780
   19MOL   C54017856   4.269   6.990   6.905  0.2870  0.4611  0.3838
   19MOL   O54117857   4.325   7.033   6.789  0.2886  1.0509  0.0140
   19MOL   C54217858   4.290   6.984   6.675  0.6274  0.1829  0.6286
   19MOL   O54317859   4.182   6.926   6.654  0.1051  0.0959  0.0238
   19MOL   C54417860   4.389   7.009   6.556 -0.3197  0.0983 -0.4008
   19MOL   C54517861   4.364   6.932   6.430  0.2069 -0.4470  0.0336
   19MOL   C54617862   4.457   6.963   6.311  0.7225  0.3308  1.0521
   19MOL   C54717863   4.451   6.862   6.198  0.2971 -0.3295  0.2214
   19MOL   C54817864   4.550   6.901   6.086  0.9251 -0.4716 -0.5087
   19MOL   O54917865   4.619   6.811   6.026  0.2151 -0.3530  0.2803
   19MOL   H55017866   4.743   6.713   7.507  1.5543 -1.1796  0.5563
   19MOL   H55117867   4.737   6.798   7.659 -0.4859  1.8554 -0.6507
   19MOL   H55217868   4.823   6.997   7.576  0.9931 -1.1311  1.5483
   19MOL   H55317869   4.681   6.939   7.481 -0.7282 -0.1664  3.4447
   19MOL   H55417870   4.947   6.886   7.379 -1.5299 -4.3878  1.4515
   19MOL   H55517871   4.790   6.882   7.291  0.7663 -1.2177  1.4922
   19MOL   H55617872   4.935   7.065   7.233 -3.0229 -0.7561 -0.8606
   19MOL   H55717873   4.926   7.148   7.383  0.9719 -0.2110 -0.8653
   19MOL   H55817874   4.786   7.275   7.256  0.6791 -0.1436 -0.2131
   19MOL   H55917875   4.675   7.187   7.346 -0.0072  1.4647 -0.6054
   19MOL   H56017876   4.692   7.000   7.157 -0.4036 -0.2590 -1.1035
   19MOL   H56117877   4.730   7.146   7.062  0.1814  0.3769  0.4052
   19MOL   H56217878   4.521   7.242   7.136  1.6471  0.0769 -1.0566
   19MOL   H56317879   4.499   7.117   7.252  0.8300  1.7085  0.8560
   19MOL   H56417880   4.484   6.950   7.070 -2.4498 -0.2045 -0.1000
   19MOL   H56517881   4.520   7.074   6.951  2.7228  1.4401  1.7242
   19MOL   H56617882   4.259   7.068   7.107 -1.0904 -0.4453 -0.3625
   19MOL   H56717883   4.294   7.184   6.996  0.1028 -0.1858  0.0183
   19MOL   H56817884   4.162   7.012   6.907 -0.4241 -2.3188 -2.8794
   19MOL   H56917885   4.282   6.882   6.915 -3.0374 -0.0216  0.0525
   19MOL   H57017886   4.386   7.116   6.535  0.6641 -0.2392 -2.3624
   19MOL   H57117887   4.494   7.001   6.581 -0.4226 -0.7412 -0.2284
   19MOL   H57217888   4.259   6.941   6.402  0.2557  2.1690  0.4855
   19MOL   H57317889   4.383   6.827   6.451  2.7801 -0.2051 -0.8808
   19MOL   H57417890   4.559   6.965   6.350  0.6778  1.0252  1.1536
   19MOL   H57517891   4.444   7.069   6.286  0.0137 -0.3899 -1.7094
   19MOL   H57617892   4.349   6.836   6.170 -0.6914  2.6427  0.8369
   19MOL   H57717893   4.496   6.771   6.238  2.2508  1.2052  1.5542
   19MOL   O57817894   4.548   7.037   6.058  0.7049 -0.0690 -0.1767
   19MOL   C57917895   4.639   7.075   5.950  0.2553 -0.1783  0.4532
   19MOL   C58017896   4.600   7.215   5.907 -0.6305 -1.1726 -0.4837
   19MOL   C58117897   4.647   7.317   6.012  0.1848 -0.2898 -0.5424
   19MOL   C58217898   4.649   7.465   5.974 -0.4893 -0.6969  0.1577
   19MOL   C58317899   4.741   7.501   5.866 -0.5452 -0.9932  0.5498
   19MOL   C58417900   4.754   7.655   5.840  0.4114  0.0651 -0.3733
   19MOL   C58517901   4.871   7.690   5.753  0.8726  0.5308 -0.2610
   19MOL   C58617902   4.893   0.075   5.727  0.0205  0.5971 -0.5629
   19MOL   C58717903   5.010   0.108   5.641  0.2035 -0.3680  0.2085
   19MOL   C58817904   5.014   0.260   5.628 -0.0142  0.2400 -0.9256
   19MOL   O58917905   5.096   0.279   5.512 -0.0593 -0.4921  0.7188
   19MOL   C59017906   5.090   0.404   5.459 -0.1477 -0.1724 -0.1079
   19MOL   O59117907   5.046   0.503   5.514 -0.1128 -0.3869 -0.2715
   19MOL   C59217908   5.142   0.415   5.319 -0.0230  0.3072 -0.1577
   19MOL   C59317909   5.296   0.401   5.310  0.3940  0.3149  0.7096
   19MOL   C59417910   5.377   0.519   5.350 -0.7513  0.3492  0.4170
   19MOL   C59517911   5.529   0.501   5.312  0.1508 -0.0578 -0.9867
   19MOL   C59617912   5.599   0.385   5.384 -0.8015 -0.7052  0.2327
   19MOL   O59717913   5.667   0.304   5.313 -0.1323 -0.0768  0.3747
   19MOL   H59817914   4.744   7.068   5.979  0.6789 -0.5057 -1.1028
   19MOL   H59917915   4.625   7.012   5.863 -2.6782  0.5210  0.3562
   19MOL   H60017916   4.493   7.216   5.886 -0.2079  0.9101 -2.7578
   19MOL   H60117917   4.646   7.234   5.810  0.7293 -2.1044 -0.0489
   19MOL   H60217918   4.587   7.303   6.102 -1.1137 -2.0616 -1.6560
   19MOL   H60317919   4.751   7.296   6.036  0.0125 -0.5213  0.0239
   19MOL   H60417920   4.675   7.518   6.066  1.8498 -0.0901 -0.8193
   19MOL   H60517921   4.552   7.508   5.947  0.2016  0.3540 -0.6944
   19MOL   H60617922   4.724   7.462   5.765  1.7800  1.3943 -0.8344
   19MOL   H60717923   4.844   7.467   5.879 -0.6678 -1.6206 -0.0984
   19MOL   H60817924   4.763   7.706   5.936  1.3474 -1.0207  0.1199
   19MOL   H60917925   4.668   7.691   5.782  0.2513 -0.1571 -0.2742
   19MOL   H61017926   4.856   7.634   5.661 -0.6471  0.8062 -0.2035
   19MOL   H61117927   4.955   7.639   5.799  1.4396  0.8315 -0.9520
   19MOL   H61217928   4.911   0.129   5.821  1.4766  1.5847 -1.3855
   19MOL   H61317929   4.794   0.102   5.689 -0.8080  1.2249  1.9302
   19MOL   H61417930   5.093   0.070   5.701  1.0968  0.5281 -0.4505
   19MOL   H61517931   5.023   0.049   5.550  0.5394  0.3877 -0.2296
   19MOL   H61617932   5.067   0.299   5.715 -1.8866 -0.7925  0.6870
   19MOL   H61717933   4.917   0.307   5.616 -0.4818 -0.5138 -0.0993
   19MOL   H61817934   5.107   0.331   5.260 -0.1773  0.0667  0.2745
   19MOL   H61917935   5.105   0.509   5.278  0.4903  0.7455  0.3625
   19MOL   H62017936   5.320   0.365   5.210  0.9473  0.8764  0.6371
   19MOL   H62117937   5.333   0.320   5.372  0.7757 -0.9660 -1.1257
   19MOL   H62217938   5.362   0.532   5.457  1.6761 -2.8012  1.2492
   19MOL   H62317939   5.333   0.603   5.296 -2.9237 -0.0734  1.4739
   19MOL   H62417940   5.590   0.581   5.352  0.9863 -0.7684 -0.8232
   19MOL   H62517941   5.547   0.487   5.206 -0.2186 -2.0847 -0.8116
   19MOL   O62617942   5.572   0.366   5.513 -0.0527  0.6854  0.3716
   19MOL   C62717943   5.637   0.259   5.582 -0.5815  0.2436 -0.3294
   19MOL   C62817944   5.605   0.258   5.730 -0.9167  0.1542 -0.3259
   19MOL   C62917945   5.453   0.240   5.752 -0.4043 -0.0128  0.3592
   19MOL   C63017946   5.412   0.230   5.901 -0.0197 -0.6763 -0.1247
   19MOL   C63117947   5.259   0.208   5.926 -0.0725  0.3026 -0.2074
   19MOL   C63217948   5.232   0.172   6.074  0.5401  0.2436  0.2354
   19MOL   C63317949   5.094   0.121   6.098 -0.0529  0.0422 -0.3924
   19MOL   C63417950   5.074   0.083   6.240  0.2867  0.0496 -0.4392
   19MOL   C63517951   4.971   7.731   6.249  0.2736 -0.2820  0.0528
   19MOL   C63617952   4.932   7.696   6.387  0.2213  0.4676 -0.4141
   19MOL   O63717953   4.853   7.578   6.392 -0.0511 -0.1425 -0.0396
   19MOL   C63817954   4.861   7.489   6.489 -1.2845  0.2051  0.0636
   19MOL   O63917955   4.931   7.505   6.593  0.6835 -0.3547 -0.1632
   19MOL   C64017956   4.782   7.364   6.462 -0.2687  0.5187  0.0392
   19MOL   C64117957   4.877   7.243   6.444  0.1557  0.3132  0.6159
   19MOL   C64217958   4.805   7.113   6.408  0.1447  0.1934  0.2787
   19MOL   C64317959   4.902   6.988   6.396  0.1214  1.1279  0.1323
   19MOL   C64417960   4.965   6.955   6.524 -0.3937 -0.0327 -0.2725
   19MOL   O64517961   5.086   6.953   6.536 -0.0337  0.3086  0.1320
   19MOL   H64617962   5.622   0.163   5.533 -0.4746  0.7049 -1.2753
   19MOL   H64717963   5.745   0.263   5.572 -0.6250 -1.5066 -1.7804
   19MOL   H64817964   5.632   0.356   5.768 -0.9185 -0.3088  0.9245
   19MOL   H64917965   5.667   0.184   5.781 -1.2597 -1.9371 -2.8431
   19MOL   H65017966   5.407   0.327   5.705  0.4591  0.9739  1.3113
   19MOL   H65117967   5.430   0.145   5.703  1.8894 -0.6018  0.3801
   19MOL   H65217968   5.443   0.324   5.945  1.5309 -1.3583  0.2549
   19MOL   H65317969   5.472   0.150   5.944  1.4294  1.2163  1.4335
   19MOL   H65417970   5.223   0.131   5.858  0.9847 -1.0515  0.7366
   19MOL   H65517971   5.200   0.292   5.890  0.2598  0.5866 -0.0814
   19MOL   H65617972   5.248   0.268   6.124  1.1201  0.1234  0.2758
   19MOL   H65717973   5.312   0.103   6.100 -0.2308  0.2526  2.7387
   19MOL   H65817974   5.073   0.037   6.031 -2.7401  1.0199 -0.8407
   19MOL   H65917975   5.020   0.186   6.051 -0.8857 -1.8751 -1.8499
   19MOL   H66017976   5.037   0.171   6.293  0.2279 -0.2514  0.0179
   19MOL   H66117977   5.167   0.050   6.286 -0.1591 -0.3771  0.1721
   19MOL   H66217978   4.878   0.002   6.204  1.2038  1.2942 -0.6667
   19MOL   H66317979   4.992   7.636   6.199  0.8575 -0.7081  1.0832
   19MOL   H66417980   4.878   0.018   6.427  0.3969  1.5770 -2.5005
   19MOL   H66517981   5.022   7.677   6.445 -0.6318 -1.9657  0.1429
   19MOL   H66617982   4.707   7.352   6.540 -1.4169 -1.0634 -1.2784
   19MOL   H66717983   4.729   7.374   6.368  0.8015  2.3723 -0.3863
   19MOL   H66817984   4.931   7.223   6.536 -0.6801 -0.9210  0.8402
   19MOL   H66917985   4.941   7.269   6.359 -1.3460 -1.1394 -1.0091
   19MOL   H67017986   4.756   7.117   6.311 -1.3211 -0.1237  0.9896
   19MOL   H67117987   4.734   7.100   6.490 -1.2772  0.4582 -0.8877
   19MOL   H67217988   4.976   7.020   6.323  0.8858  2.0058  1.2788
   19MOL   H67317989   4.860   6.895   6.356 -1.4421  1.2784  1.3863
   19MOL   O67417990   4.876   6.936   6.616 -0.5389  0.4942  0.2581
   19MOL   C67517991   4.915   6.901   6.748 -0.8290  0.1934 -0.2196
   19MOL   C67617992   4.785   6.893   6.825 -0.2725  0.2186 -0.0886
   19MOL   C67717993   4.698   6.775   6.789  0.7863  0.0198 -0.4876
   19MOL   C67817994   4.558   6.764   6.859 -0.7979  0.3016 -0.1462
   19MOL   C67917995   4.478   6.644   6.806 -0.0760  0.0611  0.6153
   19MOL   C68017996   4.411   6.550   6.915  0.1710 -0.2314  0.0536
   19MOL   C68117997   4.354   6.415   6.872  0.1095 -0.3678  0.4192
   19MOL   C68217998   4.322   6.312   6.978  0.3409 -0.4499  0.6604
   19MOL   C68317999   4.198   6.347   7.064 -0.3051 -0.1715  0.1303
   19MOL   C68418000   4.150   6.234   7.157  0.0709 -0.3145  0.1531
   19MOL   O68518001   4.253   6.184   7.235 -0.0888 -0.1958 -0.5746
   19MOL   C68618002   4.249   6.054   7.275 -0.2996 -0.6130 -0.0481
   19MOL   O68718003   4.172   5.966   7.236  0.7146 -0.5615  0.1382
   19MOL   C68818004   4.356   6.023   7.376  0.2071 -0.1138 -0.2995
   19MOL   C68918005   4.343   6.105   7.501  0.5036 -0.1160 -0.1644
   19MOL   C69018006   4.225   6.074   7.595 -0.1086 -0.1130 -0.6094
   19MOL   C69118007   4.162   6.190   7.677 -0.5052 -0.3482  0.3957
   19MOL   C69218008   4.073   6.287   7.602  0.3297  0.8332 -0.3565
   19MOL   O69318009   4.046   6.396   7.651  0.1629 -0.1629  0.3447
   19MOL   H69418010   4.974   6.810   6.735 -0.2693  0.5554 -0.2008
   19MOL   H69518011   4.970   6.982   6.796 -0.3746  1.0585 -2.1626
   19MOL   H69618012   4.723   6.981   6.811 -0.6755 -0.3476 -2.0767
   19MOL   H69718013   4.804   6.891   6.932 -2.2191  1.3819  0.3151
   19MOL   H69818014   4.675   6.774   6.682 -2.9476  0.0306  0.2409
   19MOL   H69918015   4.759   6.688   6.814  1.6906  0.5717 -0.7510
   19MOL   H70018016   4.501   6.857   6.862  0.1175  0.8432  0.6441
   19MOL   H70118017   4.580   6.736   6.962  0.7319  1.3307 -0.1808
   19MOL   H70218018   4.543   6.581   6.745 -1.3339 -1.7266  1.0979
   19MOL   H70318019   4.390   6.676   6.750 -0.3559 -0.9100  0.4970
   19MOL   H70418020   4.339   6.616   6.962 -0.4481 -0.3661 -0.7174
   19MOL   H70518021   4.483   6.518   6.992 -2.8436  0.7844  3.4164
   19MOL   H70618022   4.424   6.363   6.808 -1.3678 -2.5465  0.5353
   19MOL   H70718023   4.267   6.440   6.811  1.3783  4.5893  0.4122
   19MOL   H70818024   4.410   6.296   7.041  1.6342 -0.6392 -1.1448
   19MOL   H70918025   4.311   6.217   6.926  1.7002  0.0797 -0.6381
   19MOL   H71018026   4.213   6.437   7.123 -1.2798 -0.3728  0.6826
   19MOL   H71118027   4.113   6.376   7.003  0.9594  1.8253 -0.7208
   19MOL   H71218028   4.090   6.154   7.113 -2.8852  0.7110  2.1762
   19MOL   H71318029   4.078   6.283   7.222  0.0427  2.7956 -2.1216
   19MOL   H71418030   4.340   5.922   7.414 -0.3486  0.7805  1.8932
   19MOL   H71518031   4.453   6.041   7.329  0.7110  1.5773  1.3713
   19MOL   H71618032   4.315   6.205   7.466  0.5287 -0.2285 -0.5023
   19MOL   H71718033   4.440   6.120   7.548 -0.3624  1.0696  1.3283
   19MOL   H71818034   4.261   5.998   7.665 -0.9833 -0.8284 -0.9225
   19MOL   H71918035   4.150   6.022   7.536  1.5127  0.2106 -3.0238
   19MOL   H72018036   4.244   6.243   7.727 -0.0598  0.0927 -0.7727
   19MOL   H72118037   4.097   6.131   7.740  1.8094 -1.8100  1.4814
   19MOL   O72218038   4.024   6.232   7.495 -0.2912 -0.5174 -0.0486
   19MOL   C72318039   3.912   6.281   7.437  0.0627  0.4498 -0.1856
   19MOL   C72418040   3.843   6.182   7.346  0.1161 -0.3523 -0.1043
   19MOL   C72518041   3.761   6.071   7.421  0.0479 -0.2697 -0.5209
   19MOL   C72618042   3.613   6.066   7.379  0.1272  0.4997 -0.2139
   19MOL   C72718043   3.558   5.927   7.401 -0.0725  0.3133  0.0187
   19MOL   C72818044   3.414   5.922   7.350  0.1157 -0.6075 -0.3332
   19MOL   C72918045   3.412   5.932   7.196  0.1801  0.0120 -0.1014
   19MOL   C73018046   3.276   5.892   7.135 -0.2561 -0.2919 -0.0034
   19MOL   C73118047   3.276   5.902   6.981  0.5775  0.1728 -0.1176
   19MOL   C73218048   3.154   5.828   6.928  0.3337 -0.3613  0.5542
   19MOL   O73318049   3.046   5.919   6.918  0.2912  0.1921  0.0595
   19MOL   C73418050   2.922   5.874   6.933 -0.6576  0.0702  0.1152
   19MOL   O73518051   2.882   5.761   6.945  0.3484  0.6846  0.5267
   19MOL   C73618052   2.822   5.983   6.938  0.5790 -0.3744  0.6551
   19MOL   C73718053   2.837   6.068   7.070 -0.2990 -0.0827  0.3059
   19MOL   C73818054   2.737   6.185   7.061 -0.9606 -0.2334 -0.0912
   19MOL   C73918055   2.765   6.298   7.157  0.4250  0.2836  0.1685
   19MOL   C74018056   2.637   6.379   7.200  0.1974  0.5475  0.2285
   19MOL   O74118057   2.536   6.386   7.128  0.7135  0.2163  0.1080
   19MOL   H74218058   3.834   6.296   7.512 -0.0455 -0.8499 -0.0326
   19MOL   H74318059   3.931   6.380   7.395  2.2396  0.9807  1.9540
   19MOL   H74418060   3.906   6.143   7.266 -2.9160 -2.6859 -1.4557
   19MOL   H74518061   3.768   6.242   7.296 -1.1912 -1.1203  0.9071
   19MOL   H74618062   3.809   5.974   7.403 -2.4106 -1.2035 -2.2853
   19MOL   H74718063   3.773   6.084   7.529 -1.3596  2.0373 -0.6145
   19MOL   H74818064   3.597   6.091   7.274 -1.3206 -0.9260 -0.3737
   19MOL   H74918065   3.561   6.142   7.438  3.3506 -0.4085  4.0553
   19MOL   H75018066   3.553   5.900   7.507 -2.3724 -0.0764 -0.1674
   19MOL   H75118067   3.621   5.853   7.353  1.2231  0.7295  1.0349
   19MOL   H75218068   3.352   5.995   7.401  0.5247 -0.5694  0.1087
   19MOL   H75318069   3.382   5.821   7.375 -0.5964 -0.0481  1.0318
   19MOL   H75418070   3.493   5.871   7.156 -0.4405  1.5997 -3.9603
   19MOL   H75518071   3.434   6.032   7.157  3.4490 -1.6579 -2.8011
   19MOL   H75618072   3.196   5.954   7.175 -1.3562 -1.0245 -1.0037
   19MOL   H75718073   3.263   5.790   7.170  1.8689  0.0885  1.9497
   19MOL   H75818074   3.282   6.004   6.943 -0.1627  0.5441  0.7515
   19MOL   H75918075   3.364   5.854   6.938 -0.7604 -0.2457 -2.4901
   19MOL   H76018076   3.124   5.748   6.995 -1.8904  1.0809  1.3684
   19MOL   H76118077   3.169   5.770   6.838 -0.7716  2.5057 -1.5677
   19MOL   H76218078   2.832   6.047   6.850 -2.1988 -0.2403  0.3862
   19MOL   H76318079   2.721   5.943   6.925 -0.0298  1.3693 -0.2309
   19MOL   H76418080   2.938   6.108   7.082  0.3585 -1.5812 -0.1222
   19MOL   H76518081   2.819   6.007   7.159  1.3355 -1.1212 -0.0556
   19MOL   H76618082   2.637   6.151   7.089 -1.0550 -0.9261 -1.2623
   19MOL   H76718083   2.725   6.224   6.960 -0.5098  0.4559  0.1245
   19MOL   H76818084   2.833   6.362   7.101  0.9059 -0.3490  0.0346
   19MOL   H76918085   2.816   6.262   7.246  1.0480  0.4907 -0.1069
   19MOL   O77018086   2.656   6.437   7.320  0.3760 -0.5013 -0.4585
   19MOL   C77118087   2.549   6.513   7.382 -0.2463 -0.4541  0.3371
   19MOL   C77218088   2.623   6.632   7.455 -0.1435 -0.4354  0.5960
   19MOL   C77318089   2.520   6.733   7.501  0.6986  0.4588  0.3863
   19MOL   C77418090   2.586   6.866   7.544  0.0149  0.8340 -0.4569
   19MOL   C77518091   2.716   6.849   7.631  0.7025  0.0431  1.0100
   19MOL   C77618092   2.780   6.986   7.668  0.4259 -0.1390 -0.6611
   19MOL   C77718093   2.898   6.976   0.003  0.0248 -0.2426 -0.7565
   19MOL   C77818094   2.861   6.900   0.136  0.2752  0.3577  0.0610
   19MOL   C77918095   2.985   6.904   0.229 -0.4118 -0.6326 -0.2500
   19MOL   C78018096   2.953   6.845   0.361  0.5736  0.4582 -0.3559
   19MOL   O78118097   2.875   6.935   0.444 -0.5270  0.6814 -0.4553
   19MOL   C78218098   2.943   7.036   0.495 -0.0598  0.0562  0.2393
   19MOL   O78318099   3.059   7.067   0.473 -0.3327  0.1619 -0.6584
   19MOL   C78418100   2.858   7.121   0.599 -0.2132 -0.5333 -0.7829
   19MOL   C78518101   2.856   7.054   0.740 -0.5049 -0.0724 -0.2117
   19MOL   C78618102   2.812   7.150   0.853 -0.4236  0.5240 -0.0085
   19MOL   C78718103   2.789   7.073   0.982 -0.4022 -0.1022  0.0599
   19MOL   C78818104   2.768   7.164   1.102  0.1932  0.0972 -0.4172
   19MOL   O78918105   2.662   7.221   1.125 -0.0036  0.2632  0.2624
   19MOL   H79018106   2.470   6.547   7.314 -1.0064 -0.1977  1.3285
   19MOL   H79118107   2.504   6.453   7.462  0.1796 -0.1187  0.8331
   19MOL   H79218108   2.693   6.674   7.383  1.3776 -1.1547  1.6130
   19MOL   H79318109   2.699   6.604   7.528 -1.1209  0.8696  2.1365
   19MOL   H79418110   2.459   6.749   7.412  1.7630  0.3364 -0.3882
   19MOL   H79518111   2.463   6.686   7.581  1.1272 -0.8714 -0.0700
   19MOL   H79618112   2.511   6.922   7.600 -0.3587 -0.3087  0.1937
   19MOL   H79718113   2.611   6.929   7.458  0.0190  0.2837 -0.8620
   19MOL   H79818114   2.795   6.803   7.572 -0.5419 -2.7512  1.4063
   19MOL   H79918115   2.710   6.783   7.718 -1.1118 -1.2390 -0.0558
   19MOL   H80018116   2.695   7.041   7.708  0.3595 -0.3727 -0.4787
   19MOL   H80118117   2.819   7.036   7.580  1.0250  0.2541 -0.1820
   19MOL   H80218118   2.932   7.076   0.030 -0.0518  0.0618 -1.7978
   19MOL   H80318119   2.968   6.923   7.704  1.5578  0.3739  0.3879
   19MOL   H80418120   2.827   6.797   0.133  1.2973  0.0204 -0.3640
   19MOL   H80518121   2.782   6.949   0.192  0.1676  0.1349  0.1042
   19MOL   H80618122   3.063   6.834   0.200  0.2761  0.5912 -1.4090
   19MOL   H80718123   3.024   7.006   0.230 -0.4732 -0.6154  1.2666
   19MOL   H80818124   3.047   6.809   0.402  1.4043  0.5081 -2.1979
   19MOL   H80918125   2.894   6.754   0.348  2.5073 -1.1770  1.8946
   19MOL   H81018126   2.912   7.214   0.617  0.2413 -1.0557  0.6101
   19MOL   H81118127   2.762   7.139   0.550 -0.6668 -0.3739  0.1583
   19MOL   H81218128   2.957   7.018   0.763 -0.3152 -0.9465 -2.2434
   19MOL   H81318129   2.778   6.979   0.727  0.0804 -0.5501 -1.0681
   19MOL   H81418130   2.731   7.208   0.809  0.4297  1.0029 -0.9610
   19MOL   H81518131   2.886   7.228   0.870 -0.2425  0.4572 -0.4700
   19MOL   H81618132   2.867   6.997   0.984  1.0765  1.3272 -1.4502
   19MOL   H81718133   2.701   7.010   0.973 -0.3479 -0.1098 -0.4427
   19MOL   O81818134   2.870   7.153   1.185  0.1788 -0.3344 -0.8222
   19MOL   C81918135   2.863   7.205   1.312 -0.5372 -0.1164  0.2191
   19MOL   C82018136   2.988   7.161   1.382  0.2040  0.6204  0.1366
   19MOL   C82118137   2.993   7.215   1.531  0.2390  0.2753  0.1554
   19MOL   C82218138   3.091   7.132   1.614 -0.4717 -0.0792  0.1632
   19MOL   C82318139   3.128   7.209   1.746  1.3103 -0.0038 -0.2698
   19MOL   C82418140   3.019   7.286   1.832 -0.2118 -0.3937 -0.5737
   19MOL   C82518141   2.903   7.199   1.888 -0.5146 -0.0157  0.2057
   19MOL   C82618142   2.784   7.288   1.927 -0.1445  0.0404  0.2849
   19MOL   C82718143   2.794   7.338   2.072 -0.2047 -0.1728 -0.0755
   19MOL   C82818144   2.678   7.426   2.113 -0.6254  0.5239  0.0761
   19MOL   O82918145   2.699   7.485   2.240 -0.0003  0.1837  0.1637
   19MOL   C83018146   2.597   7.479   2.330  0.1904 -0.1245 -0.7757
   19MOL   O83118147   2.481   7.443   2.308 -0.0122 -0.1517  0.4164
   19MOL   C83218148   2.639   7.507   2.474 -0.6567  0.0402 -0.3899
   19MOL   C83318149   2.787   7.479   2.511  0.6362  0.1232  0.1165
   19MOL   C83418150   2.905   7.575   2.464  0.0796 -0.0385 -0.1793
   19MOL   C83518151   3.046   7.521   2.482  0.3664  0.1203 -0.3323
   19MOL   C83618152   3.092   7.421   2.370  0.4906 -0.2598 -0.2913
   19MOL   O83718153   3.018   7.330   2.340 -0.5770  0.1316 -1.0116
   19MOL   H83818154   2.874   7.313   1.311  1.3589 -0.2874 -0.5304
   19MOL   H83918155   2.768   7.182   1.359 -0.7811  0.4012 -0.0193
   19MOL   H84018156   3.076   7.198   1.330  0.9805 -2.6638 -1.0010
   19MOL   H84118157   2.991   7.052   1.382  1.5258  0.6058 -2.3745
   19MOL   H84218158   3.026   7.318   1.520  1.4514  0.0727  1.8321
   19MOL   H84318159   2.894   7.221   1.576 -0.3582  0.4144 -1.1449
   19MOL   H84418160   3.186   7.116   1.563 -0.0090 -0.6922  1.2155
   19MOL   H84518161   3.056   7.035   1.647 -0.6346  0.3884  1.4030
   19MOL   H84618162   3.206   7.280   1.716 -0.0489  0.7005 -2.1944
   19MOL   H84718163   3.186   7.140   1.807 -1.8552 -4.4371 -2.0295
   19MOL   H84818164   2.972   7.363   1.770  1.7473 -1.1852 -3.0989
   19MOL   H84918165   3.070   7.332   1.916 -0.7816 -0.1171 -0.3773
   19MOL   H85018166   2.933   7.139   1.974 -1.9947  1.4014  1.7726
   19MOL   H85118167   2.880   7.130   1.807  0.7582 -1.2182  0.8560
   19MOL   H85218168   2.696   7.225   1.927 -1.0481  1.2241 -2.3664
   19MOL   H85318169   2.765   7.375   1.863 -1.2763  0.7785  1.5952
   19MOL   H85418170   2.787   7.253   2.140 -0.4965  0.7226  1.0282
   19MOL   H85518171   2.885   7.396   2.087 -2.0852  2.8987 -0.0991
   19MOL   H85618172   2.589   7.365   2.103 -0.0841  0.0412 -1.8528
   19MOL   H85718173   2.678   7.516   2.052 -1.0964 -0.2112 -1.0048
   19MOL   H85818174   2.631   7.613   2.498  1.2325  0.1986 -0.4177
   19MOL   H85918175   2.568   7.454   2.538 -0.6164  0.5030  0.0364
   19MOL   H86018176   2.821   7.377   2.495 -1.5159 -0.5787 -0.0534
   19MOL   H86118177   2.787   7.479   2.620  0.8096 -2.5367  0.1461
   19MOL   H86218178   2.910   7.673   2.512  1.8783 -0.4007  0.4101
   19MOL   H86318179   2.905   7.591   2.356  2.1411 -0.5382 -0.2688
   19MOL   H86418180   3.044   7.467   2.576  0.7897  0.9267  0.1460
   19MOL   H86518181   3.120   7.601   2.479 -0.1162  0.5539 -0.7606
   19MOL   O86618182   3.203   7.461   2.304 -0.3870  0.0527 -0.4558
   19MOL   C86718183   3.228   7.406   2.172 -0.1917  0.5625 -0.1699
   19MOL   C86818184   3.359   7.457   2.115  0.0575  0.4670 -0.4392
   19MOL   C86918185   3.405   7.389   1.976 -0.5652  0.0477  0.4043
   19MOL   C87018186   3.551   7.424   1.926  0.2296  0.1042  0.0414
   19MOL   C87118187   3.662   7.359   2.008 -0.3884  0.8180 -0.3891
   19MOL   C87218188   3.799   7.402   1.953  0.7936 -0.2629  0.2752
   19MOL   C87318189   3.916   7.340   2.031 -0.2429 -0.1481 -0.1858
   19MOL   C87418190   4.059   7.379   1.989  1.0015 -0.3425  0.6563
   19MOL   C87518191   4.104   7.527   2.015  0.3990  0.3456 -0.2134
   19MOL   C87618192   4.255   7.558   2.001 -0.2444  0.6700  0.6309
   19MOL   O87718193   4.296   7.694   1.965  0.1028 -0.2947 -0.1725
   19MOL   C87818194   4.322   0.022   2.050  0.0030 -0.3630 -0.3075
   19MOL   O87918195   4.340   0.006   2.174  0.2613  0.1174 -0.1668
   19MOL   C88018196   4.358   0.152   1.988 -0.7295  0.0817  0.1718
   19MOL   C88118197   4.490   0.147   1.914 -0.1560  0.4259  0.7416
   19MOL   C88218198   4.515   0.271   1.827 -0.7523 -0.5939 -0.1246
   19MOL   C88318199   4.655   0.278   1.776  0.3314 -0.3362  0.2340
   19MOL   C88418200   4.688   0.202   1.646 -0.0432 -0.0277  0.4689
   19MOL   O88518201   4.794   0.142   1.638 -0.2051 -0.2513  0.1854
   19MOL   H88618202   3.234   7.298   2.165  0.7013  0.6005 -0.0675
   19MOL   H88718203   3.145   7.454   2.120 -0.6184 -0.0079 -0.0221
   19MOL   H88818204   3.430   7.430   2.193  0.5547  0.1222 -1.0141
   19MOL   H88918205   3.352   7.566   2.106 -2.3913  0.2875 -1.0264
   19MOL   H89018206   3.393   7.281   1.985  2.8157 -0.3194  1.0986
   19MOL   H89118207   3.328   7.425   1.909  0.9518 -0.2076 -1.5233
   19MOL   H89218208   3.568   7.530   1.945  1.2590 -0.1665  0.6788
   19MOL   H89318209   3.562   7.393   1.822  1.7476 -1.4593  0.6507
   19MOL   H89418210   3.655   7.251   2.005 -1.3856  0.8871 -0.6627
   19MOL   H89518211   3.641   7.384   2.112  1.2826  1.4810 -0.1808
   19MOL   H89618212   3.818   7.509   1.947 -1.5511  0.1676 -0.1597
   19MOL   H89718213   3.803   7.365   1.851 -0.5161 -0.3879  0.2544
   19MOL   H89818214   3.916   7.231   2.038  2.5807 -0.1710  0.2437
   19MOL   H89918215   3.903   7.360   2.137 -0.5180 -1.3868  0.0243
   19MOL   H90018216   4.073   7.340   1.889 -1.0938  1.4739 -0.3833
   19MOL   H90118217   4.124   7.311   2.045  0.8465  0.2312  1.5381
   19MOL   H90218218   4.063   7.590   1.936  0.4203  0.1719 -0.3616
   19MOL   H90318219   4.070   7.570   2.110 -0.6841 -1.6384  0.3234
   19MOL   H90418220   4.290   7.497   1.918 -2.8048 -0.6433  0.4767
   19MOL   H90518221   4.313   7.524   2.087 -0.2079  2.0925  1.1786
   19MOL   H90618222   4.275   0.153   1.917  1.5173  1.0588 -2.5719
   19MOL   H90718223   4.355   0.234   2.059 -1.2571 -0.7979  1.1869
   19MOL   H90818224   4.483   0.054   1.858  1.2979  0.0674  1.1472
   19MOL   H90918225   4.575   0.139   1.981  0.5772 -1.3149 -0.3556
   19MOL   H91018226   4.495   0.359   1.888  0.9385 -0.7800  0.7442
   19MOL   H91118227   4.443   0.266   1.746  1.0194 -2.6658 -1.6343
   19MOL   H91218228   4.724   0.237   1.849  0.6635  1.2029  0.8116
   19MOL   H91318229   4.679   0.383   1.758  0.7621 -0.4622  0.0539
   19MOL   O91418230   4.597   0.223   1.548 -0.1043  0.1813  0.4451
   19MOL   C91518231   4.615   0.171   1.418  0.0410 -0.0627 -0.3151
   19MOL   C91618232   4.473   0.120   1.365 -0.3436  0.2827  0.0268
   19MOL   C91718233   4.397   0.234   1.304  0.1260  0.5019 -0.1037
   19MOL   C91818234   4.248   0.202   1.276 -0.1639  0.1923 -0.0292
   19MOL   C91918235   4.205   0.079   1.198 -0.2271  0.2326 -0.0507
   19MOL   C92018236   4.047   0.061   1.201  0.4810  1.0962 -0.2840
   19MOL   C92118237   4.000   7.695   1.129 -0.1279 -0.0602 -0.2033
   19MOL   C92218238   3.851   7.676   1.110  1.0719 -0.2907  0.3081
   19MOL   C92318239   3.826   7.529   1.083 -0.0875 -1.0968 -0.1166
   19MOL   C92418240   3.679   7.493   1.078  0.1097  0.4869 -0.3851
   19MOL   O92518241   3.605   7.558   0.976 -0.2919 -0.0988 -0.2474
   19MOL   C92618242   3.609   7.504   0.848 -0.3041 -0.6568 -0.4028
   19MOL   O92718243   3.661   7.404   0.814  0.2505  0.2106  0.0633
   19MOL   C92818244   3.547   7.601   0.745 -0.6119 -0.9137 -0.7714
   19MOL   C92918245   3.406   7.646   0.774 -1.2892 -0.5658 -0.8433
   19MOL   C93018246   3.296   7.534   0.777  0.8002 -0.0604  0.4354
   19MOL   C93118247   3.293   7.463   0.640  0.8132 -0.5994 -0.9494
   19MOL   C93218248   3.164   7.383   0.623  0.0501 -0.8527  0.3526
   19MOL   O93318249   3.093   7.345   0.719 -0.2270  0.3881 -0.1552
   19MOL   H93418250   4.656   0.247   1.350 -0.6456 -0.2940 -0.9950
   19MOL   H93518251   4.680   0.084   1.414  2.9104  1.9934 -0.6960
   19MOL   H93618252   4.413   0.060   1.433  0.6135 -0.2910  0.3731
   19MOL   H93718253   4.482   0.039   1.292 -1.5656  0.5658 -0.4404
   19MOL   H93818254   4.394   0.325   1.363 -0.3793  0.5120 -0.1422
   19MOL   H93918255   4.437   0.259   1.206 -2.8719  1.1234 -1.2256
   19MOL   H94018256   4.222   0.295   1.226  1.4349  1.2093  0.9980
   19MOL   H94118257   4.196   0.203   1.372  0.4038 -1.3466  0.3040
   19MOL   H94218258   4.241   7.751   1.244  1.5901  0.8744 -0.1363
   19MOL   H94318259   4.250   0.094   1.100 -0.4216  1.5596  0.0480
   19MOL   H94418260   4.011   0.149   1.149  1.8053  1.5735 -0.4080
   19MOL   H94518261   4.009   0.063   1.304 -0.2073  1.1816 -0.5348
   19MOL   H94618262   4.041   7.613   1.189 -1.2771  0.5988  1.5341
   19MOL   H94718263   4.055   7.709   1.036 -1.4202  0.5462 -0.8976
   19MOL   H94818264   3.809   7.740   1.032 -0.6054 -0.0733  1.3781
   19MOL   H94918265   3.808   7.702   1.206 -2.3998 -0.4219 -1.1530
   19MOL   H95018266   3.858   7.515   0.980 -1.8861  0.7742 -0.9706
   19MOL   H95118267   3.883   7.459   1.144  2.3303 -1.6543 -2.8772
   19MOL   H95218268   3.637   7.510   1.177  1.7696  3.4520 -0.1372
   19MOL   H95318269   3.674   7.386   1.060  1.4018  0.3366  0.1140
   19MOL   H95418270   3.610   7.690   0.750 -1.8793 -0.0354 -0.2601
   19MOL   H95518271   3.560   7.557   0.645  0.9729  0.8703 -1.3694
   19MOL   H95618272   3.386   7.716   0.693  0.6859 -1.0671 -1.7745
   19MOL   H95718273   3.400   7.703   0.867 -1.2452  1.0461 -1.8162
   19MOL   H95818274   3.200   7.583   0.791  1.2956  1.0766 -0.1241
   19MOL   H95918275   3.323   7.466   0.858 -1.8410 -0.5866  0.9105
   19MOL   H96018276   3.361   7.379   0.655 -0.6752 -1.6671 -0.0997
   19MOL   H96118277   3.320   7.514   0.548 -2.7234  1.2967 -1.0354
   19MOL   H96218278   3.140   7.347   0.523  0.8663 -0.0161 -0.1462
   20MOL     O118279   0.496   0.475   2.268  0.0618  0.6052 -0.1230
   20MOL     C218280   0.449   0.419   2.390 -0.2102 -0.3147 -0.3476
   20MOL     C318281   0.349   0.304   2.362 -0.2331 -0.4484 -0.1488
   20MOL     C418282   0.213   0.359   2.323  0.3270  0.1053 -0.2646
   20MOL     C518283   0.109   0.245   2.297 -0.2121 -0.1457 -0.2559
   20MOL     C618284   7.740   0.316   2.265  0.6628 -0.3600 -0.8113
   20MOL     C718285   7.609   0.237   2.244 -0.0093 -0.3104  0.1292
   20MOL     C818286   7.619   0.177   2.106  1.0479  0.0250 -0.0430
   20MOL     C918287   7.475   0.140   2.052  0.4636  0.2508 -0.1298
   20MOL    C1018288   7.466   0.085   1.909  0.3677  0.5063 -0.0506
   20MOL    C1118289   7.358   7.739   1.903  0.0903  0.2796 -0.1100
   20MOL    O1218290   7.325   7.727   1.761 -0.6061  0.5807  0.1691
   20MOL    C1318291   7.410   7.669   1.674 -0.0405  0.5080 -0.0309
   20MOL    O1418292   7.515   7.610   1.707  0.0193 -0.2508  0.3323
   20MOL    C1518293   7.352   7.658   1.529 -0.5500  0.5888  0.7048
   20MOL    C1618294   7.456   7.637   1.414 -0.2882 -0.4995 -0.6485
   20MOL    C1718295   7.408   7.532   1.312  0.0592 -0.4131  0.0694
   20MOL    C1818296   7.278   7.560   1.241 -0.2723  0.4796  0.1462
   20MOL    C1918297   7.275   7.679   1.149 -0.6332  0.1388  0.5087
   20MOL    O2018298   7.372   7.719   1.090 -0.2327 -0.0041 -0.1429
   20MOL    H2118299   0.542   0.384   2.434 -0.7653 -1.6901 -0.2540
   20MOL    H2218300   0.412   0.495   2.459 -0.5845  0.0818 -0.9794
   20MOL    H2318301   0.344   0.236   2.446  0.4984 -0.1591  0.1342
   20MOL    H2418302   0.378   0.229   2.289 -0.6629  0.8124 -1.6561
   20MOL    H2518303   0.183   0.421   2.407  2.4661 -1.1447  1.4586
   20MOL    H2618304   0.212   0.418   2.231  0.0451  2.0971  0.9915
   20MOL    H2718305   0.085   0.192   2.389 -3.0672  1.2125 -0.1423
   20MOL    H2818306   0.144   0.175   2.221  1.5878 -0.3818  0.7612
   20MOL    H2918307   7.754   0.377   2.176 -0.5548  0.0235 -0.7457
   20MOL    H3018308   7.717   0.383   2.348  2.5780 -2.0776  1.1836
   20MOL    H3118309   7.525   0.306   2.236  2.8802  3.3087 -0.3385
   20MOL    H3218310   7.586   0.165   2.322  0.3203 -2.9218 -2.0768
   20MOL    H3318311   7.678   0.085   2.099 -0.3783 -0.8268 -1.2723
   20MOL    H3418312   7.656   0.251   2.035  0.0916  0.8880  0.3585
   20MOL    H3518313   7.402   0.220   2.066 -1.5408 -1.1579 -2.1114
   20MOL    H3618314   7.422   0.065   2.110  1.0359  0.7046  0.9834
   20MOL    H3718315   7.465   0.158   1.828 -0.2442  0.6182  0.0538
   20MOL    H3818316   7.555   0.022   1.900 -0.4795 -0.5664 -0.9727
   20MOL    H3918317   7.265   0.012   1.947 -0.4405 -2.2179  0.9740
   20MOL    H4018318   7.385   7.644   1.949  1.9875 -0.0179 -1.7463
   20MOL    H4118319   7.284   7.573   1.530  1.4205 -1.0217  0.2457
   20MOL    H4218320   7.289   7.740   1.492 -0.6206 -0.4451 -1.5672
   20MOL    H4318321   7.548   7.601   1.460 -0.4941  0.4962  0.5723
   20MOL    H4418322   7.464   7.731   1.360 -0.2977  0.3901  0.8597
   20MOL    H4518323   7.407   7.434   1.360  2.2961 -0.0358  0.9398
   20MOL    H4618324   7.489   7.515   1.242  0.4511 -1.5866  0.7838
   20MOL    H4718325   7.192   7.566   1.308 -0.5246  0.0249 -0.1312
   20MOL    H4818326   7.257   7.471   1.182  0.0936  0.1940  0.4459
   20MOL    H4918327   0.418   0.522   2.243 -1.7988 -0.8883  2.5796
   20MOL    O5018328   7.163   7.743   1.150  0.1193 -0.5627 -0.5155
   20MOL    C5118329   7.159   0.112   1.091  0.5896 -0.3810 -0.0101
   20MOL    C5218330   7.207   0.219   1.182  0.0337 -0.2679 -0.3787
   20MOL    C5318331   7.143   0.210   1.318  0.3577 -0.0071  0.3891
   20MOL    C5418332   7.212   0.287   1.432 -0.4720  0.3592  0.1561
   20MOL    C5518333   7.126   0.325   1.554  0.4801 -0.1819 -0.7891
   20MOL    C5618334   7.195   0.420   1.660 -0.8678 -0.0511 -0.4190
   20MOL    C5718335   7.307   0.361   1.740 -0.6895  0.1432  0.2308
   20MOL    C5818336   7.384   0.457   1.831 -0.2105 -0.8188 -0.2575
   20MOL    C5918337   7.317   0.500   1.959  0.0577  0.4076 -0.2452
   20MOL    C6018338   7.398   0.595   2.056 -0.2910 -0.8639 -0.7202
   20MOL    O6118339   7.386   0.729   2.016 -0.2228 -0.1175  0.3764
   20MOL    C6218340   7.313   0.818   2.083  0.0957  0.8481  0.5396
   20MOL    O6318341   7.244   0.791   2.177 -0.0140  0.6234 -0.0280
   20MOL    C6418342   7.313   0.956   2.011 -0.2685 -0.5308 -0.3787
   20MOL    C6518343   7.191   0.983   1.915 -0.4282 -0.3515 -0.2976
   20MOL    C6618344   7.197   0.896   1.784 -0.0306 -0.1178 -0.4721
   20MOL    C6718345   7.083   0.927   1.693  0.2499 -0.0813  0.5946
   20MOL    C6818346   7.105   1.073   1.635  0.1984 -0.4047  0.3970
   20MOL    O6918347   7.193   1.086   1.544  0.0562  0.1482 -0.9346
   20MOL    H7018348   7.222   0.124   1.003 -0.3903  0.8466 -0.5396
   20MOL    H7118349   7.057   0.143   1.070 -0.1146 -1.6418  1.4125
   20MOL    H7218350   7.191   0.316   1.135 -0.0899 -1.6218 -3.2252
   20MOL    H7318351   7.315   0.216   1.197 -0.5117 -1.3097  3.9241
   20MOL    H7418352   7.040   0.244   1.307  0.2759 -0.3885 -0.0014
   20MOL    H7518353   7.135   0.106   1.348  3.2069 -0.9681 -1.9507
   20MOL    H7618354   7.259   0.379   1.397 -0.0396  0.4878  1.0623
   20MOL    H7718355   7.298   0.234   1.472  0.7264  1.4138 -0.9774
   20MOL    H7818356   7.085   0.234   1.597  0.7092 -0.0063 -0.1943
   20MOL    H7918357   7.041   0.383   1.520 -0.9790 -1.1232  1.1727
   20MOL    H8018358   7.125   0.442   1.741 -1.1666  0.1817 -0.7404
   20MOL    H8118359   7.222   0.516   1.617  1.1598 -0.4080  0.0118
   20MOL    H8218360   7.377   0.324   1.665  0.5572  1.3638  0.7521
   20MOL    H8318361   7.278   0.269   1.790  0.6226 -0.6889 -0.4924
   20MOL    H8418362   7.402   0.546   1.770 -1.9585  2.1181  3.3249
   20MOL    H8518363   7.484   0.420   1.855  1.4300  3.1555 -0.5612
   20MOL    H8618364   7.216   0.538   1.946  0.6027  1.3682 -1.8655
   20MOL    H8718365   7.303   0.415   2.025  0.9359 -0.5156 -1.2354
   20MOL    H8818366   7.505   0.571   2.061  0.1807  1.1418 -0.9526
   20MOL    H8918367   7.355   0.592   2.156  1.1353  1.0898 -0.0165
   20MOL    H9018368   7.303   1.023   2.096  2.1295 -2.1343  1.2129
   20MOL    H9118369   7.409   0.977   1.965 -0.0023  0.8704  0.7620
   20MOL    H9218370   7.197   1.090   1.897 -1.0115 -0.5719 -1.9158
   20MOL    H9318371   7.105   0.976   1.981  0.8677  1.0544  1.6066
   20MOL    H9418372   7.197   0.790   1.807  0.8451 -0.3446 -1.4802
   20MOL    H9518373   7.293   0.910   1.734  0.9999 -1.0220  1.2013
   20MOL    H9618374   6.995   0.920   1.756 -0.3512 -1.1628 -0.3552
   20MOL    H9718375   7.085   0.851   1.615 -0.7115 -1.0022  1.4429
   20MOL    O9818376   7.012   1.160   1.667 -0.2123  0.0219  0.0370
   20MOL    C9918377   6.991   1.282   1.595  0.1275  0.4038 -0.3180
   20MOL   C10018378   6.875   1.252   1.504  0.5997 -0.1778 -0.0813
   20MOL   C10118379   6.908   1.139   1.400 -0.5026 -0.1935  0.0267
   20MOL   C10218380   6.823   1.153   1.268  1.1748  0.3093  0.0511
   20MOL   C10318381   6.869   1.064   1.149 -0.7665 -0.1187  0.1056
   20MOL   C10418382   6.988   1.132   1.062  1.1609 -0.1013 -0.2101
   20MOL   C10518383   7.012   1.042   0.940  0.7189  0.2074  0.3097
   20MOL   C10618384   7.139   1.077   0.856 -0.1433  0.2290  0.5193
   20MOL   C10718385   7.134   1.228   0.810 -1.0518 -0.3205  0.0851
   20MOL   C10818386   7.256   1.246   0.711  0.3096 -0.1710  0.4208
   20MOL   O10918387   7.220   1.175   0.597 -0.4558 -0.0407  0.0508
   20MOL   C11018388   7.256   1.199   0.470  0.7013 -0.1971 -0.0772
   20MOL   O11118389   7.320   1.302   0.434  0.1317 -0.5109  0.3871
   20MOL   C11218390   7.204   1.089   0.373 -0.4522 -0.0248  0.2178
   20MOL   C11318391   7.289   1.091   0.241  0.3387 -0.2465 -0.0673
   20MOL   C11418392   7.439   1.059   0.254  0.3255 -0.1000  0.9817
   20MOL   C11518393   7.531   1.062   0.125 -0.1429  0.0729 -0.6700
   20MOL   C11618394   7.678   1.042   0.149 -0.9330  0.3886 -0.3946
   20MOL   O11718395   7.752   1.126   0.194 -0.2376  0.2021 -0.1703
   20MOL   H11818396   6.973   1.357   1.672  2.7934  2.0779 -1.2461
   20MOL   H11918397   7.076   1.318   1.537  0.8036 -2.6189 -1.2527
   20MOL   H12018398   6.843   1.344   1.456  1.2682  0.1903  0.1701
   20MOL   H12118399   6.796   1.215   1.570 -0.3643 -0.3791 -1.3334
   20MOL   H12218400   7.010   1.139   1.361 -1.0213  0.3321 -1.3712
   20MOL   H12318401   6.885   1.040   1.439  0.4268  0.0837  1.2765
   20MOL   H12418402   6.810   1.258   1.240 -3.3615  0.2728  1.6504
   20MOL   H12518403   6.719   1.138   1.295  0.0641  2.6129 -2.6411
   20MOL   H12618404   6.779   1.041   1.093 -0.0292 -2.4394 -0.1780
   20MOL   H12718405   6.897   0.964   1.182 -1.5492 -0.8969 -1.5902
   20MOL   H12818406   7.082   1.141   1.115  2.1980  0.6356 -2.1160
   20MOL   H12918407   6.943   1.228   1.038  0.8919  0.0224  0.7679
   20MOL   H13018408   6.925   1.056   0.875  0.1187 -1.7369  0.6698
   20MOL   H13118409   7.018   0.939   0.975 -0.8790  0.1166  0.3609
   20MOL   H13218410   7.145   1.008   0.771  0.2833 -0.7703  1.3494
   20MOL   H13318411   7.227   1.067   0.918 -0.0535  0.9558  0.5106
   20MOL   H13418412   7.038   1.250   0.763 -0.0151  0.7434 -1.5896
   20MOL   H13518413   7.150   1.290   0.898  2.7689  0.2726 -0.9227
   20MOL   H13618414   7.348   1.198   0.745  0.7715  0.1979 -0.2932
   20MOL   H13718415   7.277   1.347   0.677 -1.9221 -0.0156 -0.5907
   20MOL   H13818416   7.210   0.989   0.414 -0.2105 -0.1460 -0.1120
   20MOL   H13918417   7.099   1.116   0.370 -0.0857  1.4465  0.0599
   20MOL   H14018418   7.278   1.193   0.205 -0.7803  0.0003  0.9520
   20MOL   H14118419   7.250   1.014   0.173  1.7132  0.5763 -1.8209
   20MOL   H14218420   7.453   0.956   0.288 -0.5514 -1.1171 -1.6002
   20MOL   H14318421   7.483   1.119   0.334  0.5090  0.6097  0.3533
   20MOL   H14418422   7.514   1.147   0.059  0.0085 -1.4649 -2.7269
   20MOL   H14518423   7.507   0.973   0.067  1.5699 -0.8834  0.0753
   20MOL   O14618424   7.713   0.914   0.116  0.1920  0.4813 -0.5345
   20MOL   C14718425   0.083   0.865   0.124  1.1269 -0.0849 -0.6216
   20MOL   C14818426   0.132   0.812   7.748  0.8151 -0.1020  0.2539
   20MOL   C14918427   0.224   0.689   7.761 -0.0137 -0.7253 -0.4887
   20MOL   C15018428   0.258   0.629   7.625 -0.1550  0.2454 -0.0637
   20MOL   C15118429   0.366   0.520   7.633  0.0518  0.1488 -0.4508
   20MOL   C15218430   0.513   0.564   7.610  0.5507  0.0851 -0.4640
   20MOL   C15318431   0.610   0.449   7.637  0.6864  0.4809  0.1081
   20MOL   C15418432   0.751   0.496   7.604  0.4183 -0.5982  0.2010
   20MOL   C15518433   0.852   0.386   7.640 -0.0139  0.9963 -0.4245
   20MOL   C15618434   0.882   0.378   0.028 -0.0741 -0.2457 -0.7116
   20MOL   O15718435   0.941   0.255   0.053  0.1355 -0.0240 -0.1195
   20MOL   C15818436   0.919   0.187   0.162 -0.3402  0.6180  0.5654
   20MOL   O15918437   0.842   0.215   0.249  0.1075 -0.0397  0.1506
   20MOL   C16018438   1.022   0.076   0.185  0.6973  0.2849  0.2709
   20MOL   C16118439   1.152   0.120   0.266 -0.1441  1.0772  0.3070
   20MOL   C16218440   1.222   7.751   0.316 -0.3705 -0.4438  0.7944
   20MOL   C16318441   1.365   0.013   0.373  0.7809  0.0753  0.5681
   20MOL   C16418442   1.459   0.078   0.264 -0.0154 -0.0437 -0.2957
   20MOL   O16518443   1.502   0.016   0.167 -0.4468 -0.2395 -0.3423
   20MOL   H16618444   0.155   0.936   0.166  0.6169  0.2463 -0.3069
   20MOL   H16718445   0.079   0.793   0.205 -1.6423 -1.4676 -1.9345
   20MOL   H16818446   0.174   0.892   7.687 -0.9167 -0.0306 -0.8845
   20MOL   H16918447   0.040   0.785   7.697  0.4871 -0.8310  1.2152
   20MOL   H17018448   0.316   0.712   0.049  0.2760 -0.8665 -0.9260
   20MOL   H17118449   0.168   0.618   0.057  1.8549 -1.2586  0.6631
   20MOL   H17218450   0.294   0.706   7.558 -3.1389  1.2936 -0.5759
   20MOL   H17318451   0.167   0.595   7.575  0.7192  0.7865 -2.0589
   20MOL   H17418452   0.338   0.447   7.557 -1.5844  0.1988  0.0779
   20MOL   H17518453   0.356   0.469   7.728  0.6785 -2.1912 -1.6068
   20MOL   H17618454   0.552   0.644   7.674 -1.0802 -1.6694  2.8095
   20MOL   H17718455   0.525   0.611   7.512 -0.3770  0.5390 -0.3584
   20MOL   H17818456   0.586   0.363   7.574  0.2364  0.7303 -0.0567
   20MOL   H17918457   0.591   0.414   7.738  0.0134 -1.4471 -0.6650
   20MOL   H18018458   0.774   0.597   7.636 -2.4315  0.5189 -1.1521
   20MOL   H18118459   0.770   0.515   7.498 -1.5681  3.3813  0.4923
   20MOL   H18218460   0.819   0.293   7.592 -0.6106  1.3605 -0.7240
   20MOL   H18318461   0.943   0.409   7.585 -0.4067 -0.0432 -1.5508
   20MOL   H18418462   0.781   0.378   0.069 -0.5288 -0.9787 -1.8121
   20MOL   H18518463   0.940   0.465   0.059  2.4497 -1.9784 -0.3657
   20MOL   H18618464   0.981   7.762   0.247 -0.3794  2.4163  2.3438
   20MOL   H18718465   1.046   0.041   0.085  2.3991  1.0939  0.3605
   20MOL   H18818466   1.132   0.192   0.345 -0.2915  0.4505  0.8543
   20MOL   H18918467   1.220   0.164   0.193  0.1483 -0.3802 -0.3304
   20MOL   H19018468   1.229   7.695   0.223 -1.9775  0.0394  0.3618
   20MOL   H19118469   1.159   7.692   0.383 -0.0703 -2.0301 -0.3118
   20MOL   H19218470   1.407   7.679   0.391 -0.1242 -0.6185 -1.0043
   20MOL   H19318471   1.377   0.055   0.473 -1.3304 -2.3644  1.9195
   20MOL   O19418472   1.490   0.202   0.293  0.5329  0.2583  0.7874
   20MOL   C19518473   1.568   0.279   0.216  0.7567 -0.6893 -0.1494
   20MOL   C19618474   1.536   0.428   0.207 -0.1812  0.0854  0.0217
   20MOL   C19718475   1.404   0.448   0.125  0.4275 -0.0674 -0.3102
   20MOL   C19818476   1.382   0.597   0.090 -0.4705  0.8153 -0.3354
   20MOL   C19918477   1.263   0.629   0.005  0.5663  0.6759 -0.6201
   20MOL   C20018478   1.228   0.539   7.649 -0.0320 -0.5770  0.2334
   20MOL   C20118479   1.143   0.607   7.544  0.1073 -0.7649  0.1255
   20MOL   C20218480   1.133   0.538   7.407  0.3352 -0.0710  0.4140
   20MOL   C20318481   1.067   0.622   7.295  0.4719 -0.4850 -0.0428
   20MOL   C20418482   1.057   0.549   7.154 -0.2197  0.7552  0.3609
   20MOL   O20518483   1.181   0.476   7.129  0.3520  0.1676 -0.4447
   20MOL   C20618484   1.286   0.536   7.064  0.5825  0.1013 -0.5360
   20MOL   O20718485   1.281   0.651   7.027 -0.0768  0.0985 -0.6230
   20MOL   C20818486   1.416   0.458   7.068  0.5860  0.3111 -0.3176
   20MOL   C20918487   1.456   0.432   7.210 -0.1090  0.4250  0.2834
   20MOL   C21018488   1.610   0.399   7.216 -0.4446 -0.2479 -0.5846
   20MOL   C21118489   1.677   0.358   7.345 -0.9385 -0.2200 -0.6588
   20MOL   C21218490   1.660   0.456   7.459  0.1444  0.4116 -0.4761
   20MOL   O21318491   1.582   0.428   7.553  0.0582  0.0943 -0.2923
   20MOL   H21418492   1.659   0.262   0.273 -0.1134 -2.2790  0.7723
   20MOL   H21518493   1.581   0.232   0.119 -0.8899 -1.1745 -0.1437
   20MOL   H21618494   1.623   0.475   0.161 -0.7305  1.2779  0.1897
   20MOL   H21718495   1.539   0.479   0.303  1.3744 -2.5353  1.4430
   20MOL   H21818496   1.404   0.389   0.033  1.0093  2.2212 -1.8007
   20MOL   H21918497   1.324   0.401   0.182  2.6050 -2.0774  1.2156
   20MOL   H22018498   1.476   0.619   0.038 -1.6465  1.7315 -2.1022
   20MOL   H22118499   1.399   0.659   0.178  0.9731 -0.5275  0.3628
   20MOL   H22218500   1.282   0.729   7.730 -0.8108  1.1526 -0.0916
   20MOL   H22318501   1.173   0.635   0.065 -0.2601 -1.0224 -1.6853
   20MOL   H22418502   1.184   0.446   7.687 -2.6930 -0.0998 -1.5503
   20MOL   H22518503   1.321   0.516   7.597 -0.0295  0.9119 -0.4397
   20MOL   H22618504   1.175   0.710   7.527 -0.0988 -0.6951  0.1545
   20MOL   H22718505   1.044   0.623   7.588  0.2023  1.0924 -0.2995
   20MOL   H22818506   1.081   0.443   7.417  0.9015 -0.2530  1.6790
   20MOL   H22918507   1.231   0.505   7.371  0.5668  1.7471 -0.7006
   20MOL   H23018508   0.964   0.649   7.322  0.4111 -0.8670  0.1087
   20MOL   H23118509   1.127   0.713   7.292 -0.8544  0.4148 -0.1478
   20MOL   H23218510   1.037   0.616   7.070 -3.0162 -0.3710  0.0714
   20MOL   H23318511   0.979   0.472   7.159  0.8042 -0.3239  0.0149
   20MOL   H23418512   1.402   0.364   7.013  0.5660  2.2256 -3.7688
   20MOL   H23518513   1.482   0.513   7.001  0.4563 -0.2278 -0.8998
   20MOL   H23618514   1.410   0.339   7.242 -0.4558  0.7089  0.6025
   20MOL   H23718515   1.436   0.517   7.275  0.8526 -1.0440  2.5504
   20MOL   H23818516   1.672   0.475   7.171 -1.3862  0.3222 -0.9312
   20MOL   H23918517   1.627   0.315   7.149  2.6548 -1.1731  1.2620
   20MOL   H24018518   1.784   0.338   7.331 -0.8128  0.0608 -0.1022
   20MOL   H24118519   1.635   0.260   7.367  1.1088 -1.1417 -0.7629
   20MOL   O24218520   1.742   0.564   7.449 -0.4457  0.5037  0.2020
   20MOL   C24318521   1.729   0.672   7.541  0.7506 -0.2832  0.4754
   20MOL   C24418522   1.589   0.742   7.531 -0.5469 -0.1712 -0.9934
   20MOL   C24518523   1.562   0.806   7.397  0.3017 -0.2249 -0.0603
   20MOL   C24618524   1.430   0.878   7.376 -0.2188  0.1353  0.6598
   20MOL   C24718525   1.410   0.924   7.228  0.0639  0.3990 -0.0914
   20MOL   C24818526   1.283   1.005   7.206  0.7661  0.6636  0.5073
   20MOL   C24918527   1.247   1.022   7.052  0.5117 -0.1380 -0.5649
   20MOL   C25018528   1.129   1.121   7.037  0.7417 -0.1615 -0.7451
   20MOL   C25118529   1.108   1.157   6.891  0.0074 -0.3182  0.2984
   20MOL   C25218530   0.970   1.218   6.876  0.0937 -0.0055 -0.1487
   20MOL   O25318531   0.939   1.245   6.739  0.7745 -0.7100 -0.1559
   20MOL   C25418532   0.835   1.191   6.687  0.4869  0.0981  0.4169
   20MOL   O25518533   0.759   1.120   6.754  0.4430  0.0922  0.5594
   20MOL   C25618534   0.808   1.216   6.537 -0.7565 -0.6432 -0.6302
   20MOL   C25718535   0.663   1.186   6.492  0.0485 -0.5239 -0.0726
   20MOL   C25818536   0.615   1.245   6.352  0.3112  0.2214  0.2130
   20MOL   C25918537   0.464   1.218   6.307  0.5002 -0.0732  0.7413
   20MOL   C26018538   0.358   1.307   6.367 -0.1161 -0.4011 -0.0662
   20MOL   O26118539   0.379   1.393   6.450 -0.3865 -0.2176 -0.5169
   20MOL   H26218540   1.750   0.626   7.638 -0.4737 -2.0655 -0.0780
   20MOL   H26318541   1.807   0.745   7.518  1.9241 -1.6581 -0.0253
   20MOL   H26418542   1.576   0.821   7.604 -0.2368  1.8117 -3.0489
   20MOL   H26518543   1.504   0.674   7.546 -1.4143  0.4476 -2.9222
   20MOL   H26618544   1.648   0.869   7.372 -0.9300  1.8732  0.8649
   20MOL   H26718545   1.568   0.736   7.314  1.1900  0.5563 -0.6719
   20MOL   H26818546   1.415   0.968   7.436 -1.2440  0.5702 -0.2382
   20MOL   H26918547   1.339   0.821   7.395 -1.5621  1.3152 -2.0040
   20MOL   H27018548   1.405   0.832   7.169 -0.3597 -0.7551  1.7230
   20MOL   H27118549   1.498   0.971   7.182  1.8418  0.0049  2.8147
   20MOL   H27218550   1.301   1.104   7.246 -1.7455  0.6534  1.7322
   20MOL   H27318551   1.208   0.954   7.265  0.5179  0.0997 -0.2837
   20MOL   H27418552   1.218   0.923   7.018 -0.5100 -0.4501  1.1737
   20MOL   H27518553   1.333   1.069   7.004 -0.1282  1.1222 -0.4935
   20MOL   H27618554   1.166   1.214   7.080  2.5821 -1.1445 -0.1338
   20MOL   H27718555   1.038   1.087   7.088 -0.0395  0.1597 -1.9242
   20MOL   H27818556   1.178   1.227   6.845  1.1020  0.4366  3.0119
   20MOL   H27918557   1.118   1.068   6.830  1.7108  1.0009 -1.3797
   20MOL   H28018558   0.974   1.314   6.927  0.9370  0.0974 -0.4176
   20MOL   H28118559   0.891   1.169   6.934  0.0276  2.4669  1.9500
   20MOL   H28218560   0.831   1.317   6.505 -0.2277 -0.8720 -0.9698
   20MOL   H28318561   0.870   1.149   6.478 -0.4318 -0.3049 -0.6723
   20MOL   H28418562   0.607   1.237   6.571  0.7315 -0.7126  0.5424
   20MOL   H28518563   0.641   1.080   6.508  0.5656 -0.6893 -0.4460
   20MOL   H28618564   0.677   1.194   6.278 -1.4019 -0.8769 -0.5023
   20MOL   H28718565   0.629   1.352   6.337 -0.6182  0.2161 -0.7192
   20MOL   H28818566   0.439   1.118   6.341  1.2347 -0.4288  0.2648
   20MOL   H28918567   0.463   1.208   6.198  0.1658 -0.0208  0.7404
   20MOL   O29018568   0.240   1.294   6.309  0.8461 -0.5206 -0.0670
   20MOL   C29118569   0.133   1.388   6.339 -1.5554 -0.1189  0.2622
   20MOL   C29218570   0.030   1.322   6.442 -0.6818 -0.2293  0.0640
   20MOL   C29318571   0.079   1.305   6.586 -0.1076  0.4437  0.7060
   20MOL   C29418572   7.745   1.266   6.694  0.0540 -0.4276 -0.6943
   20MOL   C29518573   7.656   1.147   6.671  0.0063 -0.0088 -0.2621
   20MOL   C29618574   7.528   1.146   6.757  0.1650 -0.2382 -0.1810
   20MOL   C29718575   7.423   1.042   6.720 -0.1105 -0.1152 -0.4894
   20MOL   C29818576   7.304   1.042   6.821  0.5413 -0.1249  0.6269
   20MOL   C29918577   7.329   0.979   6.948  0.1167  0.2560 -0.3195
   20MOL   C30018578   7.217   0.990   7.052  0.4108  0.1525 -0.2875
   20MOL   O30118579   7.187   1.129   7.081  0.4843  0.3824  0.0890
   20MOL   C30218580   7.132   1.161   7.196  0.0746 -0.4800  0.0144
   20MOL   O30318581   7.102   1.081   7.283 -0.5941 -0.0950 -0.3020
   20MOL   C30418582   7.101   1.312   7.199  0.0426  0.5491 -0.3252
   20MOL   C30518583   7.054   1.357   7.337 -0.2465 -0.6560  0.0149
   20MOL   C30618584   7.011   1.502   7.358 -0.3450 -0.6336  0.5815
   20MOL   C30718585   7.122   1.609   7.356 -0.2240  0.4945 -0.1152
   20MOL   C30818586   7.076   1.758   7.337  0.7000 -0.0856 -0.0037
   20MOL   O30918587   7.092   1.826   7.232  0.4273 -0.2261  0.1216
   20MOL   H31018588   0.180   1.483   6.366  0.1980 -0.9734  0.2784
   20MOL   H31118589   0.095   1.400   6.237 -1.1946 -0.5511  0.0739
   20MOL   H31218590   0.017   1.219   6.407 -1.7651 -0.6224  1.5316
   20MOL   H31318591   7.709   1.389   6.448 -0.6342 -0.3491  2.5396
   20MOL   H31418592   0.138   1.214   6.587  1.1030  1.1869 -0.9839
   20MOL   H31518593   0.133   1.391   6.628  1.3355  0.5661 -1.2824
   20MOL   H31618594   7.685   1.353   6.722  0.6736  0.5208 -2.2443
   20MOL   H31718595   0.048   1.247   6.777  0.9561  2.0032 -0.8239
   20MOL   H31818596   7.708   1.053   6.686 -1.5040 -1.0926 -1.5868
   20MOL   H31918597   7.621   1.160   6.568  1.2868  1.0819 -0.5720
   20MOL   H32018598   7.482   1.243   6.772  1.7303  0.1402  2.6570
   20MOL   H32118599   7.567   1.125   6.857  0.1337 -0.0872 -0.1365
   20MOL   H32218600   7.457   0.938   6.714 -1.5736 -0.5737 -1.0055
   20MOL   H32318601   7.384   1.057   6.620  1.1104 -0.6667 -1.0649
   20MOL   H32418602   7.228   0.975   6.780 -0.2029  1.2272 -0.2722
   20MOL   H32518603   7.252   1.138   6.832  1.6006  0.4113  0.9931
   20MOL   H32618604   7.349   0.873   6.933 -0.3866  0.4144 -2.2976
   20MOL   H32718605   7.418   1.030   6.985  0.1271  0.0308 -0.0343
   20MOL   H32818606   7.265   0.944   7.139 -0.8653  1.5890  1.1985
   20MOL   H32918607   7.129   0.933   7.025  0.9889 -0.9558  0.1192
   20MOL   H33018608   7.183   1.373   7.161  0.0604  0.2786 -0.7359
   20MOL   H33118609   7.030   1.343   7.122  0.1914  1.4203 -0.1121
   20MOL   H33218610   7.129   1.348   7.416 -0.3589 -0.5705  0.1321
   20MOL   H33318611   6.964   1.296   7.355  0.0814 -1.4859 -1.1040
   20MOL   H33418612   6.982   1.512   7.463  0.7269 -1.8304  1.0173
   20MOL   H33518613   6.928   1.534   7.296 -0.2115 -1.0387  0.1903
   20MOL   H33618614   7.178   1.578   7.267  3.8171 -1.1418  2.8470
   20MOL   H33718615   7.196   1.596   7.435 -2.1612 -0.0716  1.6602
   20MOL   O33818616   7.025   1.801   7.449  0.6233 -0.2643  0.4782
   20MOL   C33918617   6.987   1.934   7.459  0.0658  0.0058  0.6357
   20MOL   C34018618   6.905   1.960   7.585 -0.2939 -0.7263  0.0974
   20MOL   C34118619   6.836   2.092   7.581 -0.6486  0.3880 -0.5579
   20MOL   C34218620   6.725   2.105   7.691 -0.1180 -0.1577  0.2321
   20MOL   C34318621   6.624   2.218   7.665 -0.6833  0.5802 -0.1379
   20MOL   C34418622   6.498   2.213   7.751  0.4876 -0.2023 -0.2705
   20MOL   C34518623   6.529   2.264   0.126 -0.7478 -0.0268 -0.3135
   20MOL   C34618624   6.412   2.344   0.188  0.4963  0.2484 -0.1018
   20MOL   C34718625   6.298   2.252   0.220 -0.3570  0.1685 -0.5167
   20MOL   C34818626   6.157   2.311   0.238  0.3995 -0.5968 -0.1962
   20MOL   O34918627   6.065   2.208   0.247 -0.3892 -0.5212  0.0213
   20MOL   C35018628   5.936   2.230   0.289  0.2340  0.1922 -0.7927
   20MOL   O35118629   5.896   2.335   0.337 -0.2021 -0.2575  0.0020
   20MOL   C35218630   5.850   2.104   0.260  0.0154  0.2944 -0.0331
   20MOL   C35318631   5.876   2.055   0.117  0.0015 -0.2960  0.0562
   20MOL   C35418632   5.771   1.946   0.076 -0.2982 -1.2469 -0.3169
   20MOL   C35518633   5.801   1.902   7.699 -0.6797  0.7639  0.1085
   20MOL   C35618634   5.923   1.811   7.700  0.3903 -0.2174  0.2073
   20MOL   O35718635   5.913   1.692   7.734  0.1934 -0.1484 -1.0632
   20MOL   H35818636   7.070   2.003   7.443 -1.9360  2.1326 -1.0998
   20MOL   H35918637   6.917   1.962   7.380  0.9699  0.1270 -0.1309
   20MOL   H36018638   6.972   1.955   7.671 -1.1757  0.5511  0.8675
   20MOL   H36118639   6.831   1.880   7.589 -0.8708 -0.1116  3.6637
   20MOL   H36218640   6.913   2.169   7.590 -0.2587 -0.0505 -0.1432
   20MOL   H36318641   6.789   2.075   7.484 -0.5765  1.6108 -0.8135
   20MOL   H36418642   6.781   2.131   0.016 -0.4496 -0.0302  0.4054
   20MOL   H36518643   6.675   2.009   7.703 -1.4561  0.1471 -2.4317
   20MOL   H36618644   6.592   2.217   7.561 -0.8695  1.3366 -0.0932
   20MOL   H36718645   6.665   2.318   7.684 -0.0584  0.2040  0.5069
   20MOL   H36818646   6.444   2.119   7.747  1.4058 -0.8412  1.8099
   20MOL   H36918647   6.429   2.280   7.699 -0.3743  0.8992  2.2515
   20MOL   H37018648   6.613   2.333   0.128 -0.9772  0.2294  1.7638
   20MOL   H37118649   6.561   2.183   0.192 -1.8332 -1.8632 -1.9939
   20MOL   H37218650   6.383   2.430   0.129 -1.3247 -0.6234 -0.5135
   20MOL   H37318651   6.454   2.383   0.281  1.3895  0.4837 -0.5935
   20MOL   H37418652   6.287   2.177   0.142  0.5579  1.2299 -1.6921
   20MOL   H37518653   6.325   2.180   0.297 -1.1147  1.5534  1.0945
   20MOL   H37618654   6.133   2.383   0.160  2.1320 -0.6620 -0.8269
   20MOL   H37718655   6.151   2.365   0.333  1.6349  1.3745 -1.2244
   20MOL   H37818656   5.885   2.032   0.334 -0.8708 -0.4336 -0.3162
   20MOL   H37918657   5.745   2.127   0.275 -0.4832  0.5215 -3.5062
   20MOL   H38018658   5.977   2.017   0.107 -0.4147 -1.6026  0.6821
   20MOL   H38118659   5.867   2.133   0.042 -1.0326 -0.3790  0.0841
   20MOL   H38218660   5.676   1.998   0.088 -0.0923 -0.9366 -0.0176
   20MOL   H38318661   5.756   1.859   0.140  1.8695 -1.8908 -0.6375
   20MOL   H38418662   5.834   1.990   7.644 -0.7051  0.5716 -0.2185
   20MOL   H38518663   5.721   1.849   7.646 -0.2454 -1.7415  1.8328
   20MOL   O38618664   6.034   1.877   7.667 -0.3800  0.4232  0.1557
   20MOL   C38718665   6.162   1.820   7.660  0.6291  0.0025  0.1353
   20MOL   C38818666   6.266   1.920   7.602  0.0272  0.0734 -0.0494
   20MOL   C38918667   6.275   1.918   7.449 -0.5643  0.4846  0.0092
   20MOL   C39018668   6.380   2.021   7.401  1.0372  0.7442  0.1329
   20MOL   C39118669   6.442   2.003   7.263  0.4927  0.2816 -0.4541
   20MOL   C39218670   6.557   2.105   7.228  0.4796  0.1702 -0.2239
   20MOL   C39318671   6.570   2.109   7.074  0.7330 -0.5675  1.3752
   20MOL   C39418672   6.651   2.232   7.018  0.6465  0.2580  0.7468
   20MOL   C39518673   6.659   2.211   6.866  0.9184 -0.1636  0.0948
   20MOL   C39618674   6.750   2.317   6.800  0.1463  1.0512 -1.1075
   20MOL   O39718675   6.877   2.329   6.860 -0.1875  0.0602  0.9063
   20MOL   C39818676   6.986   2.271   6.782  0.2936 -0.1006 -0.0047
   20MOL   O39918677   6.977   2.209   6.676 -0.3780  0.2097  0.6592
   20MOL   C40018678   7.119   2.276   6.850 -0.1044  1.0646 -0.2653
   20MOL   C40118679   7.148   2.155   6.942  0.1917 -0.5805 -0.6884
   20MOL   C40218680   7.279   2.152   7.016  0.1395 -0.2307  0.1489
   20MOL   C40318681   7.401   2.123   6.928 -0.0590 -1.3351  0.5402
   20MOL   C40418682   7.530   2.125   7.010  0.1589 -0.4106  0.4692
   20MOL   O40518683   7.621   2.202   6.977  0.0885  0.2914 -0.5331
   20MOL   H40618684   6.177   1.786   7.762  0.9615 -1.1745 -0.2971
   20MOL   H40718685   6.157   1.734   7.593 -0.5775 -0.3326  0.6532
   20MOL   H40818686   6.365   1.890   7.638 -0.2637 -0.8497  0.0073
   20MOL   H40918687   6.250   2.022   7.636 -0.8020 -0.5231  1.4158
   20MOL   H41018688   6.311   1.824   7.408 -1.4301  0.0956  0.1318
   20MOL   H41118689   6.181   1.929   7.395 -0.0755 -1.8708 -1.4174
   20MOL   H41218690   6.469   2.018   7.464  1.3211  0.3271 -0.2883
   20MOL   H41318691   6.347   2.124   7.415  0.5237  0.9611 -2.3800
   20MOL   H41418692   6.369   1.997   7.183 -0.8351 -1.1723  0.8433
   20MOL   H41518693   6.487   1.904   7.251  0.2591  0.0642  0.3960
   20MOL   H41618694   6.653   2.076   7.271  1.2284 -0.1357 -2.0803
   20MOL   H41718695   6.535   2.199   7.279 -1.5571 -0.6476  0.4584
   20MOL   H41818696   6.472   2.109   7.025  0.4643 -2.5864  1.8669
   20MOL   H41918697   6.620   2.020   7.036 -2.2866 -0.8776 -2.1431
   20MOL   H42018698   6.751   2.219   7.059  0.6057 -2.1184  0.1962
   20MOL   H42118699   6.611   2.330   7.041  0.6466  0.7702 -1.3071
   20MOL   H42218700   6.689   2.108   6.845 -0.7867 -0.6329 -0.1334
   20MOL   H42318701   6.561   2.208   6.818  1.1300  0.7372 -0.4136
   20MOL   H42418702   6.702   2.413   6.820  0.6496  0.9532  0.6120
   20MOL   H42518703   6.753   2.307   6.691  0.9319 -0.3489 -0.9705
   20MOL   H42618704   7.209   2.275   6.788 -1.2326  0.0395 -1.9200
   20MOL   H42718705   7.113   2.366   6.910 -1.6523  0.8355 -0.0587
   20MOL   H42818706   7.137   2.057   6.898  0.4242 -0.5898 -0.7211
   20MOL   H42918707   7.067   2.158   7.015  0.3620 -1.4224 -0.4676
   20MOL   H43018708   7.261   2.078   7.094 -1.1404  0.4092  0.4844
   20MOL   H43118709   7.293   2.249   7.064  0.2768  0.2247 -0.8023
   20MOL   H43218710   7.397   2.190   6.842  0.8374 -1.6613  0.2336
   20MOL   H43318711   7.378   2.025   6.886 -1.8452 -0.8141  0.2510
   20MOL   O43418712   7.534   2.027   7.091 -0.4441 -0.4244 -0.2648
   20MOL   C43518713   7.651   2.004   7.158 -0.3386  0.2358  0.5575
   20MOL   C43618714   7.620   1.889   7.251  0.3026  0.5555 -0.8186
   20MOL   C43718715   7.519   1.940   7.359 -0.0044  0.2176  0.2718
   20MOL   C43818716   7.514   1.852   7.485  0.5325 -0.2675 -0.5763
   20MOL   C43918717   7.473   1.927   7.612  0.1673  0.2052  0.7025
   20MOL   C44018718   7.319   1.930   7.611  0.3049 -0.1594 -0.1121
   20MOL   C44118719   7.259   2.022   7.717 -0.0501 -0.3410  0.2066
   20MOL   C44218720   7.217   1.948   0.082  0.0547  0.2955  0.6513
   20MOL   C44318721   7.119   2.033   0.159  1.0666 -0.5175  0.7718
   20MOL   C44418722   7.067   1.968   0.286  0.7568 -0.1429  0.1608
   20MOL   O44518723   7.001   2.054   0.379  0.3446 -0.7966 -0.4783
   20MOL   C44618724   6.876   2.085   0.347 -0.1798  0.7521  0.2188
   20MOL   O44718725   6.808   2.032   0.257  0.1980  0.1175  0.0478
   20MOL   C44818726   6.821   2.196   0.429 -0.7176  0.4507  0.7965
   20MOL   C44918727   6.701   2.147   0.520 -0.6141  0.3805  0.6693
   20MOL   C45018728   6.750   2.050   0.630  0.7589 -0.5275 -0.6203
   20MOL   C45118729   6.636   2.019   0.728 -0.4759 -0.0410  0.5218
   20MOL   C45218730   6.545   1.899   0.689  0.0944  0.6904  0.5003
   20MOL   O45318731   6.427   1.918   0.665  0.2265 -0.4239 -0.0876
   20MOL   H45418732   7.725   1.994   7.079 -0.5806  0.6852  0.2766
   20MOL   H45518733   7.689   2.090   7.212 -0.0357  1.5304 -1.6823
   20MOL   H45618734   7.701   1.844   7.309  0.2532  2.2516  0.6170
   20MOL   H45718735   7.572   1.806   7.200  1.8232 -0.5894 -0.4215
   20MOL   H45818736   7.553   2.038   7.393 -0.4574  0.5034 -0.0809
   20MOL   H45918737   7.419   1.950   7.316 -0.1417  3.0680  1.1219
   20MOL   H46018738   7.610   1.807   7.508  0.7559 -0.7137 -2.3584
   20MOL   H46118739   7.445   1.769   7.470  0.5651 -0.1808 -1.2152
   20MOL   H46218740   7.505   2.031   7.605 -2.8490  1.2423  1.5203
   20MOL   H46318741   7.509   1.880   7.704  0.6962 -0.4980  0.1378
   20MOL   H46418742   7.283   1.828   7.625 -1.4469  0.5726  0.8415
   20MOL   H46518743   7.271   1.955   7.516  2.4678  0.4506 -1.0808
   20MOL   H46618744   7.173   2.077   7.680 -0.3764 -1.2931 -0.4728
   20MOL   H46718745   7.333   2.101   7.729  0.3859 -0.6775 -0.2255
   20MOL   H46818746   7.300   1.914   0.144 -1.7322 -0.7537  2.5565
   20MOL   H46918747   7.170   1.852   0.056  0.7672 -0.0328  0.5632
   20MOL   H47018748   7.165   2.130   0.180 -0.9453  0.6693 -0.1497
   20MOL   H47118749   7.031   2.055   0.098  2.9823 -2.2816 -2.7900
   20MOL   H47218750   7.159   1.929   0.331  0.9233  0.1388  0.0653
   20MOL   H47318751   6.993   1.889   0.275 -1.6184  1.4881  3.7133
   20MOL   H47418752   6.893   2.248   0.493 -1.3969  1.8225  0.4707
   20MOL   H47518753   6.787   2.273   0.361  1.2430 -0.8431 -1.7281
   20MOL   H47618754   6.628   2.105   0.451  0.3381 -0.2463  0.0329
   20MOL   H47718755   6.657   2.240   0.558 -0.0548  0.4700  1.1011
   20MOL   H47818756   6.824   2.109   0.684  0.6504  0.1248 -1.1907
   20MOL   H47918757   6.791   1.956   0.591 -1.6921 -2.7527  1.8722
   20MOL   H48018758   6.571   2.104   0.747 -0.4967 -0.1874  1.1187
   20MOL   H48118759   6.684   1.995   0.823  1.9943 -1.8054 -1.1027
   20MOL   O48218760   6.610   1.784   0.698  0.0746  0.1884  0.6580
   20MOL   C48318761   6.559   1.654   0.671 -0.3532  0.0187  0.6889
   20MOL   C48418762   6.616   1.605   0.531 -0.9555  0.5467  0.0783
   20MOL   C48518763   6.765   1.587   0.527 -0.0724  0.4911  0.4738
   20MOL   C48618764   6.823   1.565   0.383 -0.3484  0.2351 -0.1726
   20MOL   C48718765   6.972   1.577   0.376 -0.8722 -0.2855 -0.0509
   20MOL   C48818766   7.037   1.499   0.267  0.4577 -0.5218  0.2584
   20MOL   C48918767   7.002   1.560   0.131  0.7682 -0.4910 -0.1661
   20MOL   C49018768   7.117   1.525   0.023  0.7474 -0.5151  0.4539
   20MOL   C49118769   7.134   1.375   7.758 -0.3705  0.1069  0.0536
   20MOL   C49218770   7.266   1.347   7.680  0.3782 -0.2639  0.2348
   20MOL   O49318771   7.382   1.372   7.762 -0.4463 -0.1047 -0.2256
   20MOL   C49418772   7.463   1.483   7.747 -0.1342 -0.1920 -0.0125
   20MOL   O49518773   7.467   1.554   7.641  0.1963  0.9819 -0.0337
   20MOL   C49618774   7.561   1.501   0.097 -0.4488 -0.8262  0.0585
   20MOL   C49718775   7.488   1.520   0.234 -0.6125  0.0753  0.7101
   20MOL   C49818776   7.479   1.672   0.284 -0.2442  0.3058 -0.2336
   20MOL   C49918777   7.379   1.689   0.402  0.2019  0.0193 -0.2271
   20MOL   C50018778   7.396   1.824   0.472  0.2285 -0.2752  0.0008
   20MOL   O50118779   7.412   1.825   0.599  0.4943 -0.3507  0.3362
   20MOL   H50218780   6.590   1.578   0.744  0.5215 -0.2848  0.0055
   20MOL   H50318781   6.451   1.650   0.661 -0.2432  1.1915 -1.0851
   20MOL   H50418782   6.587   1.688   0.466  1.5185  1.0384 -0.4476
   20MOL   H50518783   6.566   1.515   0.494  1.4955 -1.2248  1.0013
   20MOL   H50618784   6.814   1.672   0.574  1.6080 -1.2555  1.9939
   20MOL   H50718785   6.800   1.511   0.597 -0.3515 -0.6312 -0.5990
   20MOL   H50818786   6.785   1.638   0.312 -1.1045 -1.6138 -1.7097
   20MOL   H50918787   6.795   1.463   0.357 -0.2968  0.4048 -0.9059
   20MOL   H51018788   7.001   1.516   0.462  0.1986  0.2347 -0.0359
   20MOL   H51118789   7.016   1.676   0.386  2.0712 -1.5656  0.3063
   20MOL   H51218790   7.004   1.395   0.270 -2.8033  0.4445 -0.2615
   20MOL   H51318791   7.142   1.507   0.295  0.0375 -0.7700  1.9568
   20MOL   H51418792   7.012   1.667   0.143 -0.7467 -0.4268  0.7278
   20MOL   H51518793   6.901   1.538   0.096 -0.1607  1.9194  0.8723
   20MOL   H51618794   7.205   1.570   0.070  0.1476 -1.2906  2.3762
   20MOL   H51718795   7.102   1.575   7.692 -0.0991 -0.2936  0.7022
   20MOL   H51818796   7.118   1.318   0.085  1.2321  1.3471  1.1142
   20MOL   H51918797   7.057   1.346   7.686  0.7961  0.5441 -1.3994
   20MOL   H52018798   7.273   1.414   7.594 -0.9204 -0.9878 -0.4423
   20MOL   H52118799   7.280   1.249   7.636  1.0162 -0.4329  0.7967
   20MOL   H52218800   7.633   1.418   0.099 -2.4067 -2.5457  0.7415
   20MOL   H52318801   7.624   1.587   0.072 -0.3928 -1.3006 -1.5046
   20MOL   H52418802   7.547   1.477   0.315  1.0901  0.5185 -0.2459
   20MOL   H52518803   7.390   1.474   0.236 -0.6331  0.1681  2.1344
   20MOL   H52618804   7.443   1.720   0.192 -0.1040  0.2655 -0.3091
   20MOL   H52718805   7.578   1.712   0.306  0.3257 -1.8469  1.1499
   20MOL   H52818806   7.393   1.616   0.481 -1.3300  0.9932  0.9638
   20MOL   H52918807   7.274   1.681   0.375  0.5871 -0.5325 -1.5833
   20MOL   O53018808   7.399   1.932   0.395 -0.5217  0.0445 -0.1521
   20MOL   C53118809   7.447   2.053   0.450 -1.1235 -0.4936 -0.0076
   20MOL   C53218810   7.476   2.152   0.337  0.5051  0.6926  0.6872
   20MOL   C53318811   7.593   2.127   0.235  0.1309  0.3141  0.0377
   20MOL   C53418812   7.625   2.248   0.145 -0.0024  0.2578  0.0961
   20MOL   C53518813   7.712   2.214   0.024 -0.7262  0.3659  0.0949
   20MOL   C53618814   7.718   2.320   7.682 -0.2050  0.5409 -0.6042
   20MOL   C53718815   0.025   2.449   7.733  0.1247 -0.5778  0.3350
   20MOL   C53818816   0.002   2.573   7.640 -0.2215 -0.4594  0.2007
   20MOL   C53918817   7.632   2.648   7.658 -0.2846 -0.5799  0.1131
   20MOL   C54018818   7.604   2.765   7.564  0.5291 -0.3568  0.2290
   20MOL   O54118819   7.638   2.884   7.631  0.1264 -0.0534 -0.5462
   20MOL   C54218820   7.658   2.992   7.559  0.0179 -0.1921 -0.0981
   20MOL   O54318821   7.646   2.995   7.435 -0.3176  0.3744 -0.2082
   20MOL   C54418822   7.677   3.111   7.646 -0.4392 -0.5369  0.5708
   20MOL   C54518823   7.578   3.227   7.610  0.1115 -0.4067  0.1191
   20MOL   C54618824   7.602   3.300   7.478 -0.7196 -0.1269 -0.8086
   20MOL   C54718825   7.507   3.419   7.456  0.0986 -0.2393  0.7150
   20MOL   C54818826   7.533   3.518   7.338  0.0448  0.4279 -0.2555
   20MOL   O54918827   7.628   3.495   7.262 -0.2406 -0.0064 -0.1559
   20MOL   H55018828   7.388   2.084   0.536 -1.8007 -0.0871 -0.6144
   20MOL   H55118829   7.548   2.024   0.480 -0.5736  0.2012 -1.1633
   20MOL   H55218830   7.496   2.255   0.366  1.3042  1.3242 -1.9332
   20MOL   H55318831   7.381   2.159   0.283 -0.7651 -1.2260  2.6229
   20MOL   H55418832   7.676   2.106   0.302  1.1388  0.0349 -1.2592
   20MOL   H55518833   7.572   2.042   0.170  2.0095 -0.7718  0.8187
   20MOL   H55618834   7.683   2.327   0.192  1.4167 -0.3037 -0.6732
   20MOL   H55718835   7.535   2.295   0.104  0.2689 -0.0798 -0.9024
   20MOL   H55818836   7.673   2.121   7.747  1.2246 -0.5286  0.2395
   20MOL   H55918837   0.049   2.180   0.041 -0.5366  1.6100  1.5505
   20MOL   H56018838   7.627   2.341   7.626 -0.2840  1.1287 -0.2638
   20MOL   H56118839   0.011   2.275   7.601  0.4210 -0.1874  0.2374
   20MOL   H56218840   0.132   2.432   7.739 -0.0265 -1.0995  1.7771
   20MOL   H56318841   0.001   2.477   0.071  2.9092  0.5779  0.7182
   20MOL   H56418842   0.036   2.545   7.540 -0.1576 -1.4659  0.4958
   20MOL   H56518843   0.078   2.650   7.656  1.2519 -1.5169 -1.5063
   20MOL   H56618844   7.558   2.569   7.649 -0.0219 -0.8611  0.3955
   20MOL   H56718845   7.607   2.681   7.759 -1.0134  0.9285 -0.5415
   20MOL   H56818846   7.500   2.753   7.533  0.6467 -1.3091  0.1835
   20MOL   H56918847   7.660   2.763   7.470  0.0742  1.6601 -0.1090
   20MOL   H57018848   7.671   3.081   7.751  0.8470  0.9713  1.1027
   20MOL   H57118849   0.011   3.145   7.615 -1.5277  1.0354 -1.2467
   20MOL   H57218850   7.574   3.302   7.688 -2.0975 -1.4575  1.0671
   20MOL   H57318851   7.480   3.179   7.613  0.9457 -2.2961 -1.5434
   20MOL   H57418852   7.589   3.234   7.393  0.7956 -0.0781 -1.0804
   20MOL   H57518853   7.707   3.326   7.483 -0.9957  0.8271  0.1876
   20MOL   H57618854   7.496   3.472   7.551 -1.1547  1.2505 -0.2382
   20MOL   H57718855   7.404   3.386   7.444  0.3148 -0.1931 -1.4296
   20MOL   O57818856   7.447   3.618   7.322 -0.2751 -0.0075  0.6671
   20MOL   C57918857   7.457   3.692   7.207  0.3107 -0.2463  0.4250
   20MOL   C58018858   7.399   3.832   7.234 -0.7804  0.5541 -0.2317
   20MOL   C58118859   7.449   3.898   7.368 -0.9661 -0.3304  0.5458
   20MOL   C58218860   7.365   4.023   7.390 -0.1413 -0.1754  0.4510
   20MOL   C58318861   7.401   4.090   7.521  0.1458  0.0479 -0.4756
   20MOL   C58418862   7.324   4.229   7.527  0.7438  0.7108  0.0769
   20MOL   C58518863   7.170   4.209   7.555  0.4184 -0.3620  0.0433
   20MOL   C58618864   7.098   4.316   7.642  0.3440  0.5243 -0.1354
   20MOL   C58718865   6.938   4.326   7.622 -0.0290 -0.0660 -0.3345
   20MOL   C58818866   6.861   4.220   7.703  0.3308  0.8032  0.2291
   20MOL   O58918867   6.901   4.231   0.075 -0.1863  0.1405 -0.5043
   20MOL   C59018868   6.815   4.280   0.168  0.1780  0.0109  0.2217
   20MOL   O59118869   6.692   4.297   0.154 -0.4790  0.3731 -0.4846
   20MOL   C59218870   6.883   4.322   0.297  0.0558 -0.1366  0.4589
   20MOL   C59318871   6.955   4.206   0.366 -0.0912 -0.9038 -0.4776
   20MOL   C59418872   7.009   4.260   0.500 -0.5238 -0.2089  0.0520
   20MOL   C59518873   7.104   4.165   0.571  0.2682 -0.2208 -0.1494
   20MOL   C59618874   7.055   4.024   0.617  0.7248 -0.5069  0.4543
   20MOL   O59718875   7.140   3.940   0.649 -0.5364  0.1160  0.4650
   20MOL   H59818876   7.560   3.700   7.171 -0.5569  3.9885 -1.3983
   20MOL   H59918877   7.404   3.638   7.129 -0.3595  1.8873 -0.6242
   20MOL   H60018878   7.290   3.826   7.231 -0.7376  0.5876 -2.6451
   20MOL   H60118879   7.422   3.894   7.147 -0.1244 -0.4156 -0.7589
   20MOL   H60218880   7.427   3.831   7.451 -1.2735 -0.3991  0.4117
   20MOL   H60318881   7.554   3.925   7.364 -0.9389 -0.4393  0.5165
   20MOL   H60418882   7.258   4.005   7.385 -0.5981  2.0632  1.7422
   20MOL   H60518883   7.382   4.091   7.307  1.5854  0.0790  0.9854
   20MOL   H60618884   7.507   4.116   7.515 -0.2160  1.7039  0.1406
   20MOL   H60718885   7.376   4.025   7.604  0.2831  1.3204  0.5816
   20MOL   H60818886   7.362   4.301   7.455  0.2917  0.0006 -0.8971
   20MOL   H60918887   7.357   4.271   7.621  1.1849  0.0596  0.2097
   20MOL   H61018888   7.152   4.115   7.607 -1.9940 -0.7264 -1.3774
   20MOL   H61118889   7.110   4.197   7.465 -1.5884  0.4095  1.2352
   20MOL   H61218890   7.135   4.414   7.610  1.1953 -0.4054 -2.0832
   20MOL   H61318891   7.116   4.309   7.749 -0.7673 -1.2864 -0.0596
   20MOL   H61418892   6.905   4.425   7.654  0.2650 -1.1033  3.5175
   20MOL   H61518893   6.912   4.326   7.517  0.0672  1.0759 -0.3586
   20MOL   H61618894   6.882   4.119   7.665 -2.4771  0.2766 -0.0041
   20MOL   H61718895   6.754   4.224   7.684  0.5283  0.4067 -1.0404
   20MOL   H61818896   6.950   4.406   0.278 -1.4645  1.1294  0.5483
   20MOL   H61918897   6.805   4.359   0.365 -0.9294 -0.4946 -0.4620
   20MOL   H62018898   7.034   4.163   0.305  0.8904  0.8715 -0.5050
   20MOL   H62118899   6.883   4.126   0.381 -0.7892 -0.0805  0.6867
   20MOL   H62218900   6.937   4.304   0.569 -1.0394 -0.8516 -0.0730
   20MOL   H62318901   7.060   4.351   0.468 -0.8319  0.1893  0.6872
   20MOL   H62418902   7.134   4.212   0.664 -0.9687  0.1607  0.0697
   20MOL   H62518903   7.188   4.162   0.501  0.0486 -1.8206 -0.3661
   20MOL   O62618904   6.927   4.006   0.620  0.2811  0.3874  0.6248
   20MOL   C62718905   6.868   3.886   0.667  1.0213  0.4914 -0.3095
   20MOL   C62818906   6.866   3.872   0.820 -0.0020 -1.2857  0.4324
   20MOL   C62918907   6.760   3.966   0.887  0.2505 -0.2356  0.1104
   20MOL   C63018908   6.770   3.961   1.043  0.4998 -0.2650 -0.0035
   20MOL   C63118909   6.727   3.830   1.113  0.1653  0.5110 -0.5419
   20MOL   C63218910   6.729   3.841   1.263  0.4029 -0.9461 -0.5987
   20MOL   C63318911   6.680   3.715   1.337 -0.3568 -0.2274  0.1961
   20MOL   C63418912   6.705   3.723   1.488 -0.0689  0.4851  0.2953
   20MOL   C63518913   6.622   3.605   1.551 -0.4131 -0.3068 -0.3356
   20MOL   C63618914   6.601   3.639   1.695  0.2580 -0.3510  0.0222
   20MOL   O63718915   6.519   3.542   1.747  1.1258  0.1427 -0.1439
   20MOL   C63818916   6.578   3.437   1.813  0.1488  0.5232 -0.0370
   20MOL   O63918917   6.695   3.430   1.840 -0.0568 -0.0413  0.1612
   20MOL   C64018918   6.473   3.334   1.870  0.5188 -0.8191  0.0806
   20MOL   C64118919   6.379   3.405   1.969 -0.6897  0.2887  0.1166
   20MOL   C64218920   6.447   3.477   2.094 -0.7284  0.2101  0.2068
   20MOL   C64318921   6.356   3.569   2.173 -0.3286  0.4642 -0.5101
   20MOL   C64418922   6.329   3.697   2.107  0.3099 -0.1514 -0.1939
   20MOL   O64518923   6.365   3.721   1.992 -0.1894 -0.8985 -0.2871
   20MOL   H64618924   6.761   3.887   0.644  0.9036  0.7700  0.2619
   20MOL   H64718925   6.917   3.801   0.620  0.7329  0.0491  0.1933
   20MOL   H64818926   6.958   3.894   0.874 -0.2909  0.9960  0.0644
   20MOL   H64918927   6.837   3.769   0.841 -0.8013 -1.7958 -2.8973
   20MOL   H65018928   6.773   4.067   0.849  1.3581  0.8030  3.0868
   20MOL   H65118929   6.659   3.937   0.860 -1.2640  3.6503  1.3109
   20MOL   H65218930   6.716   4.048   1.080  1.6744  0.3018  0.3996
   20MOL   H65318931   6.876   3.974   1.061  1.0384 -1.1769 -2.3501
   20MOL   H65418932   6.794   3.749   1.081  0.8834  1.4776 -1.5358
   20MOL   H65518933   6.627   3.799   1.085  0.1319 -0.0439  0.1841
   20MOL   H65618934   6.683   3.936   1.293  0.8589 -1.0301  0.3920
   20MOL   H65718935   6.834   3.839   1.291 -0.2407  0.1963  2.0941
   20MOL   H65818936   6.734   3.629   1.298  1.3278  0.1302  1.6963
   20MOL   H65918937   6.576   3.689   1.318  0.1368 -3.6568  1.8889
   20MOL   H66018938   6.669   3.817   1.530 -2.6655 -0.5463  0.4690
   20MOL   H66118939   6.813   3.725   1.499  0.0122  3.2453 -0.6161
   20MOL   H66218940   6.521   3.598   1.510 -0.5627 -0.9344  0.1455
   20MOL   H66318941   6.671   3.508   1.545 -0.2120 -0.1759 -0.8683
   20MOL   H66418942   6.564   3.741   1.707  1.7422  0.3302 -1.0445
   20MOL   H66518943   6.697   3.647   1.745  0.0908  0.1215  0.2761
   20MOL   H66618944   6.416   3.299   1.784 -0.2826 -0.7814  0.5869
   20MOL   H66718945   6.514   3.244   1.916 -2.6511 -1.8851  0.9264
   20MOL   H66818946   6.306   3.334   2.007  0.0983 -0.8252 -0.4313
   20MOL   H66918947   6.321   3.479   1.914 -1.5223  0.6597  1.4684
   20MOL   H67018948   6.539   3.528   2.063 -1.1061  0.6541 -0.1959
   20MOL   H67118949   6.492   3.393   2.147 -0.6784 -2.1538 -3.4393
   20MOL   H67218950   6.394   3.593   2.272  0.8021  1.1376 -1.1049
   20MOL   H67318951   6.266   3.515   2.204  0.8323 -0.1362  1.9759
   20MOL   O67418952   6.253   3.773   2.182  0.4181 -0.3784  0.2899
   20MOL   C67518953   6.224   3.906   2.125  0.0091  0.0985 -0.0886
   20MOL   C67618954   6.142   4.005   2.214 -0.6303 -0.2872 -0.7139
   20MOL   C67718955   6.203   4.027   2.350 -0.0020 -0.5396 -0.5124
   20MOL   C67818956   6.127   4.135   2.438  0.0631  0.5190  0.8398
   20MOL   C67918957   6.158   4.116   2.591 -0.1740  0.0083  0.3048
   20MOL   C68018958   6.086   4.228   2.675 -0.4201 -0.1527 -0.5358
   20MOL   C68118959   6.165   4.362   2.672 -0.0569  0.0886  0.1734
   20MOL   C68218960   6.091   4.467   2.755 -0.0631 -0.6740 -0.5133
   20MOL   C68318961   6.172   4.600   2.780 -0.3237  1.3430 -0.1289
   20MOL   C68418962   6.093   4.701   2.870 -0.5037  0.1196  0.6431
   20MOL   O68518963   6.172   4.823   2.879 -0.4986  0.1933 -0.3635
   20MOL   C68618964   6.150   4.924   2.963  0.4616  0.6601 -0.2975
   20MOL   O68718965   6.052   4.930   3.037 -0.0017 -0.8590 -0.0240
   20MOL   C68818966   6.256   5.033   2.955  0.4727 -0.0720 -0.1856
   20MOL   C68918967   6.402   4.985   2.998 -0.4300 -0.8415 -0.2999
   20MOL   C69018968   6.505   5.104   2.989 -0.0353 -0.0279 -0.3115
   20MOL   C69118969   6.472   5.222   3.088 -0.6513  0.1622 -0.4126
   20MOL   C69218970   6.547   5.354   3.046  0.2777  0.2594 -1.0858
   20MOL   O69318971   6.639   5.355   2.961 -0.2221  0.3506  0.1074
   20MOL   H69418972   6.318   3.955   2.097 -0.1995  0.8356  0.4818
   20MOL   H69518973   6.163   3.889   2.036 -0.8910 -1.9460  0.8850
   20MOL   H69618974   6.042   3.964   2.232 -0.1963 -1.9585 -1.9696
   20MOL   H69718975   6.132   4.106   2.175  0.8006  0.6211  1.1546
   20MOL   H69818976   6.205   3.930   2.398 -0.4309  0.3372  1.3213
   20MOL   H69918977   6.304   4.059   2.324  0.2955 -0.9370  0.1444
   20MOL   H70018978   6.020   4.131   2.418  0.0266 -0.3084  1.2199
   20MOL   H70118979   6.148   4.237   2.403  1.8803  0.1138  0.6769
   20MOL   H70218980   6.265   4.123   2.606 -0.4273 -0.1518  2.2625
   20MOL   H70318981   6.122   4.017   2.619 -2.7065  0.8173  0.0420
   20MOL   H70418982   6.084   4.194   2.778  2.2580 -0.2059 -0.4457
   20MOL   H70518983   5.985   4.233   2.635 -0.4073 -2.2427 -0.8709
   20MOL   H70618984   6.191   4.405   2.575 -1.2810 -0.8874 -0.5993
   20MOL   H70718985   6.259   4.350   2.726 -0.8427 -0.3444  1.4685
   20MOL   H70818986   6.076   4.427   2.855 -1.5952 -0.3368 -0.5900
   20MOL   H70918987   5.989   4.487   2.720 -0.2543  2.5337  1.7045
   20MOL   H71018988   6.268   4.564   2.819 -0.7059 -0.7101 -0.9905
   20MOL   H71118989   6.191   4.636   2.679  0.3685  1.3764  0.0057
   20MOL   H71218990   6.071   4.661   2.969 -0.1146  2.8522  1.8731
   20MOL   H71318991   5.994   4.726   2.831 -1.5079 -1.0135  2.4104
   20MOL   H71418992   6.252   5.084   2.859 -0.6245  0.2505  0.0288
   20MOL   H71518993   6.223   5.104   3.031 -3.4299 -0.2249 -1.6712
   20MOL   H71618994   6.427   4.897   2.940 -2.3097 -2.9946  2.0437
   20MOL   H71718995   6.394   4.941   3.098  0.1144 -1.3018 -0.4615
   20MOL   H71818996   6.496   5.142   2.888 -2.0835 -1.9786 -0.9008
   20MOL   H71918997   6.612   5.082   2.993 -0.1647 -0.4364  2.5800
   20MOL   H72018998   6.503   5.188   3.187 -1.0527 -0.5045 -0.5129
   20MOL   H72118999   6.369   5.250   3.109 -0.3675  0.9048  0.0350
   20MOL   O72219000   6.507   5.467   3.111 -0.7264 -0.2466 -0.0318
   20MOL   C72319001   6.548   5.597   3.068 -0.2939 -0.7571  0.6299
   20MOL   C72419002   6.531   5.697   3.182  0.3748 -0.6612  0.2024
   20MOL   C72519003   6.391   5.751   3.197 -0.0401 -0.0987  0.4800
   20MOL   C72619004   6.377   5.864   3.301  0.4666  0.2415  0.6556
   20MOL   C72719005   6.375   5.806   3.448  0.9554  0.2653 -0.4992
   20MOL   C72819006   6.277   5.886   3.535  0.2880 -0.3564  0.0756
   20MOL   C72919007   6.348   6.010   3.595  0.4904  0.5022  0.0951
   20MOL   C73019008   6.249   6.110   3.660  0.4885 -0.5181 -0.0048
   20MOL   C73119009   6.308   6.232   3.730 -1.0313 -0.3411 -0.4097
   20MOL   C73219010   6.204   6.313   3.804  0.7542  0.4608  0.1085
   20MOL   O73319011   6.243   6.440   3.853 -0.6475 -0.0404  0.1583
   20MOL   C73419012   6.159   6.492   3.942  0.2707 -0.0609 -0.0321
   20MOL   O73519013   6.047   6.449   3.973  0.6760  0.3614  0.1107
   20MOL   C73619014   6.204   6.621   4.002 -0.6288  0.5471  0.3877
   20MOL   C73719015   6.100   6.724   3.965 -0.1808  0.8838  0.2953
   20MOL   C73819016   6.092   6.765   3.817 -0.7914 -0.7544 -0.5163
   20MOL   C73919017   6.218   6.852   3.777 -0.0787  1.0518 -0.2313
   20MOL   C74019018   6.193   6.940   3.656 -0.1275  0.1576 -0.8908
   20MOL   O74119019   6.225   7.061   3.652  0.5323  0.0594 -0.6353
   20MOL   H74219020   6.650   5.583   3.031 -0.0842  0.5894  0.6765
   20MOL   H74319021   6.488   5.626   2.982  0.7822 -0.5546 -0.0632
   20MOL   H74419022   6.584   5.788   3.152  0.8803 -1.1643 -0.4241
   20MOL   H74519023   6.577   5.661   3.273  0.8700 -2.5916 -0.8024
   20MOL   H74619024   6.342   5.789   3.106 -0.2361 -0.5438  0.4004
   20MOL   H74719025   6.334   5.660   3.213 -0.5944 -0.0720 -1.1985
   20MOL   H74819026   6.281   5.913   3.284 -0.1575 -1.0609  0.3690
   20MOL   H74919027   6.457   5.938   3.304  1.1314 -0.3696 -1.2001
   20MOL   H75019028   6.469   5.824   3.500 -0.7656  1.5543  2.2489
   20MOL   H75119029   6.349   5.700   3.446 -0.1074  0.5123  0.0926
   20MOL   H75219030   6.257   5.817   3.618 -1.3036 -1.0393 -0.8482
   20MOL   H75319031   6.184   5.910   3.483 -0.0646  1.2279  1.3973
   20MOL   H75419032   6.390   6.074   3.518  0.0017 -1.5224 -1.9162
   20MOL   H75519033   6.432   5.984   3.660  0.9857 -2.2033 -1.5679
   20MOL   H75619034   6.190   6.058   3.736  0.9375  0.8357  1.2767
   20MOL   H75719035   6.181   6.146   3.582  2.5197 -0.2428 -1.6777
   20MOL   H75819036   6.397   6.193   3.780 -0.3545  1.6750  0.0039
   20MOL   H75919037   6.357   6.296   3.657 -0.9647 -0.2030 -0.2447
   20MOL   H76019038   6.160   6.241   3.873 -1.0264  0.5364 -0.9288
   20MOL   H76119039   6.119   6.321   3.737 -0.9896  1.5923  2.4041
   20MOL   H76219040   6.191   6.612   4.110 -1.9476 -2.3571  0.0423
   20MOL   H76319041   6.302   6.650   3.964 -1.8804  0.7028 -2.8202
   20MOL   H76419042   6.107   6.808   4.034  0.0366  0.7049  0.4854
   20MOL   H76519043   6.004   6.678   3.989 -0.7204  0.4707 -2.4483
   20MOL   H76619044   6.001   6.825   3.807 -1.1476 -1.0985  0.6258
   20MOL   H76719045   6.076   6.674   3.758 -0.5509  0.1855 -2.0558
   20MOL   H76819046   6.305   6.789   3.761  0.1149  0.8077  1.6882
   20MOL   H76919047   6.237   6.927   3.853 -0.0712 -0.6912  1.5034
   20MOL   O77019048   6.124   6.870   3.568  0.1947 -0.1986  0.2669
   20MOL   C77119049   6.102   6.918   3.437 -0.1482 -0.2139  0.4891
   20MOL   C77219050   5.961   6.969   3.426 -0.7560  0.3249 -0.2641
   20MOL   C77319051   5.920   7.004   3.284  0.9043  0.1005 -0.2737
   20MOL   C77419052   5.775   7.048   3.280  0.1251  0.0009  0.2165
   20MOL   C77519053   5.746   7.087   3.131  0.0453  0.1262 -0.1668
   20MOL   C77619054   5.591   7.088   3.119  0.1335  0.2810 -0.0773
   20MOL   C77719055   5.552   7.124   2.975 -0.5083 -0.4682  0.6111
   20MOL   C77819056   5.402   7.110   2.935 -0.1911  0.0959  0.1142
   20MOL   C77919057   5.328   7.230   2.987 -0.6945  0.4663 -0.1178
   20MOL   C78019058   5.180   7.233   2.938 -0.0264  0.8424  0.0364
   20MOL   O78119059   5.118   7.344   3.004 -0.0730 -0.4655  0.4628
   20MOL   C78219060   4.991   7.337   3.054 -0.6915  0.0288  0.5016
   20MOL   O78319061   4.922   7.238   3.042  0.0107  0.5181 -0.4692
   20MOL   C78419062   4.939   7.472   3.105 -0.5999 -0.2812 -0.0533
   20MOL   C78519063   4.852   7.461   3.235  0.6093 -0.3595 -0.5302
   20MOL   C78619064   4.707   7.407   3.205  0.0936 -0.3628  0.4649
   20MOL   C78719065   4.602   7.413   3.317 -0.0978  0.8190 -0.2773
   20MOL   C78819066   4.562   7.552   3.366  0.3714  0.0168 -0.3924
   20MOL   O78919067   4.461   7.613   3.331 -0.1576  0.3482  0.0767
   20MOL   H79019068   6.171   6.998   3.415 -0.5987 -0.6766 -2.7932
   20MOL   H79119069   6.136   6.836   3.373  2.9418  1.6539 -0.3290
   20MOL   H79219070   5.943   7.058   3.487 -0.9294 -0.2462  0.5312
   20MOL   H79319071   5.899   6.890   3.468 -0.4168  0.0118 -0.3625
   20MOL   H79419072   5.981   7.092   3.264  2.0451 -0.3042  1.2958
   20MOL   H79519073   5.956   6.929   3.214 -0.3262 -0.4878 -0.3028
   20MOL   H79619074   5.762   7.131   3.349 -1.7519  0.8097 -1.0514
   20MOL   H79719075   5.710   6.967   3.313 -0.2071  0.8664  1.7363
   20MOL   H79819076   5.778   7.006   3.066 -0.3241  1.2313 -1.7596
   20MOL   H79919077   5.792   7.184   3.110 -0.6655  0.2085 -1.3799
   20MOL   H80019078   5.551   7.168   3.181 -2.7797 -0.0630 -1.3947
   20MOL   H80119079   5.554   6.990   3.149 -1.6454  0.3582 -1.9180
   20MOL   H80219080   5.606   7.060   2.905 -0.3936 -1.6162  1.7269
   20MOL   H80319081   5.592   7.224   2.961  0.4679 -0.9527 -0.2264
   20MOL   H80419082   5.353   7.023   2.979  0.2412 -0.8590 -1.2557
   20MOL   H80519083   5.393   7.091   2.828  1.4871  0.7979 -0.1594
   20MOL   H80619084   5.320   7.222   3.095 -0.2777  2.9394  0.1303
   20MOL   H80719085   5.379   7.324   2.965 -0.2241 -0.0390 -1.2258
   20MOL   H80819086   5.134   7.140   2.972  0.2588 -0.2292 -2.4162
   20MOL   H80919087   5.165   7.236   2.830 -0.6529 -1.3627  0.0394
   20MOL   H81019088   5.019   7.543   3.126 -1.3365 -0.1335  2.3676
   20MOL   H81119089   4.874   7.516   3.029 -1.5832  0.6329  1.2977
   20MOL   H81219090   4.853   7.559   3.283 -2.8814 -1.0618  1.1036
   20MOL   H81319091   4.893   7.397   3.313  0.5260 -2.5799 -2.2781
   20MOL   H81419092   4.722   7.307   3.164 -3.4198 -0.1910 -1.4584
   20MOL   H81519093   4.663   7.474   3.130 -0.7381 -2.7583 -1.2288
   20MOL   H81619094   4.627   7.359   3.408 -2.2244  0.7603  0.2933
   20MOL   H81719095   4.506   7.372   3.288  0.1816  1.5449 -2.2974
   20MOL   O81819096   4.661   7.588   3.443 -0.1355  0.1821 -0.6935
   20MOL   C81919097   4.664   7.719   3.499 -0.1126  0.0608 -0.2954
   20MOL   C82019098   4.809   0.005   3.517 -0.4018 -0.2066  0.0304
   20MOL   C82119099   4.815   0.148   3.569  0.5433  0.6113 -0.1885
   20MOL   C82219100   4.953   0.192   3.617  0.1913 -0.3334  0.3698
   20MOL   C82319101   4.953   0.341   3.664 -0.1469 -0.3949 -0.4941
   20MOL   C82419102   5.099   0.390   3.687  0.2163 -0.0986  0.5020
   20MOL   C82519103   5.107   0.530   3.752 -0.4277 -0.4259  0.2314
   20MOL   C82619104   5.083   0.646   3.642  0.3899  0.0748 -1.0665
   20MOL   C82719105   5.073   0.781   3.711  0.7183 -0.3957 -0.0952
   20MOL   C82819106   5.042   0.888   3.597  0.4188  0.1644  0.0528
   20MOL   O82919107   5.158   0.920   3.523  0.4506  1.1554  0.3474
   20MOL   C83019108   5.158   0.899   3.389 -0.4471 -0.0724 -0.5672
   20MOL   O83119109   5.062   0.858   3.329 -0.9925  0.2961  0.1578
   20MOL   C83219110   5.288   0.934   3.321 -0.0780  0.1973  0.6218
   20MOL   C83319111   5.410   0.854   3.365 -0.6525  0.0867 -0.3345
   20MOL   C83419112   5.392   0.699   3.331  0.1973  0.5280 -0.9799
   20MOL   C83519113   5.514   0.609   3.351  1.0152 -0.8770 -0.1532
   20MOL   C83619114   5.560   0.594   3.498  0.4119  0.2939  0.5576
   20MOL   O83719115   5.482   0.590   3.594  0.3009  0.2807  0.4307
   20MOL   H83819116   4.610   0.025   3.436  0.5960  0.4792 -0.4416
   20MOL   H83919117   4.619   7.722   3.598 -1.2629  1.0333 -0.8420
   20MOL   H84019118   4.854   0.007   3.417  1.6071 -1.0075  0.9002
   20MOL   H84119119   4.872   7.711   3.583  1.3647 -0.6238 -1.9783
   20MOL   H84219120   4.772   0.227   3.508 -2.1274 -1.3140 -0.8674
   20MOL   H84319121   4.750   0.157   3.656 -1.6611  3.6216 -2.0346
   20MOL   H84419122   5.024   0.185   3.535 -2.4592  0.3675 -2.0654
   20MOL   H84519123   4.987   0.123   3.694  0.9883  1.2484  1.4620
   20MOL   H84619124   4.900   0.344   3.759  0.0277 -0.5864 -0.3905
   20MOL   H84719125   4.897   0.404   3.594  1.2216 -0.6166 -1.8008
   20MOL   H84819126   5.161   0.392   3.598  1.0937 -2.0748  1.0360
   20MOL   H84919127   5.154   0.324   3.755 -0.0538 -1.0621 -0.2055
   20MOL   H85019128   5.211   0.547   3.782  0.0006  1.0946 -1.9554
   20MOL   H85119129   5.044   0.551   3.838  1.0304  2.9996  0.5526
   20MOL   H85219130   4.988   0.623   3.596  0.5076 -3.5536  0.2977
   20MOL   H85319131   5.171   0.649   3.577  2.1504 -1.3560  1.1727
   20MOL   H85419132   4.994   0.777   3.786 -0.7954 -0.2554 -1.6603
   20MOL   H85519133   5.165   0.803   3.766  0.7601  1.2671 -0.8137
   20MOL   H85619134   4.996   0.980   3.634 -2.0809 -1.1967  0.4584
   20MOL   H85719135   4.959   0.856   3.534 -0.0423  1.4696 -0.0177
   20MOL   H85819136   5.274   0.917   3.214  1.7596 -2.4009  0.7538
   20MOL   H85919137   5.292   1.042   3.337 -0.8177  0.7109 -2.2580
   20MOL   H86019138   5.421   0.882   3.469 -0.6700 -1.5018  0.1162
   20MOL   H86119139   5.494   0.898   3.312  0.9361  0.6926  2.6213
   20MOL   H86219140   5.351   0.689   3.230  0.1063 -1.1245 -0.7992
   20MOL   H86319141   5.319   0.656   3.399  0.4570  2.5736  0.6200
   20MOL   H86419142   5.594   0.633   3.281  0.6073 -0.7621 -0.5807
   20MOL   H86519143   5.487   0.509   3.316 -0.1856 -0.2600 -1.0323
   20MOL   O86619144   5.696   0.583   3.503 -0.3694  0.2315  0.6400
   20MOL   C86719145   5.754   0.530   3.613  0.2591 -0.0169 -0.4860
   20MOL   C86819146   5.902   0.545   3.619 -0.1613  0.5169  0.5159
   20MOL   C86919147   5.981   0.539   3.764  0.5501  0.4178 -0.1719
   20MOL   C87019148   6.128   0.565   3.753  0.1581  0.2124 -0.3305
   20MOL   C87119149   6.174   0.705   3.720  0.5156  0.1852  0.2589
   20MOL   C87219150   6.325   0.724   3.730  0.5710 -0.1235  0.1504
   20MOL   C87319151   6.378   0.865   3.729 -0.2808  0.1355  0.4676
   20MOL   C87419152   6.398   0.916   3.587  0.1638 -0.2759  0.2132
   20MOL   C87519153   6.423   1.069   3.587 -0.0985 -0.3262 -0.6665
   20MOL   C87619154   6.454   1.138   3.448 -0.9718 -0.2730 -0.3588
   20MOL   O87719155   6.578   1.096   3.398 -0.1006  0.2729 -0.9534
   20MOL   C87819156   6.687   1.158   3.436 -0.7011  0.4525 -1.1294
   20MOL   O87919157   6.694   1.263   3.504  0.6420 -0.4483  0.1072
   20MOL   C88019158   6.818   1.097   3.381  0.0896 -0.3060  0.2442
   20MOL   C88119159   6.860   0.965   3.446  0.0468  0.0540 -0.0326
   20MOL   C88219160   6.942   0.986   3.581  0.0472 -0.1102 -0.0891
   20MOL   C88319161   6.973   0.858   3.665  0.5233  0.5059  0.5201
   20MOL   C88419162   6.857   0.789   3.738  0.0388 -1.0386 -0.3571
   20MOL   O88519163   6.742   0.816   3.717 -0.2807  0.0049 -0.6343
   20MOL   H88619164   5.708   0.578   3.700 -0.2124  0.8647 -1.2115
   20MOL   H88719165   5.718   0.427   3.617 -0.4911  0.3069  2.4544
   20MOL   H88819166   5.917   0.645   3.579  0.3026  0.1083 -0.3386
   20MOL   H88919167   5.954   0.486   3.544  0.2850  2.3753 -0.6554
   20MOL   H89019168   5.927   0.607   3.830  0.3489  0.4224 -0.3400
   20MOL   H89119169   5.970   0.441   3.810 -0.4341  0.8832  0.6021
   20MOL   H89219170   6.175   0.482   3.701  0.3764 -0.3401  0.7283
   20MOL   H89319171   6.166   0.550   3.854  1.3230 -0.9531 -0.9229
   20MOL   H89419172   6.128   0.766   3.798  1.2032 -0.1346  0.9213
   20MOL   H89519173   6.137   0.742   3.624  0.6108 -0.9370 -0.2117
   20MOL   H89619174   6.377   0.672   3.649 -0.5000 -0.8664 -0.0679
   20MOL   H89719175   6.367   0.674   3.818 -1.2631  0.3559  1.3107
   20MOL   H89819176   6.474   0.857   3.779 -0.4664  3.9505  1.6292
   20MOL   H89919177   6.307   0.930   3.780 -1.5804  0.4749 -1.7016
   20MOL   H90019178   6.314   0.889   3.524  0.9734  0.0195 -1.0094
   20MOL   H90119179   6.493   0.874   3.553  1.2332  1.8076  0.5035
   20MOL   H90219180   6.329   1.110   3.623  0.2370  0.4113 -0.5966
   20MOL   H90319181   6.499   1.086   3.664 -1.4675  3.0975  0.0328
   20MOL   H90419182   6.451   1.247   3.458 -1.5169 -0.2851 -0.3345
   20MOL   H90519183   6.381   1.101   3.377 -1.0959  0.1409 -0.4518
   20MOL   H90619184   6.807   1.084   3.273 -2.0219 -0.2158  0.4289
   20MOL   H90719185   6.901   1.167   3.384 -0.2037 -0.0034  1.4646
   20MOL   H90819186   6.909   0.911   3.366  0.3189  0.5023 -0.1727
   20MOL   H90919187   6.771   0.914   3.483 -0.6113 -0.4253 -2.2404
   20MOL   H91019188   6.886   1.057   3.642 -0.1674 -0.5701  0.2499
   20MOL   H91119189   7.040   1.026   3.557  0.2452 -1.5628 -1.8340
   20MOL   H91219190   7.047   0.888   3.739 -0.5152  2.5258  0.7959
   20MOL   H91319191   7.024   0.781   3.608 -1.9567 -0.3475 -0.6316
   20MOL   O91419192   6.905   0.695   3.824  1.0227  0.2295  0.2932
   20MOL   C91519193   6.807   0.615   3.885 -0.5747  0.4773 -0.3541
   20MOL   C91619194   6.733   0.516   3.794 -0.1820  0.6691 -0.3198
   20MOL   C91719195   6.670   0.404   3.878 -0.3238  0.2365 -0.3876
   20MOL   C91819196   6.586   0.325   3.780  0.2659  0.1682  0.4581
   20MOL   C91919197   6.439   0.375   3.753 -0.1276 -0.6901  0.7185
   20MOL   C92019198   6.348   0.264   3.685  0.4165  0.1495  0.3829
   20MOL   C92119199   6.327   0.305   3.536 -0.4964  0.4237 -0.2347
   20MOL   C92219200   6.199   0.254   3.468 -0.3343  0.3018  0.2213
   20MOL   C92319201   6.195   0.273   3.317 -0.7507  0.3901 -0.1180
   20MOL   C92419202   6.046   0.255   3.276 -0.7495 -0.0142 -0.8350
   20MOL   O92519203   6.007   0.115   3.273 -0.4462 -0.2453 -0.0478
   20MOL   C92619204   6.054   0.037   3.176  0.0136  0.7768  0.3732
   20MOL   O92719205   6.104   0.071   3.068  0.4159 -0.3935  0.4689
   20MOL   C92819206   6.036   7.654   3.199  0.3084 -0.9178 -0.2775
   20MOL   C92919207   6.083   7.594   3.330  0.4782  0.6058  0.5884
   20MOL   C93019208   6.158   7.461   3.308 -0.0781  0.2508 -0.2944
   20MOL   C93119209   6.204   7.395   3.443 -0.1966 -0.6393 -0.4243
   20MOL   C93219210   6.090   7.367   3.543 -0.4232 -1.2647  0.2649
   20MOL   O93319211   5.979   7.319   3.506 -0.1932 -0.1793 -0.3315
   20MOL   H93419212   6.857   0.560   3.965 -1.8745 -0.1410  0.0451
   20MOL   H93519213   6.729   0.680   3.923 -1.4985 -1.0364  0.3761
   20MOL   H93619214   6.811   0.472   3.732 -0.0889  0.8619 -0.3388
   20MOL   H93719215   6.654   0.569   3.742 -0.7748  1.0401  0.9240
   20MOL   H93819216   6.745   0.337   3.920 -1.3106 -0.4297  0.3348
   20MOL   H93919217   6.621   0.454   3.962  0.3906 -3.2983  2.2163
   20MOL   H94019218   6.568   0.230   3.831  0.7332 -1.4078 -2.2206
   20MOL   H94119219   6.631   0.295   3.686 -1.5432 -1.2272  0.0148
   20MOL   H94219220   6.446   0.469   3.699 -0.8679 -0.2759  1.3423
   20MOL   H94319221   6.388   0.401   3.846 -0.9267  0.1821  0.0378
   20MOL   H94419222   6.256   0.260   3.742  0.7573 -1.8361  0.8586
   20MOL   H94519223   6.406   0.173   3.702 -0.2721  0.2721  3.6057
   20MOL   H94619224   6.419   0.269   3.489 -0.6235 -1.7684  1.1029
   20MOL   H94719225   6.335   0.414   3.537  1.9292  0.3019 -2.0199
   20MOL   H94819226   6.112   0.299   3.516 -1.1626  0.2628 -1.2297
   20MOL   H94919227   6.189   0.148   3.488 -0.4268  0.3475  0.4232
   20MOL   H95019228   6.216   0.378   3.293 -1.5542 -0.2960 -4.3392
   20MOL   H95119229   6.258   0.201   3.266 -0.9959 -2.1471  3.0564
   20MOL   H95219230   6.032   0.305   3.181 -1.3966 -1.3198 -1.4451
   20MOL   H95319231   5.975   0.308   3.341  0.8612  0.8261  0.2653
   20MOL   H95419232   5.928   7.641   3.192  0.1999  0.2034 -0.8591
   20MOL   H95519233   6.074   7.600   3.113  1.1066 -0.1061 -0.4446
   20MOL   H95619234   5.995   7.588   3.393 -1.0304  1.9913 -1.3077
   20MOL   H95719235   6.146   7.668   3.380  0.0215  1.0041  0.5815
   20MOL   H95819236   6.240   7.472   3.238  0.8876  0.4449  0.8449
   20MOL   H95919237   6.080   7.393   3.273 -0.0487 -0.3666  0.7941
   20MOL   H96019238   6.270   7.460   3.501 -0.2496 -1.0042  0.0473
   20MOL   H96119239   6.261   7.304   3.422  0.5933 -0.4590  0.8505
   20MOL   H96219240   6.119   7.389   3.646  0.3378  0.9322 -0.3938
   21MOL     O119241   3.095   5.760   0.269 -0.2275 -0.1002 -0.2234
   21MOL     C219242   3.231   5.753   0.305  0.5665  0.3325 -0.6330
   21MOL     C319243   3.286   5.896   0.339 -0.5996  0.4029 -0.0443
   21MOL     C419244   3.430   5.888   0.372  0.3308 -0.0376 -1.0830
   21MOL     C519245   3.465   5.820   0.508 -0.3575  0.2158 -0.0644
   21MOL     C619246   3.618   5.799   0.521  0.0061 -0.1491 -0.7704
   21MOL     C719247   3.684   5.847   0.655  0.2294  0.1319 -0.0954
   21MOL     C819248   3.639   5.747   0.765  0.2962 -0.0862 -0.0249
   21MOL     C919249   3.708   5.606   0.774 -0.4174  0.3734 -0.8249
   21MOL    C1019250   3.641   5.523   0.879  0.6611 -0.1618 -0.1327
   21MOL    C1119251   3.713   5.387   0.905  0.9175 -0.1025  0.3839
   21MOL    O1219252   3.633   5.295   0.984 -0.1902  0.2183 -0.1498
   21MOL    C1319253   3.652   5.304   1.117 -0.8231 -0.3552 -0.5876
   21MOL    O1419254   3.726   5.384   1.176 -0.2365  0.4975 -0.6353
   21MOL    C1519255   3.563   5.215   1.210 -0.8209  0.5442  0.2241
   21MOL    C1619256   3.419   5.260   1.223  0.2002 -0.4661 -0.3401
   21MOL    C1719257   3.323   5.160   1.272  0.2665 -0.5154 -0.2656
   21MOL    C1819258   3.324   5.126   1.423 -0.2977  0.3257  0.4579
   21MOL    C1919259   3.244   5.224   1.511  0.6614 -0.4119 -0.7183
   21MOL    O2019260   3.127   5.259   1.484 -0.3565 -0.1351  0.1048
   21MOL    H2119261   3.246   5.675   0.379 -1.6843 -0.1445 -0.6262
   21MOL    H2219262   3.287   5.719   0.218  1.6225  1.9969 -0.6235
   21MOL    H2319263   3.246   5.954   0.423 -0.2875  0.2903  0.1838
   21MOL    H2419264   3.268   5.949   0.246  4.7023  0.5071 -1.1876
   21MOL    H2519265   3.475   5.833   0.290 -0.0296  0.7599 -1.8185
   21MOL    H2619266   3.478   5.986   0.366  0.8704 -0.4239 -3.3576
   21MOL    H2719267   3.415   5.723   0.517  1.7692 -0.6863  2.7042
   21MOL    H2819268   3.422   5.881   0.587 -1.3765 -2.3675  1.4431
   21MOL    H2919269   3.667   5.856   0.442  2.9293 -2.3099 -0.6023
   21MOL    H3019270   3.644   5.697   0.493 -0.2215 -0.2942 -0.4669
   21MOL    H3119271   3.666   5.951   0.680  1.5031  0.5908 -1.0414
   21MOL    H3219272   3.792   5.851   0.638  0.1232 -0.4733 -0.9616
   21MOL    H3319273   3.532   5.726   0.761  0.0690  0.8849  0.8347
   21MOL    H3419274   3.666   5.788   0.862  1.2911 -0.2592 -0.2203
   21MOL    H3519275   3.815   5.605   0.790 -0.5702  1.7420  0.3496
   21MOL    H3619276   3.692   5.547   0.683 -2.4578 -0.3348 -0.0498
   21MOL    H3719277   3.622   5.573   0.974  5.2799 -0.4982  1.1088
   21MOL    H3819278   3.543   5.492   0.844  0.6643  1.2553 -1.4452
   21MOL    H3919279   3.819   5.394   0.929  1.5242  1.0724 -2.3865
   21MOL    H4019280   3.717   5.335   0.810 -0.5070  1.4326 -0.5635
   21MOL    H4119281   3.565   5.113   1.172  2.6799  0.3183  0.8932
   21MOL    H4219282   3.618   5.219   1.304  0.4986  1.5564 -0.5747
   21MOL    H4319283   3.376   5.277   1.124 -0.7788  2.7598  0.5632
   21MOL    H4419284   3.410   5.354   1.278 -1.0283 -1.5562  1.3656
   21MOL    H4519285   3.326   5.065   1.220 -1.0955 -1.0193  0.5395
   21MOL    H4619286   3.221   5.194   1.254  1.0567  0.3606 -3.3140
   21MOL    H4719287   3.421   5.126   1.472 -0.1390 -0.0852  0.1478
   21MOL    H4819288   3.293   5.023   1.441 -0.9979  0.1849 -1.3663
   21MOL    H4919289   3.043   5.732   0.342  0.0121  1.0587  0.3940
   21MOL    O5019290   3.316   5.267   1.615 -0.0699 -0.4212 -0.2954
   21MOL    C5119291   3.276   5.384   1.690 -1.0149 -0.0266  0.2663
   21MOL    C5219292   3.358   5.509   1.647 -0.3973 -0.7645 -0.9814
   21MOL    C5319293   3.317   5.575   1.507 -0.3412 -0.0253 -0.3198
   21MOL    C5419294   3.414   5.679   1.453 -0.2537  0.3111 -0.6328
   21MOL    C5519295   3.363   5.765   1.335 -0.0299 -0.2004  0.1135
   21MOL    C5619296   3.329   5.683   1.206 -0.1570  0.5530 -0.3404
   21MOL    C5719297   3.298   5.767   1.087 -0.3539  0.3762 -0.0757
   21MOL    C5819298   3.255   5.690   0.959 -0.2229 -0.3457  0.8674
   21MOL    C5919299   3.235   5.781   0.839 -0.1906 -0.7233  0.2270
   21MOL    C6019300   3.188   5.713   0.720  0.3532  0.0270 -0.1546
   21MOL    O6119301   3.057   5.667   0.741  0.4505  0.3473 -0.4096
   21MOL    C6219302   2.961   5.672   0.647 -0.4757 -0.8501  0.2959
   21MOL    O6319303   2.988   5.695   0.527 -0.2661  0.6808 -0.4551
   21MOL    C6419304   2.815   5.663   0.705 -0.8552  0.1141  1.1707
   21MOL    C6519305   2.791   5.551   0.807 -0.1484 -0.2615 -0.8030
   21MOL    C6619306   2.645   5.530   0.836  0.2704 -0.0822  0.2627
   21MOL    C6719307   2.616   5.420   0.944  0.3298 -0.2106 -0.1754
   21MOL    C6819308   2.466   5.390   0.973 -0.1342  0.1804  0.4280
   21MOL    O6919309   2.375   5.454   0.920  0.4478 -0.1347  0.3054
   21MOL    H7019310   3.169   5.404   1.691 -0.9550  0.2905  0.2961
   21MOL    H7119311   3.303   5.359   1.793 -0.1196 -0.0950  0.0220
   21MOL    H7219312   3.464   5.487   1.649 -0.7136 -2.2934  3.4403
   21MOL    H7319313   3.341   5.580   1.728  0.9748 -1.0379 -0.4454
   21MOL    H7419314   3.303   5.495   1.434  1.5262  0.0401 -0.7814
   21MOL    H7519315   3.217   5.614   1.523 -0.4507  0.0664 -1.2409
   21MOL    H7619316   3.510   5.635   1.426  0.4215  0.7744  0.9665
   21MOL    H7719317   3.424   5.755   1.531 -1.4523 -0.1693 -0.0032
   21MOL    H7819318   3.442   5.837   1.312 -0.9794  1.4686  1.9534
   21MOL    H7919319   3.273   5.822   1.356 -0.1063  0.0454 -0.8472
   21MOL    H8019320   3.251   5.609   1.222  0.0701 -0.0773 -2.0411
   21MOL    H8119321   3.416   5.627   1.169  0.6685  1.3240  0.3995
   21MOL    H8219322   3.389   5.824   1.072 -1.7477  2.4263 -0.9496
   21MOL    H8319323   3.220   5.840   1.112  0.7281  2.1782 -1.8669
   21MOL    H8419324   3.161   5.638   0.979 -1.0676  1.2244  1.0410
   21MOL    H8519325   3.326   5.610   0.935 -1.1527 -0.5087 -1.3921
   21MOL    H8619326   3.166   5.860   0.869  2.1700  1.8741 -0.8835
   21MOL    H8719327   3.323   5.837   0.807 -2.0241  2.4659  0.4428
   21MOL    H8819328   3.247   5.635   0.672 -0.2104  0.4065 -1.4702
   21MOL    H8919329   3.195   5.786   0.640  1.3087 -0.5678 -0.6206
   21MOL    H9019330   2.771   5.760   0.731 -0.3074  0.0014  2.5912
   21MOL    H9119331   2.748   5.631   0.625 -0.9919 -0.4602  1.5155
   21MOL    H9219332   2.836   5.583   0.900 -0.8028 -0.5082 -0.3961
   21MOL    H9319333   2.840   5.459   0.775  1.2119  0.3814 -0.5600
   21MOL    H9419334   2.596   5.489   0.748 -0.8669  3.5909 -0.9144
   21MOL    H9519335   2.587   5.622   0.849 -1.4849 -0.9081 -1.4292
   21MOL    H9619336   2.641   5.447   1.047  0.8129 -0.8822 -0.1160
   21MOL    H9719337   2.681   5.336   0.919  0.4090  0.7436 -3.4329
   21MOL    O9819338   2.447   5.283   1.046  0.7336  0.0701 -0.0022
   21MOL    C9919339   2.312   5.239   1.081  0.0032  0.2559 -0.1499
   21MOL   C10019340   2.293   5.084   1.060 -0.2703  0.4528 -0.1695
   21MOL   C10119341   2.302   5.051   0.918  0.3323  0.1225  0.2487
   21MOL   C10219342   2.171   5.081   0.835 -0.0948 -0.5006  0.0841
   21MOL   C10319343   2.201   5.081   0.685  0.2553  0.1846 -0.1701
   21MOL   C10419344   2.086   5.135   0.601  0.1654  0.0809  0.2702
   21MOL   C10519345   2.117   5.153   0.451 -0.4096 -0.4655 -0.3623
   21MOL   C10619346   2.202   5.274   0.417 -0.1152  0.0373 -0.1700
   21MOL   C10719347   2.228   5.283   0.264 -0.6159 -0.0343 -0.3249
   21MOL   C10819348   2.296   5.419   0.228  0.2785  0.7694 -0.4966
   21MOL   O10919349   2.318   5.449   0.088  0.1233 -0.8944 -0.0100
   21MOL   C11019350   2.408   5.367   0.027  0.0258 -0.4036  0.0721
   21MOL   O11119351   2.468   5.275   0.085  0.0046  0.0371 -0.0245
   21MOL   C11219352   2.434   5.390   7.639 -0.3044  0.1959 -0.2242
   21MOL   C11319353   2.542   5.302   7.577 -0.3972 -0.0967  0.0564
   21MOL   C11419354   2.497   5.159   7.556 -0.0387  0.4397 -0.6511
   21MOL   C11519355   2.403   5.132   7.440 -0.2444  0.2228  0.5831
   21MOL   C11619356   2.370   4.984   7.418  0.2815 -0.2968 -0.4117
   21MOL   O11719357   2.398   4.895   7.497 -0.1395  0.2091 -0.4581
   21MOL   H11819358   2.286   5.271   1.181 -0.6729 -0.5644 -0.0623
   21MOL   H11919359   2.237   5.290   1.021 -1.6121 -0.4034  1.2943
   21MOL   H12019360   2.200   5.050   1.106  1.0781  0.8794  3.0218
   21MOL   H12119361   2.372   5.034   1.116  0.9521 -0.6176 -2.8018
   21MOL   H12219362   2.396   5.086   0.875 -0.5964  0.5931 -1.4525
   21MOL   H12319363   2.321   4.943   0.927 -0.8753 -0.0792  0.4622
   21MOL   H12419364   2.143   5.186   0.844 -1.2052 -0.8652  0.9110
   21MOL   H12519365   2.091   5.016   0.869  0.3769 -0.9268  0.3843
   21MOL   H12619366   2.219   4.981   0.646  0.8514 -0.3079  1.3548
   21MOL   H12719367   2.285   5.145   0.659  1.3558 -0.9819  0.5023
   21MOL   H12819368   2.060   5.231   0.647  1.2053  0.3177  0.3962
   21MOL   H12919369   2.005   5.063   0.609  0.8262 -0.4776  2.3817
   21MOL   H13019370   2.026   5.158   0.390 -0.1042  1.0840 -0.7144
   21MOL   H13119371   2.152   5.063   0.400 -2.4489 -0.4310 -1.9207
   21MOL   H13219372   2.291   5.268   0.479 -0.6508 -0.4108  0.5714
   21MOL   H13319373   2.153   5.368   0.443 -1.2356 -0.9992  1.6460
   21MOL   H13419374   2.294   5.201   0.240 -2.3735 -1.6400  0.2133
   21MOL   H13519375   2.140   5.258   0.205 -0.0927 -0.2987 -0.9985
   21MOL   H13619376   2.395   5.419   0.273  1.0999 -0.8684 -2.2127
   21MOL   H13719377   2.244   5.511   0.256  0.1039 -0.1808  2.3910
   21MOL   H13819378   2.342   5.396   7.582 -1.1963  0.2065  1.1873
   21MOL   H13919379   2.472   5.492   7.640  3.0155 -0.9438  1.5575
   21MOL   H14019380   2.620   5.315   7.652 -1.4734 -0.1120  1.1988
   21MOL   H14119381   2.587   5.329   7.482 -1.6615 -1.1558 -0.8503
   21MOL   H14219382   2.450   5.118   7.645 -0.9134 -0.8019 -1.6649
   21MOL   H14319383   2.581   5.091   7.544  2.4326  2.9729  1.6603
   21MOL   H14419384   2.442   5.159   7.342 -2.4583 -3.0084 -1.2498
   21MOL   H14519385   2.317   5.200   7.443 -0.7829 -0.2195 -3.0947
   21MOL   O14619386   2.306   4.960   7.303 -0.0589 -0.7726 -0.3085
   21MOL   C14719387   2.293   4.830   7.256  0.4442 -0.7680  0.2977
   21MOL   C14819388   2.245   4.852   7.108 -0.5501  0.2498 -0.5051
   21MOL   C14919389   2.369   4.879   7.021  0.0489  0.0344  0.3085
   21MOL   C15019390   2.345   4.971   6.895  0.5783  0.3859  0.0302
   21MOL   C15119391   2.477   5.007   6.824  0.3982 -0.1786  0.4755
   21MOL   C15219392   2.446   5.119   6.724 -0.2202 -0.0509 -0.4366
   21MOL   C15319393   2.538   5.127   6.607 -0.1983  0.0292 -0.0185
   21MOL   C15419394   2.678   5.180   6.641  0.1936 -0.3283 -0.4277
   21MOL   C15519395   2.776   5.188   6.518 -0.3706  0.3046  0.1324
   21MOL   C15619396   2.839   5.044   6.494  0.5886 -0.2007  0.2494
   21MOL   O15719397   2.965   5.024   6.568 -0.2080  0.4551  0.4994
   21MOL   C15819398   3.082   5.035   6.501  0.1446  0.1735 -0.4790
   21MOL   O15919399   3.094   5.054   6.381 -0.0438 -0.2953 -0.0798
   21MOL   C16019400   3.202   5.036   6.593 -0.6878  1.0470  0.5396
   21MOL   C16119401   3.187   5.149   6.691 -0.7986  0.4319  0.4719
   21MOL   C16219402   3.209   5.280   6.628 -0.0278 -0.2048  0.0224
   21MOL   C16319403   3.198   5.398   6.729  0.6743 -0.1685 -0.4602
   21MOL   C16419404   3.051   5.420   6.773  0.5208  0.4588  0.5089
   21MOL   O16519405   3.018   5.393   6.889 -0.5784 -0.2823 -0.1218
   21MOL   H16619406   2.388   4.776   7.251  2.1769  2.3482 -2.4279
   21MOL   H16719407   2.221   4.782   7.322 -1.0257 -2.2954 -2.3708
   21MOL   H16819408   2.172   4.933   7.107  0.8317  1.5172 -0.5421
   21MOL   H16919409   2.195   4.772   7.054  1.2719 -0.7021 -0.8237
   21MOL   H17019410   2.445   4.929   7.081 -0.3157 -0.4552  1.1771
   21MOL   H17119411   2.412   4.788   6.978  1.8535  0.4587  1.1558
   21MOL   H17219412   2.299   5.061   6.937  2.2426  0.9273  0.7394
   21MOL   H17319413   2.269   4.920   6.836  0.6088 -1.1448  1.2706
   21MOL   H17419414   2.517   4.915   6.782  1.3080  0.0571  0.8123
   21MOL   H17519415   2.550   5.048   6.894  0.7879  0.0666 -0.0669
   21MOL   H17619416   2.428   5.212   6.777  0.7289 -1.2425  2.0542
   21MOL   H17719417   2.355   5.094   6.670 -1.0882  0.4747  0.7884
   21MOL   H17819418   2.492   5.193   6.534 -2.9605  0.0823  1.6862
   21MOL   H17919419   2.539   5.026   6.567 -3.1245 -0.3212  0.6983
   21MOL   H18019420   2.716   5.137   6.733  1.1338 -2.3928 -1.7451
   21MOL   H18119421   2.653   5.276   6.688 -1.3134 -1.4551  1.1522
   21MOL   H18219422   2.736   5.225   6.423  4.3890  2.1885 -1.3368
   21MOL   H18319423   2.852   5.263   6.543  2.1736 -2.4401  0.8519
   21MOL   H18419424   2.853   5.039   6.386 -3.5045 -0.3851 -0.3641
   21MOL   H18519425   2.778   4.963   6.532 -0.6597  1.4923  1.9708
   21MOL   H18619426   3.216   4.942   6.645  1.0514  1.0553  0.1149
   21MOL   H18719427   3.303   5.038   6.552 -0.6745 -2.2736  0.2892
   21MOL   H18819428   3.263   5.135   6.767 -1.3419 -2.8795  0.4587
   21MOL   H18919429   3.089   5.146   6.740 -0.4547  2.3964  1.3205
   21MOL   H19019430   3.134   5.283   6.549  0.1381  0.8244 -0.1108
   21MOL   H19119431   3.303   5.276   6.572 -1.1941 -0.0585 -2.0120
   21MOL   H19219432   3.243   5.484   6.679  1.0752 -0.6054 -0.8587
   21MOL   H19319433   3.256   5.376   6.818  1.1072  1.7066 -0.2635
   21MOL   O19419434   2.972   5.480   6.681  0.4676  1.0011  0.3077
   21MOL   C19519435   2.847   5.527   6.723 -0.3109  0.1898 -0.0739
   21MOL   C19619436   2.778   5.623   6.619 -0.0174 -0.4706  0.1267
   21MOL   C19719437   2.698   5.551   6.511 -0.1435 -0.1149 -1.1864
   21MOL   C19819438   2.641   5.640   6.397  0.2553  0.2835  0.4790
   21MOL   C19919439   2.563   5.552   6.294  0.3187 -0.0797 -0.7425
   21MOL   C20019440   2.526   5.634   6.176 -0.3421 -0.0241 -0.4196
   21MOL   C20119441   2.486   5.548   6.060 -0.3218 -0.1028  0.2399
   21MOL   C20219442   2.456   5.630   5.928  0.2454 -0.2695 -0.0173
   21MOL   C20319443   2.414   5.545   5.810 -0.1859 -0.1827 -0.8479
   21MOL   C20419444   2.422   5.618   5.673  0.3440 -0.5290 -0.0099
   21MOL   O20519445   2.319   5.712   5.660 -0.0587 -0.1308 -0.0525
   21MOL   C20619446   2.323   5.782   5.549  0.3539 -1.0143  1.3065
   21MOL   O20719447   2.388   5.759   5.449  0.2126  0.2797  0.3968
   21MOL   C20819448   2.223   5.901   5.549 -0.6547  0.6115  0.0206
   21MOL   C20919449   2.078   5.856   5.547  0.7175 -0.2227 -0.3576
   21MOL   C21019450   2.045   5.751   5.438  0.1499 -0.2809  0.3785
   21MOL   C21119451   1.898   5.732   5.404  0.3905  0.0004  0.0570
   21MOL   C21219452   1.812   5.640   5.494  0.6755 -0.0552  0.7029
   21MOL   O21319453   1.857   5.583   5.593  0.7742 -0.1197  0.2690
   21MOL   H21419454   2.772   5.447   6.729 -1.0080  0.7214 -1.4796
   21MOL   H21519455   2.860   5.573   6.821  0.6863  0.4217 -0.3056
   21MOL   H21619456   2.862   5.672   6.571  0.0723 -0.3567  0.4004
   21MOL   H21719457   2.717   5.692   6.678  1.8941  0.2056  1.3415
   21MOL   H21819458   2.766   5.475   6.470 -1.2269 -1.7532 -0.0181
   21MOL   H21919459   2.611   5.497   6.550 -0.2751  0.4731 -0.6780
   21MOL   H22019460   2.720   5.697   6.348 -0.0074  0.9638  0.8328
   21MOL   H22119461   2.566   5.708   6.437 -1.1735 -0.8223 -0.2880
   21MOL   H22219462   2.468   5.508   6.326  0.3700  0.5129  0.2650
   21MOL   H22319463   2.624   5.469   6.258  0.3615 -0.3642 -0.0212
   21MOL   H22419464   2.611   5.692   6.139 -0.3673  0.6631  0.5905
   21MOL   H22519465   2.453   5.711   6.199 -2.3114 -1.9385 -0.1873
   21MOL   H22619466   2.395   5.496   6.090 -1.1836  1.1232 -0.1975
   21MOL   H22719467   2.567   5.479   6.038 -0.4592  0.3730 -1.8486
   21MOL   H22819468   2.542   5.687   5.893 -1.8126  3.1800  0.3228
   21MOL   H22919469   2.381   5.707   5.948 -0.0937 -0.4052 -0.7768
   21MOL   H23019470   2.481   5.459   5.817 -0.6440 -0.4352  0.8627
   21MOL   H23119471   2.311   5.509   5.822 -0.4161  0.6975 -0.1181
   21MOL   H23219472   2.408   5.542   5.596 -1.3018 -1.0951  0.8414
   21MOL   H23319473   2.518   5.668   5.657  0.8471 -0.6219  2.5141
   21MOL   H23419474   2.243   5.957   5.641 -0.3586  0.3988  0.0854
   21MOL   H23519475   2.246   5.963   5.462  0.1414  0.0505 -0.1780
   21MOL   H23619476   2.028   5.949   5.520  2.9960  1.8079  2.0692
   21MOL   H23719477   2.051   5.827   5.648 -0.5459  1.3979 -0.2181
   21MOL   H23819478   2.089   5.655   5.465 -0.7831 -1.2722 -1.4919
   21MOL   H23919479   2.106   5.773   5.350 -0.0397 -0.2825  0.2468
   21MOL   H24019480   1.889   5.690   5.304  2.2145 -0.9936  0.2798
   21MOL   H24119481   1.844   5.826   5.407 -1.0114 -0.8083  0.6360
   21MOL   O24219482   1.690   5.624   5.441 -0.1493  0.4728 -0.2428
   21MOL   C24319483   1.591   5.534   5.500 -0.1633  0.2918 -0.2643
   21MOL   C24419484   1.448   5.597   5.518 -0.6512  0.3610  0.2202
   21MOL   C24519485   1.337   5.494   5.523  0.0230 -0.1026 -0.3175
   21MOL   C24619486   1.210   5.551   5.592 -0.4260  0.4181 -0.0889
   21MOL   C24719487   1.104   5.441   5.608  0.0809 -0.6941 -0.4760
   21MOL   C24819488   0.977   5.489   5.666 -0.9498  0.0540  0.1849
   21MOL   C24919489   0.874   5.394   5.722  0.5959 -0.5037  0.8251
   21MOL   C25019490   0.756   5.474   5.780 -0.1422  0.1503 -0.3042
   21MOL   C25119491   0.658   5.378   5.852  0.3792  0.3763  0.0761
   21MOL   C25219492   0.571   5.466   5.952 -0.4347 -0.2249 -1.0728
   21MOL   O25319493   0.472   5.375   6.008 -0.5801 -0.7215 -1.3090
   21MOL   C25419494   0.354   5.381   5.950 -0.4810 -0.0056 -0.7222
   21MOL   O25519495   0.319   5.469   5.865 -0.0458  0.0980  0.1960
   21MOL   C25619496   0.259   5.275   6.000 -0.1457  0.1338 -0.2407
   21MOL   C25719497   0.264   5.147   5.911 -0.0280 -0.4105  0.7662
   21MOL   C25819498   0.409   5.088   5.903  0.1574  0.2208 -0.0358
   21MOL   C25919499   0.417   4.941   5.853 -0.1854  0.0264 -0.4538
   21MOL   C26019500   0.556   4.885   5.864  0.5037 -0.4553  0.4130
   21MOL   O26119501   0.583   4.811   5.961 -0.3817 -0.3294 -0.0517
   21MOL   H26219502   1.587   5.453   5.427 -2.5308 -2.4498  2.7009
   21MOL   H26319503   1.634   5.480   5.584 -0.1745  0.4902 -0.1325
   21MOL   H26419504   1.437   5.676   5.444 -0.3443 -0.7587 -1.0230
   21MOL   H26519505   1.440   5.640   5.618 -1.7933  2.9936 -0.9557
   21MOL   H26619506   1.312   5.453   5.426 -1.4780 -1.3899  0.5882
   21MOL   H26719507   1.362   5.413   5.591 -3.1492 -0.6959  0.2530
   21MOL   H26819508   1.156   5.627   5.536 -0.6689 -0.0361 -0.4695
   21MOL   H26919509   1.235   5.600   5.686  1.4094 -0.9849  0.1961
   21MOL   H27019510   1.129   5.356   5.671 -0.2433 -0.1690  0.3585
   21MOL   H27119511   1.097   5.387   5.513 -0.0605  1.6768 -1.8432
   21MOL   H27219512   0.923   5.551   5.594  0.4487 -0.8174 -1.6691
   21MOL   H27319513   0.998   5.562   5.745 -0.2578 -0.6424  0.6423
   21MOL   H27419514   0.922   5.331   5.797  2.9329 -0.3322 -0.5018
   21MOL   H27519515   0.856   5.321   5.643  1.1765 -0.0738  0.2905
   21MOL   H27619516   0.702   5.523   5.699  2.1973  2.3167 -0.6274
   21MOL   H27719517   0.800   5.557   5.835  0.1791 -0.3541  0.2034
   21MOL   H27819518   0.607   5.319   5.776  0.0013  1.9308 -0.8966
   21MOL   H27919519   0.712   5.305   5.912  1.9006  1.3450 -0.0906
   21MOL   H28019520   0.537   5.559   5.906  1.0617  1.3352  0.9145
   21MOL   H28119521   0.635   5.505   6.031 -2.2842 -0.7085  0.7093
   21MOL   H28219522   0.287   5.241   6.100 -0.1963 -0.5085 -0.4490
   21MOL   H28319523   0.159   5.316   5.988 -0.7363 -1.1706  0.1584
   21MOL   H28419524   0.212   5.173   5.819  0.0861  1.2607  1.1644
   21MOL   H28519525   0.194   5.086   5.969 -0.1681  0.4688  1.5337
   21MOL   H28619526   0.449   5.085   6.005 -2.0807  0.1176  0.8770
   21MOL   H28719527   0.473   5.145   5.836  1.4758 -0.8394  0.3085
   21MOL   H28819528   0.397   4.928   5.747 -1.9227  1.0313 -0.2758
   21MOL   H28919529   0.352   4.873   5.909  0.5752 -0.0291  0.3683
   21MOL   O29019530   0.635   4.925   5.762 -0.0248 -0.1652  0.4680
   21MOL   C29119531   0.762   4.873   5.747  0.2737 -0.6543 -0.0320
   21MOL   C29219532   0.853   4.989   5.747  0.1023  0.0068  1.3501
   21MOL   C29319533   1.000   4.946   5.734 -0.1631  0.2763 -0.0372
   21MOL   C29419534   1.105   5.057   5.717  0.6486 -0.5107 -0.4260
   21MOL   C29519535   1.244   5.007   5.689  0.6093 -0.2390  0.4190
   21MOL   C29619536   1.330   5.115   5.626  0.0507  0.3561 -0.0761
   21MOL   C29719537   1.472   5.071   5.595 -0.2424 -0.5120 -0.8804
   21MOL   C29819538   1.552   5.189   5.530  0.0974  0.2703 -0.1636
   21MOL   C29919539   1.697   5.140   5.492 -0.2153  0.1034 -0.2186
   21MOL   C30019540   1.776   5.251   5.420  0.1681  0.3398 -0.5295
   21MOL   O30119541   1.707   5.294   5.303  0.1233 -0.0362  0.6670
   21MOL   C30219542   1.777   5.364   5.212 -0.6680 -0.4161  0.1604
   21MOL   O30319543   1.899   5.383   5.223 -0.2384 -0.2581  0.4410
   21MOL   C30419544   1.678   5.417   5.102  0.4815 -0.6779  0.5141
   21MOL   C30519545   1.534   5.444   5.136  0.3739  0.2208 -0.1164
   21MOL   C30619546   1.432   5.465   5.019 -0.3169  0.5826 -0.1026
   21MOL   C30719547   1.289   5.478   5.068  0.5101  1.1691  0.3007
   21MOL   C30819548   1.233   5.620   5.071  0.0321 -0.6785 -0.4128
   21MOL   O30919549   1.136   5.647   5.004 -0.4611 -0.3791 -0.1857
   21MOL   H31019550   0.790   4.799   5.822  0.0885 -0.3373  0.3517
   21MOL   H31119551   0.760   4.809   5.659 -0.4625  0.1681 -0.6209
   21MOL   H31219552   0.832   5.033   5.845  1.1563 -1.8731  2.4496
   21MOL   H31319553   0.830   5.052   5.661 -1.7765  0.3446  2.0884
   21MOL   H31419554   1.029   4.904   5.831 -0.4273  1.5273  0.5876
   21MOL   H31519555   1.012   4.868   5.659 -0.6511  0.3412 -0.1798
   21MOL   H31619556   1.090   5.132   5.794 -2.6212 -0.5003 -0.9918
   21MOL   H31719557   1.085   5.116   5.627 -0.8087  0.2684  0.3947
   21MOL   H31819558   1.234   4.927   5.615  0.9170 -0.5037  0.6581
   21MOL   H31919559   1.299   4.970   5.776 -0.3942 -1.9753  0.3298
   21MOL   H32019560   1.336   5.206   5.685 -2.4232  0.5176 -0.0350
   21MOL   H32119561   1.279   5.140   5.533 -1.1077 -0.6228  0.2749
   21MOL   H32219562   1.465   4.989   5.524  3.1334 -0.3891 -1.4465
   21MOL   H32319563   1.535   5.054   5.683  2.8932  1.6727 -2.6133
   21MOL   H32419564   1.562   5.270   5.602 -0.5550 -1.3537  1.8109
   21MOL   H32519565   1.494   5.230   5.448 -0.6666 -0.6080 -0.0708
   21MOL   H32619566   1.750   5.104   5.580 -0.8293  0.5463  0.3324
   21MOL   H32719567   1.684   5.057   5.422  2.4702 -1.2995  0.8445
   21MOL   H32819568   1.870   5.201   5.394 -0.9138 -0.5604 -2.8673
   21MOL   H32919569   1.797   5.339   5.481  1.7669  1.2674 -2.3509
   21MOL   H33019570   1.715   5.513   5.066 -1.5803  0.7756  2.1801
   21MOL   H33119571   1.669   5.343   5.022 -1.8798  1.1039 -0.9468
   21MOL   H33219572   1.545   5.537   5.192  0.9585 -0.3606  0.7468
   21MOL   H33319573   1.500   5.358   5.193 -1.5702  1.2397  0.3069
   21MOL   H33419574   1.437   5.371   4.964  1.1798  0.0813  0.8532
   21MOL   H33519575   1.473   5.538   4.949  1.7508 -0.1144  0.3386
   21MOL   H33619576   1.278   5.437   5.169 -0.5616  0.6206 -0.0283
   21MOL   H33719577   1.227   5.417   5.002  1.4350  3.7709 -3.0729
   21MOL   O33819578   1.302   5.699   5.159  0.5385  0.3497 -0.2950
   21MOL   C33919579   1.249   5.827   5.174 -0.6559  0.3060 -0.3746
   21MOL   C34019580   1.364   5.925   5.168 -0.8550 -0.7449  0.6019
   21MOL   C34119581   1.313   6.062   5.206 -0.0850 -1.2955  0.6680
   21MOL   C34219582   1.426   6.164   5.238  0.7229 -0.4714  0.2373
   21MOL   C34319583   1.492   6.160   5.378  0.2198 -0.0911 -0.2325
   21MOL   C34419584   1.567   6.295   5.418  0.2215 -0.1200  0.0047
   21MOL   C34519585   1.659   6.348   5.316 -0.3683  0.6746  0.3758
   21MOL   C34619586   1.727   6.482   5.363 -0.5055 -0.0052 -0.9596
   21MOL   C34719587   1.838   6.538   5.276 -0.4051  0.3197 -0.0030
   21MOL   C34819588   1.914   6.667   5.333  0.2039 -0.2064  0.1086
   21MOL   O34919589   1.980   6.626   5.449 -0.3933  0.1669 -0.4324
   21MOL   C35019590   2.116   6.599   5.456  0.2099 -0.4242  0.2552
   21MOL   O35119591   2.192   6.628   5.365  0.5695  0.0096 -0.2255
   21MOL   C35219592   2.162   6.541   5.593 -0.6472 -0.1617  0.3378
   21MOL   C35319593   2.142   6.395   5.599  0.0877  0.1445 -0.7531
   21MOL   C35419594   2.003   6.355   5.654 -0.9087  0.2995 -0.9595
   21MOL   C35519595   1.985   6.200   5.642 -0.1330  0.4702  0.6221
   21MOL   C35619596   1.878   6.140   5.727 -0.5915  0.5087 -0.1077
   21MOL   O35719597   1.828   6.209   5.816 -0.1875 -0.1607 -0.3799
   21MOL   H35819598   1.177   5.857   5.098 -1.6052 -1.1655 -0.0876
   21MOL   H35919599   1.199   5.835   5.271 -0.2831 -1.7034  0.0047
   21MOL   H36019600   1.422   5.935   5.076 -0.1714 -1.3194  0.9605
   21MOL   H36119601   1.435   5.903   5.248  0.4755 -0.2558 -0.4134
   21MOL   H36219602   1.248   6.107   5.131 -0.7584 -0.8133  1.5313
   21MOL   H36319603   1.241   6.047   5.286 -1.0425  2.1324  0.5228
   21MOL   H36419604   1.381   6.263   5.242  1.7975 -0.0664  2.7157
   21MOL   H36519605   1.499   6.163   5.156  1.5917  2.4241  0.9481
   21MOL   H36619606   1.560   6.075   5.385  0.1343 -0.1897 -0.5920
   21MOL   H36719607   1.415   6.157   5.455 -1.0425  0.1519 -1.4648
   21MOL   H36819608   1.608   6.288   5.519  0.9059  0.5136 -0.2325
   21MOL   H36919609   1.499   6.380   5.419 -0.3729 -0.5947  0.2578
   21MOL   H37019610   1.620   6.355   5.214  0.4052  0.2200  0.0447
   21MOL   H37119611   1.740   6.276   5.299  1.1505  2.7690 -1.6277
   21MOL   H37219612   1.763   6.458   5.463  0.1692  1.3302 -0.8669
   21MOL   H37319613   1.652   6.560   5.375  1.0869  1.5604 -0.9796
   21MOL   H37419614   1.921   6.471   5.254  0.6482  1.5487  0.2299
   21MOL   H37519615   1.800   6.558   5.176  2.2008  1.2518 -0.8536
   21MOL   H37619616   1.849   6.748   5.364 -0.3427 -1.0332  1.1296
   21MOL   H37719617   1.989   6.702   5.262 -0.0740  0.3659  0.0996
   21MOL   H37819618   2.270   6.548   5.594 -0.6782  0.4528 -0.3733
   21MOL   H37919619   2.121   6.597   5.678 -0.6347 -0.8594  0.8055
   21MOL   H38019620   2.219   6.355   5.665  0.8567 -0.0076 -1.7343
   21MOL   H38119621   2.167   6.334   5.513 -0.0613 -0.6124 -0.2699
   21MOL   H38219622   1.921   6.396   5.594 -2.6040 -2.0989 -0.3599
   21MOL   H38319623   1.995   6.402   5.753 -0.4316 -0.4857 -0.5496
   21MOL   H38419624   2.073   6.140   5.664 -1.3007 -1.6068 -0.2444
   21MOL   H38519625   1.966   6.185   5.535  0.2731  1.5886  0.3849
   21MOL   O38619626   1.853   6.023   5.689  0.3080  0.3808 -0.2413
   21MOL   C38719627   1.758   5.942   5.754 -1.0084  0.1488  0.1128
   21MOL   C38819628   1.614   5.981   5.721 -0.0908  0.3995  0.1822
   21MOL   C38919629   1.522   5.874   5.758 -0.3216  0.0549  0.1682
   21MOL   C39019630   1.375   5.899   5.720 -0.2841 -0.4394 -0.3107
   21MOL   C39119631   1.296   6.001   5.812  0.0707 -0.3358  0.2035
   21MOL   C39219632   1.159   6.027   5.745 -0.3246 -0.1014  0.1856
   21MOL   C39319633   1.064   5.917   5.715  0.4937 -0.4190  0.0454
   21MOL   C39419634   0.936   5.960   5.644  0.6514 -0.1816  0.1589
   21MOL   C39519635   0.835   5.843   5.630  0.1593  0.2171  0.2931
   21MOL   C39619636   0.719   5.873   5.539  0.5018 -0.1876  0.0135
   21MOL   O39719637   0.640   5.760   5.519  0.1359 -0.0925 -0.0925
   21MOL   C39819638   0.530   5.779   5.442 -0.2232  0.1198  0.7694
   21MOL   O39919639   0.504   5.883   5.385  0.1587 -0.1860 -0.3117
   21MOL   C40019640   0.451   5.652   5.413 -0.1591 -0.4047 -0.3390
   21MOL   C40119641   0.380   5.602   5.539 -0.5876  0.1986  0.3702
   21MOL   C40219642   0.239   5.658   5.566  0.1061  0.0125 -0.0376
   21MOL   C40319643   0.227   5.810   5.594 -0.9323 -0.2390  0.0835
   21MOL   C40419644   0.307   5.844   5.718  0.0200  0.7155  0.4057
   21MOL   O40519645   0.427   5.876   5.711  0.1292  0.2550 -0.1051
   21MOL   H40619646   1.777   5.836   5.735 -0.0525  0.5676 -1.3491
   21MOL   H40719647   1.778   5.958   5.860  1.9607 -0.2966 -0.3371
   21MOL   H40819648   1.632   5.984   5.614  3.0318 -2.2167  0.5677
   21MOL   H40919649   1.588   6.081   5.755  2.5859  0.3033  2.7371
   21MOL   H41019650   1.562   5.775   5.735  0.4854 -0.0061  1.7580
   21MOL   H41119651   1.530   5.870   5.867  1.7489  2.7488  0.1578
   21MOL   H41219652   1.324   5.806   5.742  2.0147 -1.4594  0.8128
   21MOL   H41319653   1.364   5.925   5.615 -1.2150  2.7431  0.4956
   21MOL   H41419654   1.346   6.098   5.821 -0.8456  0.1665 -0.0243
   21MOL   H41519655   1.279   5.973   5.916 -0.7186  2.5913  0.9291
   21MOL   H41619656   1.172   6.089   5.656 -2.2962  2.4569  1.5978
   21MOL   H41719657   1.105   6.101   5.804  0.5380  1.9921 -1.6082
   21MOL   H41819658   1.041   5.874   5.813 -0.5505  0.9239  0.4080
   21MOL   H41919659   1.113   5.842   5.653  0.8677  1.5671 -2.1085
   21MOL   H42019660   0.968   5.995   5.546  3.1587 -0.9017  0.6907
   21MOL   H42119661   0.890   6.045   5.694 -0.0279 -0.3504 -0.1616
   21MOL   H42219662   0.878   5.760   5.574 -3.2009 -0.4813 -1.4323
   21MOL   H42319663   0.795   5.812   5.726  2.2950  1.1182  1.5077
   21MOL   H42419664   0.755   5.911   5.443  0.6926 -0.5396 -0.0525
   21MOL   H42519665   0.654   5.945   5.589  0.6051 -1.0707  1.4499
   21MOL   H42619666   0.376   5.676   5.338 -1.9924  1.8456  2.1001
   21MOL   H42719667   0.527   5.592   5.364  0.9463 -0.2934  1.1985
   21MOL   H42819668   0.443   5.595   5.628  0.6628  0.7340 -0.4663
   21MOL   H42919669   0.369   5.498   5.509  1.2152  0.0924  0.0228
   21MOL   H43019670   0.196   5.597   5.645 -1.5172 -0.4852 -1.2606
   21MOL   H43119671   0.177   5.625   5.482  0.3592 -0.4455 -0.0458
   21MOL   H43219672   0.121   5.834   5.598 -0.9398  0.4891 -3.0221
   21MOL   H43319673   0.268   5.857   5.505  0.1872 -0.9127  0.2396
   21MOL   O43419674   0.238   5.843   5.828  0.2668  0.2468  0.0890
   21MOL   C43519675   0.305   5.844   5.953  0.2239  0.0711  0.5331
   21MOL   C43619676   0.212   5.819   6.077  0.3380  0.1434  0.0057
   21MOL   C43719677   0.103   5.921   6.102 -0.0467  0.1898  0.0968
   21MOL   C43819678   0.010   5.882   6.217  0.0683 -0.0903  0.0163
   21MOL   C43919679   7.695   6.012   6.253  0.6080  0.4294  0.0956
   21MOL   C44019680   7.581   5.980   6.349 -0.2883 -0.7079  0.1464
   21MOL   C44119681   7.517   6.114   6.406  0.8298 -0.2257  0.2862
   21MOL   C44219682   7.602   6.163   6.521  0.1479 -0.3996  0.0958
   21MOL   C44319683   7.565   6.299   6.569 -0.4353 -0.1238  0.5512
   21MOL   C44419684   7.499   6.297   6.708  0.4065 -0.3677 -0.2408
   21MOL   O44519685   7.364   6.253   6.705 -0.4294 -0.0464 -1.1572
   21MOL   C44619686   7.302   6.168   6.791 -0.0728  0.1718 -0.2875
   21MOL   O44719687   7.354   6.124   6.889  0.1194  0.2986  0.4627
   21MOL   C44819688   7.158   6.138   6.758  0.5320 -0.7679  0.0861
   21MOL   C44919689   7.107   5.991   6.757  0.3196 -0.3402 -0.6975
   21MOL   C45019690   7.149   5.904   6.642 -0.3049  0.0591 -0.8208
   21MOL   C45119691   7.109   5.762   6.662  0.1721  0.1470  0.7451
   21MOL   C45219692   6.951   5.721   6.648  0.3295 -0.1242  0.3803
   21MOL   O45319693   6.918   5.605   6.631 -0.1771 -0.1980  0.4301
   21MOL   H45419694   0.383   5.767   5.950 -0.5522 -0.7009 -0.6485
   21MOL   H45519695   0.346   5.945   5.954 -0.6364  0.4142  2.8462
   21MOL   H45619696   0.268   5.806   6.169  0.7893  1.9024 -0.0006
   21MOL   H45719697   0.167   5.723   6.051 -0.3868  0.6524 -0.6496
   21MOL   H45819698   0.157   6.015   6.118 -0.5520  0.2488  1.4896
   21MOL   H45919699   0.042   5.933   6.012  0.1495  0.3236 -0.0190
   21MOL   H46019700   0.067   5.853   6.305  2.0813  1.3325 -0.7738
   21MOL   H46119701   7.710   5.801   6.183  1.3450 -0.0628 -2.6817
   21MOL   H46219702   7.638   6.047   6.167 -0.2587 -0.2611  0.3851
   21MOL   H46319703   7.749   6.100   6.288  3.8420 -0.7884 -1.6242
   21MOL   H46419704   7.620   5.920   6.431  1.1498 -3.7398 -2.6449
   21MOL   H46519705   7.508   5.920   6.294 -0.6733  0.5081 -0.6851
   21MOL   H46619706   7.415   6.110   6.445  0.0730 -0.7138 -1.6619
   21MOL   H46719707   7.511   6.195   6.333  5.0580  0.9531  1.1347
   21MOL   H46819708   7.708   6.170   6.494 -0.5508  3.0254 -2.1033
   21MOL   H46919709   7.589   6.098   6.607 -1.0914  2.4855  2.1513
   21MOL   H47019710   7.658   6.356   6.572  0.4252 -1.4060 -0.8876
   21MOL   H47119711   7.510   6.364   6.500 -0.6311  0.3577  1.1640
   21MOL   H47219712   7.503   6.399   6.746  0.0700  0.3338 -2.0721
   21MOL   H47319713   7.565   6.245   6.777  0.7621  2.4114  1.5973
   21MOL   H47419714   7.102   6.196   6.831 -0.4495  0.0323 -1.2734
   21MOL   H47519715   7.131   6.192   6.667  0.0735 -1.5738 -0.2616
   21MOL   H47619716   6.999   5.992   6.768  0.3485 -0.4345 -0.3979
   21MOL   H47719717   7.153   5.941   6.842  1.9336 -1.1826 -2.0499
   21MOL   H47819718   7.258   5.904   6.633 -0.1445  2.5278  0.5554
   21MOL   H47919719   7.111   5.957   6.555  1.0494 -0.3951 -1.7053
   21MOL   H48019720   7.148   5.735   6.760  0.9917  0.4312  0.5036
   21MOL   H48119721   7.153   5.711   6.576 -0.9187  1.4102 -0.5951
   21MOL   O48219722   6.866   5.821   6.643  0.3001 -0.3476 -0.3244
   21MOL   C48319723   6.729   5.804   6.600 -0.5757  0.0346 -0.4831
   21MOL   C48419724   6.709   5.793   6.446  0.3298 -0.2624 -0.4329
   21MOL   C48519725   6.565   5.765   6.406 -0.3516  0.3438  0.0027
   21MOL   C48619726   6.545   5.748   6.254  0.0688 -0.8245 -0.3925
   21MOL   C48719727   6.632   5.832   6.160 -0.5488  0.6444 -0.0457
   21MOL   C48819728   6.596   5.824   6.007  0.7572 -0.3008 -0.5775
   21MOL   C48919729   6.685   5.907   5.916 -0.5218  0.1643 -0.7615
   21MOL   C49019730   6.641   6.053   5.899 -0.7221 -0.0200  0.2071
   21MOL   C49119731   6.765   6.123   5.845  0.1527 -0.1895  0.1322
   21MOL   C49219732   6.741   6.260   5.788 -0.5803 -0.8075 -0.4562
   21MOL   O49319733   6.675   6.253   5.657  0.2689  0.1237  0.4021
   21MOL   C49419734   6.751   6.242   5.550 -0.6436 -0.4595 -0.8630
   21MOL   O49519735   6.871   6.245   5.548  0.4635  0.0134 -0.1814
   21MOL   C49619736   6.669   6.244   5.417  0.0482  0.8100 -0.8472
   21MOL   C49719737   6.598   6.107   5.393 -0.9403 -0.1710 -0.0004
   21MOL   C49819738   6.686   5.988   5.348  0.1673  0.1584 -0.1215
   21MOL   C49919739   6.610   5.853   5.323 -0.6520  0.8670 -0.3423
   21MOL   C50019740   6.554   5.799   5.456  0.2685  0.3751  0.1098
   21MOL   O50119741   6.612   5.820   5.567  0.5166  0.6609  0.0443
   21MOL   H50219742   6.676   5.729   6.659 -1.3396  0.9139 -0.0406
   21MOL   H50319743   6.686   5.891   6.650  1.8081  0.4502  0.9223
   21MOL   H50419744   6.769   5.709   6.409  1.2149  0.2802 -0.2442
   21MOL   H50519745   6.735   5.887   6.398 -0.1121 -0.4201 -0.9974
   21MOL   H50619746   6.517   5.674   6.444  0.7468  0.5562  1.9878
   21MOL   H50719747   6.504   5.850   6.439  0.0103  0.1016  1.3556
   21MOL   H50819748   6.438   5.759   6.231  0.2150 -0.1576 -0.7565
   21MOL   H50919749   6.568   5.649   6.214 -0.7903 -0.4246 -1.9003
   21MOL   H51019750   6.736   5.802   6.169 -0.4997  0.0189 -2.2188
   21MOL   H51119751   6.625   5.933   6.199  2.0679 -0.5613  3.8128
   21MOL   H51219752   6.488   5.822   5.994  0.3548  1.1855  2.1328
   21MOL   H51319753   6.635   5.724   5.988 -1.8181 -1.1036 -1.8637
   21MOL   H51419754   6.677   5.864   5.816 -0.1252  1.0174 -1.1692
   21MOL   H51519755   6.788   5.889   5.947 -1.3333 -2.8495  0.2820
   21MOL   H51619756   6.615   6.085   6.000 -0.6534  0.3149  0.1206
   21MOL   H51719757   6.556   6.066   5.832 -1.2637 -1.9925  0.4656
   21MOL   H51819758   6.830   6.147   5.929  3.0976 -1.7023 -1.6480
   21MOL   H51919759   6.812   6.062   5.768 -1.2021 -0.8251 -0.2201
   21MOL   H52019760   6.832   6.321   5.780 -1.2808  0.2220 -0.7215
   21MOL   H52119761   6.675   6.314   5.856 -1.9129  0.7063 -2.8682
   21MOL   H52219762   6.592   6.319   5.431  0.4670  1.2133 -0.6933
   21MOL   H52319763   6.736   6.267   5.335 -0.2128  1.5829 -0.8462
   21MOL   H52419764   6.510   6.106   5.329 -0.9915 -1.3138  0.0895
   21MOL   H52519765   6.554   6.073   5.487 -1.3490  0.3765  0.0099
   21MOL   H52619766   6.769   5.967   5.416 -1.2361  1.3431  2.0442
   21MOL   H52719767   6.733   6.032   5.261 -0.6331  1.2170 -0.0325
   21MOL   H52819768   6.672   5.773   5.282  0.0994  1.7159 -0.8923
   21MOL   H52919769   6.523   5.863   5.258 -2.6015 -0.5871  1.9389
   21MOL   O53019770   6.444   5.724   5.436 -0.1670 -0.5789  0.7711
   21MOL   C53119771   6.366   5.657   5.528 -0.1180  0.1993  0.3660
   21MOL   C53219772   6.255   5.738   5.586 -0.8139 -0.5214 -0.1452
   21MOL   C53319773   6.301   5.864   5.670  0.2400 -0.1027 -0.1793
   21MOL   C53419774   6.183   5.919   5.758 -0.1109  0.6891  0.5176
   21MOL   C53519775   6.201   6.046   5.839 -0.4406  0.1666 -0.2270
   21MOL   C53619776   6.241   6.164   5.752  0.6862  0.8575 -0.7781
   21MOL   C53719777   6.240   6.297   5.831 -0.9405 -0.3879  0.4329
   21MOL   C53819778   6.236   6.419   5.738  0.3634 -0.2924 -0.5730
   21MOL   C53919779   6.369   6.447   5.670 -0.7919 -0.4286 -0.9290
   21MOL   C54019780   6.359   6.478   5.523 -0.3463  0.2131 -0.2047
   21MOL   O54119781   6.340   6.350   5.457 -0.2386 -0.6150  0.2924
   21MOL   C54219782   6.221   6.328   5.389 -0.4663 -0.3392  0.2273
   21MOL   O54319783   6.127   6.404   5.378 -0.0306 -0.4208 -0.4308
   21MOL   C54419784   6.227   6.203   5.306  0.0720 -0.0755  0.1477
   21MOL   C54519785   6.102   6.190   5.205  0.4597  0.2861  0.9622
   21MOL   C54619786   6.127   6.064   5.122  0.4917 -0.1247  0.9469
   21MOL   C54719787   6.188   6.092   4.983  0.3575 -0.3313 -0.0199
   21MOL   C54819788   6.333   6.123   4.981  0.1082  0.1047 -1.3267
   21MOL   O54919789   6.408   6.056   5.052 -0.8419  0.3636 -0.6069
   21MOL   H55019790   6.332   5.561   5.490  0.4368  1.1674 -2.7078
   21MOL   H55119791   6.435   5.636   5.609 -0.7779  0.1515  0.9194
   21MOL   H55219792   6.210   5.666   5.654  1.9234 -2.1045  0.0969
   21MOL   H55319793   6.190   5.771   5.505  0.5154  1.1077 -0.5998
   21MOL   H55419794   6.384   5.839   5.736  1.1206 -0.0054 -1.2500
   21MOL   H55519795   6.338   5.938   5.600 -1.3685  0.5794 -0.3174
   21MOL   H55619796   6.144   5.841   5.823 -1.0712 -0.5438 -1.4954
   21MOL   H55719797   6.104   5.935   5.684  1.2986 -0.1126 -1.1934
   21MOL   H55819798   6.271   6.034   5.922 -2.1548  2.5652  1.6558
   21MOL   H55919799   6.112   6.071   5.897 -0.7284  0.0055 -0.6004
   21MOL   H56019800   6.173   6.162   5.667 -0.7762 -1.8328  0.3980
   21MOL   H56119801   6.342   6.150   5.714  0.4163 -1.2260 -0.8055
   21MOL   H56219802   6.333   6.310   5.887 -0.8516  0.9465  0.0063
   21MOL   H56319803   6.160   6.307   5.904 -1.3487 -0.5917  0.0094
   21MOL   H56419804   6.220   6.509   5.797  1.8404 -0.2488 -0.2217
   21MOL   H56519805   6.157   6.407   5.664  1.3826 -1.8286 -1.4312
   21MOL   H56619806   6.405   6.525   5.738 -1.0874 -1.9134  0.9962
   21MOL   H56719807   6.439   6.366   5.690 -0.4627 -0.6455 -2.9337
   21MOL   H56819808   6.449   6.532   5.493  0.4382 -1.7833 -1.5663
   21MOL   H56919809   6.277   6.548   5.506  0.1336  0.4474 -1.5939
   21MOL   H57019810   6.327   6.203   5.261  0.0299 -1.4230  0.0332
   21MOL   H57119811   6.208   6.111   5.361 -2.5332  0.2018 -0.2138
   21MOL   H57219812   6.107   6.268   5.129  0.9759  0.5852  1.3029
   21MOL   H57319813   6.006   6.193   5.257 -0.3574 -0.6077 -0.4635
   21MOL   H57419814   6.036   6.009   5.099  0.5298 -0.9153  2.5756
   21MOL   H57519815   6.178   5.996   5.191 -1.9404 -2.3023  0.6714
   21MOL   H57619816   6.139   6.179   4.940  0.2414 -0.7103 -0.6797
   21MOL   H57719817   6.177   6.009   4.912 -0.6860 -0.2094 -0.0061
   21MOL   O57819818   6.365   6.229   4.900 -0.0361  0.2431  0.5408
   21MOL   C57919819   6.504   6.269   4.877 -0.2054  0.3436 -0.2007
   21MOL   C58019820   6.552   6.197   4.747 -0.7565  0.2074 -0.5226
   21MOL   C58119821   6.702   6.224   4.718  0.4092  0.4666 -0.2062
   21MOL   C58219822   6.791   6.165   4.829  0.0667  0.4531  0.2501
   21MOL   C58319823   6.798   6.015   4.819  0.1060 -0.0145  0.6500
   21MOL   C58419824   6.861   5.938   4.941 -0.3530 -0.7565 -0.3049
   21MOL   C58519825   7.013   5.965   4.968 -1.1255  0.0142 -0.6507
   21MOL   C58619826   7.082   5.858   5.056  0.3547  0.1041 -0.4244
   21MOL   C58719827   7.016   5.861   5.193 -0.1072 -0.6461  0.2703
   21MOL   C58819828   7.100   5.793   5.308  0.0148  0.7292  0.8844
   21MOL   O58919829   7.022   5.804   5.425  0.0489  0.1717 -0.6663
   21MOL   C59019830   7.052   5.890   5.530  0.3819  0.4132  0.4400
   21MOL   O59119831   7.153   5.961   5.532 -0.3407  0.3060 -0.2459
   21MOL   C59219832   6.962   5.888   5.651  0.4191 -0.1863  0.3926
   21MOL   C59319833   7.005   5.785   5.755  0.1055 -0.2057  0.7343
   21MOL   C59419834   6.997   5.640   5.719  0.6426  0.8657 -0.1257
   21MOL   C59519835   7.025   5.538   5.837  0.0292 -0.1922  0.2933
   21MOL   C59619836   7.028   5.397   5.778  0.4851  0.0732 -0.2816
   21MOL   O59719837   7.023   5.377   5.654  0.0300 -0.0466 -0.8746
   21MOL   H59819838   6.496   6.378   4.870  0.9313  0.6352  2.4469
   21MOL   H59919839   6.562   6.240   4.965 -1.0770 -1.5088 -0.2192
   21MOL   H60019840   6.492   6.250   4.673 -1.8132 -1.2846 -0.7580
   21MOL   H60119841   6.525   6.091   4.741  0.7417 -0.2131 -0.0342
   21MOL   H60219842   6.736   6.179   4.625 -1.9649  1.5119 -1.6294
   21MOL   H60319843   6.715   6.331   4.707 -2.4818  0.7228 -1.6170
   21MOL   H60419844   6.762   6.191   4.931 -0.9021 -1.4182  0.4735
   21MOL   H60519845   6.890   6.209   4.813 -0.1124  0.9820  0.5967
   21MOL   H60619846   6.856   5.983   4.732 -0.3772  2.1619 -0.5042
   21MOL   H60719847   6.702   5.976   4.788  1.0388 -0.2624 -2.0326
   21MOL   H60819848   6.859   5.835   4.905  0.5091 -1.3174  1.1863
   21MOL   H60919849   6.805   5.955   5.033  1.6175 -0.8892  0.9564
   21MOL   H61019850   7.025   6.062   5.017  0.5279  0.5192 -1.9914
   21MOL   H61119851   7.076   5.974   4.879 -0.6720  1.3872 -0.2114
   21MOL   H61219852   7.187   5.880   5.075  0.2738 -0.0933  0.2693
   21MOL   H61319853   7.077   5.756   5.019  0.4750  0.0037 -0.1619
   21MOL   H61419854   7.007   5.962   5.232  1.5407 -0.5560  0.4532
   21MOL   H61519855   6.914   5.821   5.191  1.0235 -3.5942 -0.7492
   21MOL   H61619856   7.203   5.829   5.318 -0.1747  1.7646 -0.6411
   21MOL   H61719857   7.106   5.688   5.282 -0.8825  1.2190 -1.4009
   21MOL   H61819858   6.981   5.991   5.681  0.5448  0.0665 -0.5138
   21MOL   H61919859   6.870   5.868   5.597  0.3241 -1.2414  0.9417
   21MOL   H62019860   6.935   5.792   5.839  0.7477 -0.3055  1.2861
   21MOL   H62119861   7.103   5.808   5.797  0.0058  1.1631  0.2569
   21MOL   H62219862   7.073   5.628   5.642  0.4193 -3.2196  0.1356
   21MOL   H62319863   6.898   5.626   5.677  0.1795  0.2539  1.1311
   21MOL   H62419864   6.944   5.532   5.910 -0.5597 -2.7703 -0.5080
   21MOL   H62519865   7.111   5.565   5.898 -0.6613  1.4835  0.5331
   21MOL   O62619866   7.036   5.306   5.874 -0.1845  0.4472  0.0944
   21MOL   C62719867   7.027   5.172   5.836  0.0175  0.0687 -0.3191
   21MOL   C62819868   6.996   5.077   5.953  0.2630  0.2893 -0.0016
   21MOL   C62919869   7.115   5.053   6.042 -1.0041  0.2128 -0.0575
   21MOL   C63019870   7.097   4.921   6.127 -0.4906  0.3216 -0.2891
   21MOL   C63119871   7.157   4.950   6.261 -0.4343 -0.3964 -0.5302
   21MOL   C63219872   7.150   4.835   6.364 -0.4844  0.8797 -0.3387
   21MOL   C63319873   7.215   4.704   6.316  0.4974  0.4258 -0.1236
   21MOL   C63419874   7.367   4.707   6.313 -0.3174  0.1676  0.7039
   21MOL   C63519875   7.445   4.584   6.273 -0.4504  0.2922 -0.3475
   21MOL   C63619876   7.597   4.598   6.262  0.1663 -0.2320  0.2420
   21MOL   O63719877   7.644   4.474   6.204  0.0321 -0.3098  0.1139
   21MOL   C63819878   7.757   4.458   6.143  0.3312 -0.4993  0.4054
   21MOL   O63919879   0.074   4.543   6.110  0.0271 -0.4768 -0.3363
   21MOL   C64019880   0.012   4.319   6.091  0.0088  0.4413  0.0679
   21MOL   C64119881   0.154   4.270   6.096 -0.0968 -0.2119 -0.1286
   21MOL   C64219882   0.202   4.253   6.240  0.2727  0.2340  0.8942
   21MOL   C64319883   0.334   4.171   6.257 -0.3155  0.5966 -0.8629
   21MOL   C64419884   0.397   4.211   6.392  0.1763 -0.8712 -0.2582
   21MOL   O64519885   0.395   4.317   6.451 -0.2120 -0.1236  0.3932
   21MOL   H64619886   6.958   5.154   5.753  0.0370 -0.1896 -0.2799
   21MOL   H64719887   7.123   5.148   5.790  0.4232 -2.3356  1.6695
   21MOL   H64819888   6.954   4.984   5.917  0.6899  0.7786 -1.8553
   21MOL   H64919889   6.922   5.130   6.013 -0.0974  0.1237 -0.3024
   21MOL   H65019890   7.208   5.057   5.987 -0.6537 -0.1539  0.5008
   21MOL   H65119891   7.124   5.139   6.109 -1.6448  1.5165 -1.6062
   21MOL   H65219892   7.145   4.839   6.074  1.2100  0.6016  0.7791
   21MOL   H65319893   6.992   4.898   6.149 -1.0689  3.5674  0.5860
   21MOL   H65419894   7.091   5.025   6.306 -0.6360  0.0520 -1.5582
   21MOL   H65519895   7.253   5.000   6.256  1.3834 -3.7209 -0.3388
   21MOL   H65619896   7.048   4.803   6.384  0.8635 -2.4326  1.7312
   21MOL   H65719897   7.188   4.854   6.464 -2.3608 -0.9455  0.7579
   21MOL   H65819898   7.172   4.675   6.220  0.1339  0.0713  0.1407
   21MOL   H65919899   7.178   4.626   6.383 -0.6546 -1.0034 -2.3620
   21MOL   H66019900   7.405   4.731   6.412 -1.2024 -0.2534  1.1516
   21MOL   H66119901   7.394   4.788   6.245 -2.8749  0.5232  0.0589
   21MOL   H66219902   7.425   4.492   6.327  2.1250  0.0821  0.3044
   21MOL   H66319903   7.419   4.567   6.169  2.2643 -2.5251 -0.6371
   21MOL   H66419904   7.641   4.614   6.360  2.4017  1.6476 -1.0218
   21MOL   H66519905   7.618   4.676   6.189 -3.4683 -0.3900 -1.0747
   21MOL   H66619906   7.712   4.251   6.146  0.8699  0.9333  1.7116
   21MOL   H66719907   7.747   4.307   5.987  0.0104  0.6152  0.0473
   21MOL   H66819908   0.230   4.334   6.051  0.4779  0.3877  1.6375
   21MOL   H66919909   0.156   4.176   6.040  0.0951  0.5827 -1.4696
   21MOL   H67019910   0.119   4.197   6.283  0.7975 -1.8462 -0.6863
   21MOL   H67119911   0.201   4.353   6.283  0.0066  1.2650 -1.4207
   21MOL   H67219912   0.411   4.183   6.181  1.0260 -2.0437  0.0051
   21MOL   H67319913   0.305   4.066   6.261  0.0461  0.5253  0.1198
   21MOL   O67419914   0.458   4.105   6.437 -0.7330 -0.1894 -0.3724
   21MOL   C67519915   0.525   4.117   6.558  0.4052  0.9167  0.0992
   21MOL   C67619916   0.555   3.977   6.610  0.8583  0.1432 -0.1969
   21MOL   C67719917   0.620   3.980   6.745  0.3272 -0.0842  0.1497
   21MOL   C67819918   0.578   3.871   6.847  0.2869 -0.0335  0.3940
   21MOL   C67919919   0.636   3.731   6.823  0.1164  0.6968  0.3365
   21MOL   C68019920   0.549   3.624   6.886  0.2959  0.4385  0.2180
   21MOL   C68119921   0.591   3.478   6.856  0.0938  0.2495  0.3969
   21MOL   C68219922   0.486   3.376   6.912  0.2905  1.1251 -0.2494
   21MOL   C68319923   0.536   3.226   6.893  0.0058  0.0158  0.2122
   21MOL   C68419924   0.421   3.135   6.923 -0.5618  0.4836  0.4082
   21MOL   O68519925   0.498   3.017   6.936  0.3314  0.5688  0.0511
   21MOL   C68619926   0.430   2.894   6.930 -0.7918  0.4545  0.4807
   21MOL   O68719927   0.309   2.883   6.927  0.4560 -0.1712 -0.1478
   21MOL   C68819928   0.525   2.771   6.924  0.3935 -0.1276 -0.3647
   21MOL   C68919929   0.475   2.671   6.818  0.4807  0.6561  0.5209
   21MOL   C69019930   0.510   2.711   6.673  0.5707  0.1139  0.3925
   21MOL   C69119931   0.441   2.622   6.558 -0.2284  0.3274 -0.0873
   21MOL   C69219932   0.509   2.641   6.423  0.2467 -0.2159 -0.8576
   21MOL   O69319933   0.474   2.566   6.330 -0.0273 -0.0316  0.5446
   21MOL   H69419934   0.618   4.171   6.537 -0.0358  1.2657 -0.9748
   21MOL   H69519935   0.476   4.175   6.636 -0.6025  1.1729 -0.7148
   21MOL   H69619936   0.629   3.929   6.546  1.2242 -0.9828  1.0533
   21MOL   H69719937   0.458   3.928   6.605  0.4854  0.9152 -0.8030
   21MOL   H69819938   0.728   3.968   6.738  0.2815  0.1254 -1.0784
   21MOL   H69919939   0.596   4.072   6.799 -1.6832 -0.7174  0.3651
   21MOL   H70019940   0.470   3.857   6.839  0.3417 -0.8143  0.9906
   21MOL   H70119941   0.594   3.910   6.948 -0.2307 -1.1682  0.9276
   21MOL   H70219942   0.738   3.723   6.861 -0.0678  0.7160  0.8411
   21MOL   H70319943   0.641   3.704   6.718  0.5257  2.0721  0.0034
   21MOL   H70419944   0.445   3.620   6.852 -0.0510  1.2731  1.1614
   21MOL   H70519945   0.536   3.635   6.994  2.2315  2.5243  0.2744
   21MOL   H70619946   0.688   3.478   6.906 -0.3752  0.2204  1.3109
   21MOL   H70719947   0.612   3.472   6.749 -1.5144  4.4245 -0.2584
   21MOL   H70819948   0.399   3.396   6.849  0.7688 -0.3263 -1.3799
   21MOL   H70919949   0.457   3.394   7.016 -1.2650  2.3591 -0.8805
   21MOL   H71019950   0.570   3.205   6.792 -0.0519  0.3722  0.1187
   21MOL   H71119951   0.629   3.213   6.949  0.5420  1.0892 -0.4108
   21MOL   H71219952   0.349   3.136   6.841 -0.9393  0.5084  0.7430
   21MOL   H71319953   0.376   3.161   7.018  0.5658 -0.2251  1.1513
   21MOL   H71419954   0.624   2.815   6.911  0.6873  0.0222  2.1225
   21MOL   H71519955   0.511   2.728   7.023 -0.8852  0.8608 -0.1051
   21MOL   H71619956   0.371   2.641   6.828  0.8720 -1.0120 -0.2825
   21MOL   H71719957   0.526   2.579   6.846 -0.4049 -0.3335 -1.0245
   21MOL   H71819958   0.617   2.691   6.666  0.3351 -0.9208 -0.2458
   21MOL   H71919959   0.493   2.817   6.651 -0.9475 -0.4377 -1.1347
   21MOL   H72019960   0.333   2.632   6.549 -0.2518  1.3780  1.3342
   21MOL   H72119961   0.453   2.518   6.589  1.4493 -0.1633 -2.2629
   21MOL   O72219962   0.608   2.736   6.421  0.2815  0.6900  0.6540
   21MOL   C72319963   0.650   2.780   6.298 -0.6648  0.0165  0.1202
   21MOL   C72419964   0.767   2.710   6.231  0.0690  0.7514 -0.7623
   21MOL   C72519965   0.838   2.794   6.131  0.3006 -0.3317 -0.0405
   21MOL   C72619966   0.957   2.711   6.071  1.1824 -0.0236  0.2858
   21MOL   C72719967   1.035   2.787   5.966  0.6853  0.4430 -0.4733
   21MOL   C72819968   1.148   2.700   5.895  0.6608  0.2558 -0.1673
   21MOL   C72919969   1.232   2.790   5.811  0.2236  0.3869 -0.3607
   21MOL   C73019970   1.351   2.713   5.751 -0.4387  0.3392  0.6873
   21MOL   C73119971   1.321   2.591   5.669 -0.3933  0.4731  0.0061
   21MOL   C73219972   1.443   2.531   5.603 -0.7073  0.1185  0.7320
   21MOL   O73319973   1.404   2.418   5.524 -0.0675  0.4471  0.5458
   21MOL   C73419974   1.491   2.334   5.481  0.3804 -0.3164  0.0849
   21MOL   O73519975   1.614   2.328   5.507 -0.6298 -0.1974 -0.5828
   21MOL   C73619976   1.432   2.227   5.385  0.3332 -0.4768 -0.0192
   21MOL   C73719977   1.374   2.111   5.472 -0.0359  0.5478  0.4028
   21MOL   C73819978   1.256   2.142   5.552  0.1145 -0.3073  0.2751
   21MOL   C73919979   1.196   2.013   5.616  0.3069  0.3092  0.3798
   21MOL   C74019980   1.121   1.931   5.521 -0.6353 -0.4908  0.1148
   21MOL   O74119981   1.004   1.955   5.511 -0.1774  0.4893  0.6450
   21MOL   H74219982   0.567   2.790   6.229 -2.9153 -1.5851  2.5255
   21MOL   H74319983   0.680   2.883   6.314  1.3163 -0.8812  2.6764
   21MOL   H74419984   0.732   2.615   6.191  1.2630 -1.0426  2.3373
   21MOL   H74519985   0.841   2.692   6.309  0.3706 -1.0232 -1.4406
   21MOL   H74619986   0.764   2.819   6.054 -1.2919 -1.6656  1.0074
   21MOL   H74719987   0.861   2.891   6.174 -2.0998  0.3622 -0.2228
   21MOL   H74819988   0.916   2.621   6.026 -0.2740  0.5533  0.4448
   21MOL   H74919989   1.020   2.672   6.151 -1.0630 -3.0965  0.6237
   21MOL   H75019990   1.081   2.872   6.016  1.0870  0.1346 -0.3165
   21MOL   H75119991   0.962   2.820   5.891  0.1404 -0.1180 -0.1896
   21MOL   H75219992   1.098   2.618   5.843  1.6641 -0.2485 -0.3342
   21MOL   H75319993   1.216   2.650   5.964  1.3600 -0.3201 -1.2706
   21MOL   H75419994   1.265   2.872   5.874  1.8698 -0.9424  0.5514
   21MOL   H75519995   1.180   2.841   5.730  1.3706 -0.4080 -1.6231
   21MOL   H75619996   1.415   2.687   5.835  0.2419 -0.7519 -0.1609
   21MOL   H75719997   1.430   2.775   5.707 -1.8273  1.5497 -0.1256
   21MOL   H75819998   1.270   2.508   5.719 -0.7928  0.1168 -0.9782
   21MOL   H75919999   1.249   2.626   5.595 -0.0943  1.5154  0.2032
   21MOL   H76020000   1.516   2.497   5.677  1.6727 -0.2907 -1.7292
   21MOL   H76120001   1.499   2.598   5.538  0.7792 -0.8660  0.9788
   21MOL   H76220002   1.354   2.279   5.329 -0.0479 -0.0488  0.9060
   21MOL   H76320003   1.510   2.198   5.315  0.8755 -0.4089  0.5517
   21MOL   H76420004   1.452   2.072   5.537  0.5027  1.3539  0.2489
   21MOL   H76520005   1.344   2.035   5.399  1.8786  0.2446 -0.0812
   21MOL   H76620006   1.184   2.185   5.483  0.5528  0.3713  0.2390
   21MOL   H76720007   1.280   2.210   5.634  2.9629 -1.0564  0.1154
   21MOL   H76820008   1.128   2.044   5.695  0.1682  1.4665 -0.1772
   21MOL   H76920009   1.281   1.956   5.654 -1.7644 -1.7473  2.0040
   21MOL   O77020010   1.184   1.827   5.459 -0.5664  0.0856  0.0661
   21MOL   C77120011   1.114   1.753   5.355  0.9974 -0.4761 -0.5897
   21MOL   C77220012   1.165   1.602   5.358 -0.0097  0.6225 -0.7594
   21MOL   C77320013   1.129   1.540   5.500 -0.3220 -0.2787  0.0965
   21MOL   C77420014   1.201   1.407   5.521  0.1563  0.9492 -0.2339
   21MOL   C77520015   1.196   1.346   5.661 -0.2563 -0.0586  0.0962
   21MOL   C77620016   1.238   1.195   5.657 -0.3261  0.3488 -0.5042
   21MOL   C77720017   1.226   1.117   5.794 -0.6974  0.7446  0.1588
   21MOL   C77820018   1.323   1.187   5.903  0.6305  0.8142 -0.1581
   21MOL   C77920019   1.327   1.111   6.042  0.1601  0.6132  0.3348
   21MOL   C78020020   1.443   1.165   6.134 -0.2347  0.2941  0.0056
   21MOL   O78120021   1.438   1.304   6.176 -0.2487  0.5767  0.1752
   21MOL   C78220022   1.504   1.405   6.124  0.8543 -0.4903  0.2246
   21MOL   O78320023   1.565   1.400   6.015 -0.0885  0.2703 -0.0007
   21MOL   C78420024   1.484   1.535   6.201  0.1162  0.1966  0.5242
   21MOL   C78520025   1.452   1.655   6.102  0.3241  0.9788  0.0748
   21MOL   C78620026   1.337   1.630   6.004 -0.0111  0.7606 -0.0271
   21MOL   C78720027   1.278   1.760   5.946 -0.3401 -1.1450 -0.8154
   21MOL   C78820028   1.176   1.848   6.031 -0.1802 -0.4385  0.3154
   21MOL   O78920029   1.145   1.822   6.146 -0.0984 -0.8085 -0.2144
   21MOL   H79020030   1.006   1.764   5.363  1.0012  1.0701 -2.4975
   21MOL   H79120031   1.140   1.798   5.259 -0.5095  3.5132  0.8102
   21MOL   H79220032   1.272   1.591   5.341  0.3690 -0.2113  1.8218
   21MOL   H79320033   1.117   1.542   5.281  1.4178 -0.0126 -1.1723
   21MOL   H79420034   1.182   1.613   5.563 -2.5062  1.5592 -0.1258
   21MOL   H79520035   1.021   1.531   5.512 -0.1863 -2.1319 -0.0018
   21MOL   H79620036   1.305   1.407   5.489 -0.0580  0.9953 -0.9406
   21MOL   H79720037   1.146   1.334   5.460  0.3631  0.4766  0.1395
   21MOL   H79820038   1.094   1.358   5.697  0.5801  1.1841  2.1641
   21MOL   H79920039   1.261   1.402   5.728 -1.5796  1.8254 -0.1562
   21MOL   H80020040   1.339   1.180   5.619 -0.3382 -1.5231  0.1467
   21MOL   H80120041   1.173   1.149   5.582 -3.0203  2.5341  0.3766
   21MOL   H80220042   1.255   1.012   5.788  2.4885  1.5348  0.4565
   21MOL   H80320043   1.124   1.120   5.830 -0.5811  0.0048  0.5428
   21MOL   H80420044   1.299   1.293   5.914 -1.1781  0.5659 -1.3585
   21MOL   H80520045   1.418   1.185   5.851 -0.0241 -0.9346 -1.3477
   21MOL   H80620046   1.230   1.121   6.090 -0.7695 -2.4059 -0.7942
   21MOL   H80720047   1.349   1.006   6.023 -2.4075  0.0155  0.5694
   21MOL   H80820048   1.535   1.150   6.077  0.3225 -0.8784  1.2087
   21MOL   H80920049   1.446   1.097   6.218  0.4150 -2.1202 -1.9147
   21MOL   H81020050   1.396   1.515   6.262  0.4823 -1.2361  0.6061
   21MOL   H81120051   1.574   1.558   6.257 -0.0722  0.6227  0.6520
   21MOL   H81220052   1.543   1.674   6.045 -0.5709  0.7675 -1.4414
   21MOL   H81320053   1.432   1.750   6.152  1.4842 -0.2663  3.0373
   21MOL   H81420054   1.263   1.571   6.058 -1.0060  1.4180 -0.6526
   21MOL   H81520055   1.382   1.570   5.925 -1.0731 -0.5901  0.3847
   21MOL   H81620056   1.218   1.726   5.861 -1.0104 -0.6191 -0.5545
   21MOL   H81720057   1.355   1.813   5.889 -0.8716 -1.1073 -1.5058
   21MOL   O81820058   1.132   1.957   5.961  0.1280 -0.5546  0.0846
   21MOL   C81920059   1.027   2.034   6.013 -0.0728 -0.2007  0.2126
   21MOL   C82020060   1.038   2.171   5.936  0.1419 -0.0577 -0.2896
   21MOL   C82120061   0.904   2.229   5.889 -0.1410 -0.2853  0.1396
   21MOL   C82220062   0.927   2.364   5.820 -0.2671 -0.4607  0.2880
   21MOL   C82320063   0.810   2.403   5.728  0.0949  0.2377  0.2207
   21MOL   C82420064   0.674   2.452   5.785 -0.3156  0.1671  0.0518
   21MOL   C82520065   0.679   2.568   5.888 -0.2774 -0.5132 -0.1919
   21MOL   C82620066   0.538   2.622   5.939  0.4587 -1.0605 -0.1296
   21MOL   C82720067   0.487   2.733   5.846 -0.4293  0.1239 -0.3901
   21MOL   C82820068   0.343   2.778   5.887 -0.3153 -0.2597 -0.3732
   21MOL   O82920069   0.303   2.878   5.793 -0.0891  0.5068 -0.2034
   21MOL   C83020070   0.193   2.942   5.812  0.1652 -0.3939 -0.4330
   21MOL   O83120071   0.117   2.930   5.907  0.1527  0.3565  0.0476
   21MOL   C83220072   0.152   3.033   5.696 -0.3103 -0.1563  0.0545
   21MOL   C83320073   0.266   3.131   5.674  0.4483 -0.2348 -0.3886
   21MOL   C83420074   0.247   3.230   5.553 -0.0077 -0.1124  0.5221
   21MOL   C83520075   0.310   3.368   5.579 -0.0608  0.0287 -0.0320
   21MOL   C83620076   0.462   3.371   5.543 -0.0072  0.3600  0.0461
   21MOL   O83720077   0.509   3.334   5.441  0.4692  0.2811 -0.0887
   21MOL   H83820078   0.930   1.994   5.984 -0.1950 -0.6703  1.2554
   21MOL   H83920079   1.027   2.043   6.121  1.9194  0.8415  0.1588
   21MOL   H84020080   1.105   2.168   5.851  0.3077  0.4950 -0.1787
   21MOL   H84120081   1.080   2.245   6.004 -1.0456  0.5201 -0.1655
   21MOL   H84220082   0.867   2.153   5.820 -1.7741 -0.7997  1.5418
   21MOL   H84320083   0.824   2.237   5.963 -0.2594  0.9235 -0.1196
   21MOL   H84420084   1.012   2.350   5.753  0.1296  0.6526  0.5429
   21MOL   H84520085   0.949   2.441   5.894 -0.2338  1.1592 -1.3705
   21MOL   H84620086   0.783   2.310   5.676 -0.6822  0.4616  0.2217
   21MOL   H84720087   0.844   2.478   5.657  0.9609 -0.1599  0.2047
   21MOL   H84820088   0.617   2.379   5.842 -0.7319  0.1787 -0.3451
   21MOL   H84920089   0.611   2.482   5.701  0.1046 -0.3481 -0.4614
   21MOL   H85020090   0.739   2.652   5.853 -0.1500 -0.8340 -0.7609
   21MOL   H85120091   0.730   2.520   5.971  2.5778  2.4345 -0.1299
   21MOL   H85220092   0.558   2.666   6.037 -1.4781 -2.0052  0.7215
   21MOL   H85320093   0.464   2.546   5.964 -0.3486  0.4852  2.3893
   21MOL   H85420094   0.557   2.817   5.843 -0.0216 -0.0068  3.2729
   21MOL   H85520095   0.488   2.695   5.744 -0.0791 -1.4604  0.1805
   21MOL   H85620096   0.350   2.823   5.986 -2.4151 -0.1855 -0.2292
   21MOL   H85720097   0.275   2.694   5.899 -0.4938  0.1494  1.6168
   21MOL   H85820098   0.146   2.972   5.606  0.6835  0.1236 -0.2164
   21MOL   H85920099   0.059   3.087   5.710 -1.5910 -1.2705 -3.6353
   21MOL   H86020100   0.355   3.070   5.659  0.8283 -0.2958  1.9479
   21MOL   H86120101   0.284   3.186   5.766  1.0645 -0.7742 -0.1859
   21MOL   H86220102   0.140   3.249   5.540 -0.1400 -1.2186 -0.0208
   21MOL   H86320103   0.276   3.180   5.461  0.3951  1.9316 -0.4881
   21MOL   H86420104   0.296   3.399   5.683 -0.5652 -0.6415  0.1021
   21MOL   H86520105   0.259   3.446   5.522  0.6861  0.9390  0.5219
   21MOL   O86620106   0.532   3.437   5.639 -0.1754  0.0887  0.0847
   21MOL   C86720107   0.675   3.450   5.619  0.3390  0.4198  0.3246
   21MOL   C86820108   0.714   3.537   5.742 -0.2265 -0.2181 -0.2883
   21MOL   C86920109   0.867   3.550   5.759 -0.2889  0.6003  0.0298
   21MOL   C87020110   0.936   3.615   5.881 -0.4935 -0.4951  0.0933
   21MOL   C87120111   0.905   3.551   6.018 -0.2723  0.1682  0.1543
   21MOL   C87220112   0.974   3.621   6.135 -0.3826 -0.4872 -0.7045
   21MOL   C87320113   1.129   3.618   6.136 -0.4672 -1.0057  0.0379
   21MOL   C87420114   1.189   3.704   6.241 -0.2195 -0.2797  0.9293
   21MOL   C87520115   1.336   3.734   6.210  0.9608 -0.3325 -0.7534
   21MOL   C87620116   1.399   3.824   6.318 -0.2604  0.6124 -0.0360
   21MOL   O87720117   1.421   3.763   6.444  0.6311  0.2375  0.0659
   21MOL   C87820118   1.480   3.832   6.539 -0.1551  0.1713 -0.6562
   21MOL   O87920119   1.525   3.947   6.531 -0.1162 -0.2504 -0.4164
   21MOL   C88020120   1.504   3.750   6.664 -0.3288 -0.3752 -0.3372
   21MOL   C88120121   1.391   3.739   6.767  0.0956 -0.0681 -0.8295
   21MOL   C88220122   1.426   3.683   6.904  0.1918 -0.8468  0.4036
   21MOL   C88320123   1.400   3.529   6.914  0.6231 -0.0702 -0.5668
   21MOL   C88420124   1.510   3.430   6.875 -0.6792 -0.4147 -0.2326
   21MOL   O88520125   1.483   3.325   6.810 -0.3132  0.5508 -0.1005
   21MOL   H88620126   0.721   3.352   5.611 -2.9418 -1.0264 -1.3593
   21MOL   H88720127   0.691   3.506   5.527  2.0932 -2.2905 -1.0644
   21MOL   H88820128   0.680   3.488   5.834 -2.9356  0.3368 -0.9683
   21MOL   H88920129   0.677   3.640   5.739  1.1349  0.3634  1.2736
   21MOL   H89020130   0.911   3.450   5.758 -0.3945  0.5147  1.8713
   21MOL   H89120131   0.907   3.598   5.670 -0.2188  1.9981  0.8044
   21MOL   H89220132   0.904   3.719   5.879 -0.0876 -0.3751 -0.4155
   21MOL   H89320133   1.044   3.622   5.871 -0.7982  1.9237 -2.0033
   21MOL   H89420134   0.966   3.461   6.016 -0.4617  0.0397  0.1551
   21MOL   H89520135   0.799   3.525   6.019 -0.2266 -0.0120  0.2963
   21MOL   H89620136   0.937   3.586   6.231 -2.6108 -0.4831 -1.5185
   21MOL   H89720137   0.944   3.726   6.123  0.8346 -0.0358  0.1198
   21MOL   H89820138   1.168   3.650   6.040  0.6123 -3.1236 -0.2448
   21MOL   H89920139   1.162   3.515   6.147  0.9138 -0.4730  1.0139
   21MOL   H90020140   1.181   3.669   6.344  1.4648 -0.3994  1.0287
   21MOL   H90120141   1.130   3.795   6.241  0.4180  0.1448  0.0624
   21MOL   H90220142   1.376   3.634   6.192 -2.5444 -1.9083 -0.2991
   21MOL   H90320143   1.344   3.792   6.119 -0.0669 -0.2871 -0.8243
   21MOL   H90420144   1.329   3.907   6.330  1.7624  2.8786 -3.2744
   21MOL   H90520145   1.491   3.860   6.273  1.8567 -0.7658  3.0100
   21MOL   H90620146   1.536   3.652   6.627 -2.4528 -0.9994 -0.5548
   21MOL   H90720147   1.588   3.803   6.710 -0.4234 -1.3693  1.0293
   21MOL   H90820148   1.312   3.677   6.723  1.4056 -1.0779 -1.8021
   21MOL   H90920149   1.349   3.838   6.786  1.5792  0.1935  1.2352
   21MOL   H91020150   1.360   3.739   6.971  0.5817 -0.4478  0.4552
   21MOL   H91120151   1.525   3.714   6.936  0.8808 -0.2047 -2.2666
   21MOL   H91220152   1.309   3.490   6.869 -2.4377  1.6040  3.8743
   21MOL   H91320153   1.381   3.505   7.018  0.3841  1.9097 -0.1374
   21MOL   O91420154   1.631   3.459   6.921  0.2506 -0.4228 -0.0519
   21MOL   C91520155   1.732   3.359   6.926  0.4445  0.3622  0.2125
   21MOL   C91620156   1.833   3.378   7.039  0.3570 -0.1276 -0.2256
   21MOL   C91720157   1.893   3.518   7.049 -0.1708  0.5570 -0.3421
   21MOL   C91820158   1.998   3.530   7.160  0.3615 -0.5785 -1.0286
   21MOL   C91920159   2.038   3.676   7.184  0.1752  0.3228 -0.4045
   21MOL   C92020160   2.137   3.699   7.305 -0.4660 -0.1189 -0.4023
   21MOL   C92120161   2.160   3.845   7.341 -0.4035  0.1611  0.1888
   21MOL   C92220162   2.206   3.868   7.480 -1.0338 -0.1379 -0.9203
   21MOL   C92320163   2.247   4.017   7.503  0.1116 -0.3653 -1.2102
   21MOL   C92420164   2.284   4.047   7.650 -0.1637 -0.3285 -0.4192
   21MOL   O92520165   2.325   4.180   7.662  0.0150 -0.1542 -0.5140
   21MOL   C92620166   2.403   4.222   7.753  0.2400  0.6879  0.3223
   21MOL   O92720167   2.457   4.153   0.070 -0.1155 -0.1493 -0.3301
   21MOL   C92820168   2.411   4.371   0.005  0.0105  0.5939  0.6647
   21MOL   C92920169   2.386   4.461   7.651 -0.1398  0.1367 -0.2313
   21MOL   C93020170   2.504   4.460   7.551  0.1038  0.0024  0.4548
   21MOL   C93120171   2.472   4.548   7.428  0.4931  0.3125  0.1427
   21MOL   C93220172   2.588   4.622   7.362  0.4173 -0.0801  0.3803
   21MOL   O93320173   2.696   4.627   7.415 -0.0382 -0.0622  0.1896
   21MOL   H93420174   1.692   3.258   6.925  2.2403 -0.3654 -0.8949
   21MOL   H93520175   1.779   3.361   6.828 -0.0205 -0.0828 -0.0230
   21MOL   H93620176   1.918   3.309   7.040  1.2533  0.9497  2.4510
   21MOL   H93720177   1.778   3.356   7.130 -0.6398 -0.0227 -0.7966
   21MOL   H93820178   1.934   3.551   6.954 -1.7572  1.2241 -0.7918
   21MOL   H93920179   1.816   3.587   7.081 -1.1665 -0.8284  0.3017
   21MOL   H94020180   2.087   3.473   7.133  2.0377  0.6975  1.6319
   21MOL   H94120181   1.957   3.489   7.252  1.4795  1.6032  0.4887
   21MOL   H94220182   1.947   3.733   7.206 -0.5219 -1.2876  1.0606
   21MOL   H94320183   2.082   3.714   7.093 -0.9732  0.5635 -0.8729
   21MOL   H94420184   2.231   3.647   7.292  0.1018  0.5073  1.0581
   21MOL   H94520185   2.102   3.656   7.399  0.2282 -0.0381 -0.1035
   21MOL   H94620186   2.069   3.899   7.317 -0.6526 -0.8370 -1.1560
   21MOL   H94720187   2.238   3.879   7.272 -0.1045  1.9580  1.3647
   21MOL   H94820188   2.288   3.806   7.515 -1.1071 -0.4878 -1.3779
   21MOL   H94920189   2.119   3.857   7.545  0.7847 -1.3078  1.4197
   21MOL   H95020190   2.331   4.043   7.439  1.0065  0.7328  0.3930
   21MOL   H95120191   2.165   4.082   7.473 -0.0694  0.6229  1.3023
   21MOL   H95220192   2.355   3.975   7.691  0.0633  0.8241  1.2996
   21MOL   H95320193   2.197   4.030   7.714 -0.0022 -1.9243 -0.6021
   21MOL   H95420194   2.336   4.400   0.079  0.6007 -0.6413  1.7610
   21MOL   H95520195   2.505   4.397   0.055  0.9151 -0.4039 -0.5037
   21MOL   H95620196   2.369   4.559   7.696 -2.4543 -0.1484 -0.4014
   21MOL   H95720197   2.288   4.445   7.605 -1.0513  0.2331  1.6217
   21MOL   H95820198   2.525   4.361   7.511  3.2240  1.0052 -0.5424
   21MOL   H95920199   2.591   4.492   7.608  0.0948  1.3366 -0.2560
   21MOL   H96020200   2.425   4.636   7.472  2.4444  0.8694  1.1611
   21MOL   H96120201   2.399   4.514   7.354 -0.1890  1.6232  0.1927
   21MOL   H96220202   2.574   4.654   7.259  0.5899 -2.4525 -0.4136
   22MOL     O120203   0.308   0.896   0.370  0.2141  0.1319 -0.0030
   22MOL     C220204   0.273   0.831   0.491  0.1723  0.4478 -0.3552
   22MOL     C320205   0.238   0.934   0.600  0.5465 -0.7180  0.1034
   22MOL     C420206   0.108   1.021   0.573  0.0432  0.3979  0.6749
   22MOL     C520207   0.075   1.122   0.684  0.0387 -0.4267  0.1044
   22MOL     C620208   7.724   1.220   0.658  0.0430  0.4921 -0.3349
   22MOL     C720209   7.715   1.313   0.783  0.4329 -0.2468  0.7173
   22MOL     C820210   7.590   1.403   0.784  0.2641  1.0603 -0.0530
   22MOL     C920211   7.579   1.493   0.911  0.2752 -1.0938 -0.1970
   22MOL    C1020212   7.473   1.606   0.883 -0.4675 -0.4404 -0.5312
   22MOL    C1120213   7.416   1.679   1.009  1.0611  0.5250 -0.7003
   22MOL    O1220214   7.326   1.608   1.097 -0.5580  0.1459 -0.2771
   22MOL    C1320215   7.276   1.661   1.202 -0.6652 -0.3544 -0.4784
   22MOL    O1420216   7.324   1.765   1.263  0.1886  0.1055 -0.0313
   22MOL    C1520217   7.156   1.586   1.259  0.5439  0.3088 -0.0934
   22MOL    C1620218   7.174   1.430   1.256 -0.0004 -0.3720  0.0541
   22MOL    C1720219   7.292   1.366   1.314 -0.1768 -0.4722 -0.1955
   22MOL    C1820220   7.299   1.220   1.267  0.2146 -0.9892 -0.3491
   22MOL    C1920221   7.430   1.158   1.307 -0.8231 -0.0281  0.0505
   22MOL    O2020222   7.498   1.097   1.226  0.2452 -0.2874 -0.3542
   22MOL    H2120223   0.206   0.751   0.462  0.7002  0.4805 -1.6840
   22MOL    H2220224   0.364   0.775   0.516 -0.6318  0.1213  1.9319
   22MOL    H2320225   0.326   0.996   0.617 -1.0548  1.7235 -0.1429
   22MOL    H2420226   0.215   0.875   0.689  1.2960 -0.9810  0.1225
   22MOL    H2520227   0.124   1.074   0.479 -1.5065  2.0092  1.3098
   22MOL    H2620228   0.017   0.967   0.547  0.0503  0.2763  0.9034
   22MOL    H2720229   0.162   1.180   0.713 -0.8539  1.5208 -1.0216
   22MOL    H2820230   0.059   1.052   0.766 -3.2464 -2.0879 -1.8245
   22MOL    H2920231   7.630   1.169   0.639  0.3597  0.0114 -0.6054
   22MOL    H3020232   7.748   1.266   0.563  0.0274  3.9677  1.2613
   22MOL    H3120233   0.036   1.378   0.798 -0.0580  0.2246  1.5187
   22MOL    H3220234   7.711   1.247   0.870  1.3340 -0.4873  0.5854
   22MOL    H3320235   7.497   1.349   0.771  0.7698  0.2743 -0.4137
   22MOL    H3420236   7.588   1.467   0.696  0.8968  0.4228 -0.5352
   22MOL    H3520237   7.670   1.547   0.937 -1.9638  3.2908 -0.9235
   22MOL    H3620238   7.550   1.428   0.994  0.4342 -0.2580  0.5262
   22MOL    H3720239   7.510   1.686   0.818 -1.8772 -0.0463 -0.8606
   22MOL    H3820240   7.390   1.562   0.828  0.7653 -3.5884  0.0127
   22MOL    H3920241   7.368   1.774   0.984  0.5681  0.4980  0.1351
   22MOL    H4020242   7.500   1.698   1.077  0.1170  2.0640  0.0642
   22MOL    H4120243   7.135   1.633   1.355 -1.1562  2.5571 -1.5391
   22MOL    H4220244   7.072   1.615   1.196  1.2943 -0.4755 -1.4869
   22MOL    H4320245   7.160   1.415   1.149 -1.1378 -0.8607  0.2582
   22MOL    H4420246   7.080   1.395   1.299  0.6235  0.0034  1.7512
   22MOL    H4520247   7.287   1.374   1.422  0.9427 -0.7325 -0.1221
   22MOL    H4620248   7.381   1.424   1.286 -0.9004  0.6946 -0.1450
   22MOL    H4720249   7.296   1.207   1.158 -0.0235  0.0015 -0.4648
   22MOL    H4820250   7.223   1.154   1.307 -0.6407  0.3229  0.2235
   22MOL    H4920251   0.381   0.847   0.337 -0.7171 -1.6046  0.4878
   22MOL    O5020252   7.463   1.187   1.432  0.1400  0.0169 -0.1072
   22MOL    C5120253   7.576   1.124   1.488 -0.3836  0.6048  0.4073
   22MOL    C5220254   7.624   1.202   1.612 -0.1849 -0.6482 -0.1888
   22MOL    C5320255   7.526   1.207   1.740 -0.7086 -0.1717 -0.2709
   22MOL    C5420256   7.587   1.306   1.841 -0.2761 -0.0838  0.4004
   22MOL    C5520257   7.501   1.303   1.962 -0.7833  0.4371 -0.0159
   22MOL    C5620258   7.508   1.426   2.049 -0.2370 -0.6604 -0.0321
   22MOL    C5720259   7.402   1.430   2.163  0.2171 -0.6952  0.2732
   22MOL    C5820260   7.384   1.574   2.217 -1.0407  0.3634 -0.5101
   22MOL    C5920261   7.280   1.589   2.329  0.1713  0.2784  0.0002
   22MOL    C6020262   7.304   1.712   2.415  0.2653 -0.5725 -0.1264
   22MOL    O6120263   7.297   1.828   2.335  0.4913 -0.1338 -0.0570
   22MOL    C6220264   7.403   1.911   2.332  0.1383  0.4396  0.2077
   22MOL    O6320265   7.516   1.880   2.372 -0.2048 -0.5294 -0.3664
   22MOL    C6420266   7.370   2.048   2.290 -0.5808  0.0431  0.6267
   22MOL    C6520267   7.319   2.050   2.139 -0.2069  0.6585 -0.0846
   22MOL    C6620268   7.423   2.050   2.027  0.6816  0.2024  0.4243
   22MOL    C6720269   7.388   2.124   1.900  0.0366 -0.6617 -0.7560
   22MOL    C6820270   7.506   2.146   1.802  0.3412 -0.2617 -0.3281
   22MOL    O6920271   7.625   2.153   1.837  0.7013 -0.2761  0.5427
   22MOL    H7020272   7.559   1.018   1.506  0.1470  0.7260  1.7255
   22MOL    H7120273   7.656   1.131   1.414 -1.3050 -0.3826 -0.7054
   22MOL    H7220274   7.653   1.303   1.585 -1.1558 -0.7989 -1.8535
   22MOL    H7320275   7.716   1.155   1.647 -0.2568  0.7244  1.8999
   22MOL    H7420276   7.424   1.232   1.713  0.1809  1.6264 -2.1441
   22MOL    H7520277   7.537   1.109   1.786  1.6293  0.7420  1.2419
   22MOL    H7620278   7.590   1.407   1.801  3.6763  0.6864  2.3942
   22MOL    H7720279   7.689   1.276   1.867 -0.4208 -1.8888 -0.9889
   22MOL    H7820280   7.513   1.212   2.022  0.4473 -0.8512 -2.1749
   22MOL    H7920281   7.395   1.296   1.936 -0.4964 -1.5486 -0.7771
   22MOL    H8020282   7.508   1.513   1.983  0.3044  0.9719  2.0513
   22MOL    H8120283   7.612   1.438   2.080 -0.7431 -1.1468  1.9246
   22MOL    H8220284   7.424   1.350   2.234  2.2305  1.2043  1.8480
   22MOL    H8320285   7.304   1.398   2.126  0.0442  2.5866 -2.3084
   22MOL    H8420286   7.374   1.647   2.137  0.3808  0.8364 -0.2675
   22MOL    H8520287   7.480   1.599   2.263  0.3331 -1.4406 -2.2881
   22MOL    H8620288   7.176   1.577   2.296  0.0619 -0.8127  0.7116
   22MOL    H8720289   7.296   1.509   2.402  1.4025  1.0116  0.5530
   22MOL    H8820290   7.402   1.707   2.462 -0.2529 -0.4120  1.0010
   22MOL    H8920291   7.224   1.729   2.487 -1.8955  1.1259 -2.8573
   22MOL    H9020292   7.301   2.089   2.364 -0.1081 -1.0405  1.6897
   22MOL    H9120293   7.455   2.117   2.288 -1.6603  1.4633  1.9538
   22MOL    H9220294   7.257   2.139   2.125  0.8071  1.5603  1.1069
   22MOL    H9320295   7.258   1.960   2.127 -0.8001  0.9697  0.5531
   22MOL    H9420296   7.453   1.948   2.005 -1.8083 -0.1962 -1.2974
   22MOL    H9520297   7.506   2.103   2.075  0.1395 -0.0008  1.6126
   22MOL    H9620298   7.342   2.222   1.914  0.4471 -0.6475  0.5710
   22MOL    H9720299   7.316   2.063   1.846  0.6426 -0.2391 -2.0558
   22MOL    O9820300   7.461   2.161   1.677  0.0722  0.0646  0.7001
   22MOL    C9920301   7.563   2.155   1.579 -0.0090 -0.3474 -0.8315
   22MOL   C10020302   7.519   2.052   1.472  0.5060  0.1686  0.9469
   22MOL   C10120303   7.410   2.095   1.363  0.4093  0.3431  0.2265
   22MOL   C10220304   7.438   2.237   1.303  0.2279 -0.2916 -0.3169
   22MOL   C10320305   7.324   2.260   1.203 -0.3748 -1.0702  0.5235
   22MOL   C10420306   7.336   2.407   1.148  0.3124 -0.3656  0.2547
   22MOL   C10520307   7.203   2.454   1.093  0.9979 -0.4922  1.1732
   22MOL   C10620308   7.195   2.595   1.034  0.3097  0.7155 -0.0007
   22MOL   C10720309   7.053   2.657   1.026  0.1564  0.3548 -0.5595
   22MOL   C10820310   7.058   2.801   0.977  0.0735  0.0381  0.2544
   22MOL   O10920311   7.114   2.901   1.069  0.3342 -0.0085  0.2587
   22MOL   C11020312   7.129   3.025   1.026 -0.2481 -0.6598 -0.2657
   22MOL   O11120313   7.093   3.068   0.915  0.1422 -0.0932  0.3906
   22MOL   C11220314   7.193   3.117   1.128 -0.1145 -0.5155  0.2039
   22MOL   C11320315   7.301   3.214   1.074  0.4486  0.6917 -0.7082
   22MOL   C11420316   7.444   3.162   1.102 -0.0166 -0.3726 -0.0864
   22MOL   C11520317   7.562   3.254   1.053 -0.2549 -1.0778 -0.4419
   22MOL   C11620318   7.589   3.389   1.128  0.4089  0.0702 -0.0448
   22MOL   O11720319   7.579   3.392   1.248 -0.0291 -0.0207 -0.0747
   22MOL   H11820320   7.583   2.255   1.542  0.0520 -0.2320 -0.4877
   22MOL   H11920321   7.662   2.121   1.612 -0.1607  0.9072  0.9409
   22MOL   H12020322   7.485   1.965   1.527  0.8824 -0.1374  0.6977
   22MOL   H12120323   7.605   2.022   1.413 -2.5772 -0.8178 -3.2842
   22MOL   H12220324   7.408   2.021   1.283 -0.5318 -0.7264  1.2178
   22MOL   H12320325   7.314   2.088   1.414  0.8467  1.0489  1.1525
   22MOL   H12420326   7.534   2.239   1.251  0.2546  0.2043 -0.2452
   22MOL   H12520327   7.439   2.321   1.372  1.3991  1.3504 -2.2766
   22MOL   H12620328   7.223   2.238   1.235 -0.7643 -1.1495 -0.7144
   22MOL   H12720329   7.327   2.186   1.122 -0.4460  0.2099 -0.6570
   22MOL   H12820330   7.403   2.412   1.062 -1.6775 -1.8336 -1.4224
   22MOL   H12920331   7.384   2.478   1.215  2.4338 -0.7972 -0.7630
   22MOL   H13020332   7.138   2.456   1.180 -1.4292  1.1569 -0.6016
   22MOL   H13120333   7.163   2.382   1.021 -1.8076  0.8051  1.3655
   22MOL   H13220334   7.243   2.591   0.936 -0.8197 -0.1640 -0.5348
   22MOL   H13320335   7.260   2.662   1.089  0.0357  2.1367 -1.3422
   22MOL   H13420336   6.983   2.604   0.961 -3.6251  1.3789  2.4949
   22MOL   H13520337   7.009   2.645   1.125  1.8599 -1.1187  0.0574
   22MOL   H13620338   6.956   2.834   0.956 -0.2568 -2.3646 -2.1574
   22MOL   H13720339   7.109   2.813   0.881  2.0874  1.4018  1.4558
   22MOL   H13820340   7.107   3.167   1.173  3.2363  1.7024  4.5992
   22MOL   H13920341   7.236   3.047   1.200 -1.3021 -1.9470 -0.4491
   22MOL   H14020342   7.275   3.302   1.132  2.9035  1.2423 -0.4100
   22MOL   H14120343   7.281   3.244   0.971 -1.9754  1.9015  0.0790
   22MOL   H14220344   7.460   3.062   1.064 -2.3594 -0.4991 -0.8180
   22MOL   H14320345   7.451   3.153   1.211 -0.0255  1.4464  0.0810
   22MOL   H14420346   7.541   3.284   0.950 -2.3112  1.0077  0.5429
   22MOL   H14520347   7.657   3.202   1.062 -0.5218 -1.4189  0.4467
   22MOL   O14620348   7.632   3.489   1.049  0.0568 -0.3713  0.0402
   22MOL   C14720349   7.632   3.617   1.118 -0.0607  0.2571  0.5514
   22MOL   C14820350   7.636   3.728   1.013  0.0864  0.2015 -0.1851
   22MOL   C14920351   7.756   3.721   0.918 -0.3518  0.9132 -0.0789
   22MOL   C15020352   7.734   3.821   0.808  1.0813  0.2999  0.4273
   22MOL   C15120353   0.092   3.830   0.707  0.0737  0.3556  0.7189
   22MOL   C15220354   0.089   3.947   0.610  0.1480 -0.2572 -0.2184
   22MOL   C15320355   0.198   3.959   0.500 -0.0153  0.0867 -1.1106
   22MOL   C15420356   0.208   4.093   0.429  0.1239 -0.4050 -0.2138
   22MOL   C15520357   0.112   4.104   0.316  0.1445 -0.0766  0.0505
   22MOL   C15620358   0.144   4.226   0.235 -0.0776  0.4707  0.5848
   22MOL   O15720359   0.060   4.228   0.124 -0.0556  0.0695 -0.3296
   22MOL   C15820360   0.108   4.179   0.005 -0.3729  0.4004  0.7179
   22MOL   O15920361   0.217   4.119   7.755 -0.3175  0.4573  0.5829
   22MOL   C16020362   0.024   4.216   7.645 -0.8443  0.2318 -1.0698
   22MOL   C16120363   0.008   4.367   7.632  0.1019 -0.9147  0.7007
   22MOL   C16220364   0.122   4.434   7.555 -0.2951 -0.1655  0.5049
   22MOL   C16320365   0.100   4.586   7.539 -0.5829 -0.8953 -0.4781
   22MOL   C16420366   0.127   4.671   7.666 -0.5437  0.4348 -0.6043
   22MOL   O16520367   0.040   4.727   7.729  0.3540  0.0243 -0.6310
   22MOL   H16620368   7.534   3.631   1.164 -0.8213 -0.0073 -0.9595
   22MOL   H16720369   7.711   3.617   1.193  0.1520  2.6144  0.3487
   22MOL   H16820370   7.638   3.828   1.056 -0.4842 -0.2013  0.7866
   22MOL   H16920371   7.546   3.717   0.953  1.4980 -0.9768 -2.1805
   22MOL   H17020372   0.081   3.737   0.979 -1.3434 -0.7767  1.9047
   22MOL   H17120373   0.032   3.625   0.890 -2.5590 -0.6575  1.8596
   22MOL   H17220374   7.718   3.917   0.856 -0.4116 -0.1604  0.8564
   22MOL   H17320375   7.648   3.780   0.756 -1.5670  0.7434  4.2688
   22MOL   H17420376   0.107   3.732   0.663 -1.0346  1.8088 -3.0953
   22MOL   H17520377   0.178   3.846   0.772  2.9345  0.3751 -2.8906
   22MOL   H17620378   0.098   4.035   0.673 -1.1863  0.2524 -0.7392
   22MOL   H17720379   7.750   3.949   0.579 -0.4185  0.6890  1.6839
   22MOL   H17820380   0.204   3.875   0.430 -1.0081 -0.5629 -0.4264
   22MOL   H17920381   0.293   3.943   0.551 -0.0544  3.4410  0.1031
   22MOL   H18020382   0.307   4.096   0.383 -0.0027  1.5838 -0.3920
   22MOL   H18120383   0.202   4.175   0.500 -1.4602 -0.1844 -0.5921
   22MOL   H18220384   0.121   4.013   0.256 -1.1478 -1.4834  1.9398
   22MOL   H18320385   0.009   4.110   0.352 -0.1217  3.2046 -1.0611
   22MOL   H18420386   0.240   4.203   0.188 -0.4052 -0.0108  0.1565
   22MOL   H18520387   0.151   4.321   0.288 -1.3820  2.5559 -2.8408
   22MOL   H18620388   0.073   4.172   7.558  1.8410  0.8267  0.1245
   22MOL   H18720389   7.701   4.152   7.662  0.8143 -1.5777  0.9390
   22MOL   H18820390   7.758   4.415   7.728 -0.0028  2.1328 -0.7976
   22MOL   H18920391   7.676   4.383   7.583  0.5766 -0.0867  0.0161
   22MOL   H19020392   0.123   4.386   7.457  1.3253 -4.2731  2.3902
   22MOL   H19120393   0.220   4.420   7.599  0.3034 -1.5225 -1.1782
   22MOL   H19220394   7.762   4.609   7.510  0.4569  3.3883 -1.0981
   22MOL   H19320395   0.160   4.628   7.459  0.7458 -0.3638  0.7931
   22MOL   O19420396   0.257   4.666   7.695 -0.3370  0.1957 -0.4182
   22MOL   C19520397   0.304   4.721   0.047 -0.6289  0.4470 -0.3110
   22MOL   C19620398   0.421   4.640   0.084 -0.3014 -0.1848 -0.1589
   22MOL   C19720399   0.386   4.497   0.135  0.7202 -0.2985 -0.1930
   22MOL   C19820400   0.506   4.396   0.162 -0.2051 -0.0137 -0.1320
   22MOL   C19920401   0.582   4.365   0.037  0.4025 -0.7110  0.1772
   22MOL   C20020402   0.511   4.271   7.698 -0.6666 -0.1331 -0.1491
   22MOL   C20120403   0.600   4.277   7.565  0.2108  0.1402  0.3265
   22MOL   C20220404   0.519   4.239   7.443  0.8829 -0.3771  0.6861
   22MOL   C20320405   0.619   4.229   7.321  0.1072 -0.1351  0.5220
   22MOL   C20420406   0.539   4.188   7.189  0.1473 -0.4838 -0.0112
   22MOL   O20520407   0.430   4.283   7.173 -0.2890  0.0834 -0.1563
   22MOL   C20620408   0.451   4.391   7.105  0.2044 -0.9247  0.5332
   22MOL   O20720409   0.543   4.408   7.024 -1.2703  0.6957  0.2539
   22MOL   C20820410   0.350   4.499   7.127 -0.2652 -0.1687  0.6648
   22MOL   C20920411   0.342   4.544   7.277 -0.0385  0.1573 -0.5388
   22MOL   C21020412   0.481   4.584   7.330  0.7519 -0.1508 -0.3524
   22MOL   C21120413   0.482   4.636   7.477 -0.2108  0.2237  0.8828
   22MOL   C21220414   0.459   4.781   7.499 -0.0487  0.2402  0.4889
   22MOL   O21320415   0.370   4.842   7.445 -0.1337 -0.3148 -0.7503
   22MOL   H21420416   0.322   4.828   0.046  0.7493  0.2650  1.8098
   22MOL   H21520417   0.229   4.708   0.126  3.2544 -1.0574  3.3515
   22MOL   H21620418   0.463   4.696   0.167 -1.1009  1.3439 -0.7796
   22MOL   H21720419   0.481   4.631   7.758  1.9210 -0.0268  1.2349
   22MOL   H21820420   0.334   4.518   0.228 -1.7213 -0.2722 -1.5443
   22MOL   H21920421   0.312   4.450   0.071  0.4639  0.1654 -0.2363
   22MOL   H22020422   0.480   4.299   0.204 -1.3699  0.3257 -0.0349
   22MOL   H22120423   0.579   4.446   0.226  1.9770 -3.4943  0.1901
   22MOL   H22220424   0.679   4.322   0.061  0.1597 -0.9604  0.7124
   22MOL   H22320425   0.610   4.461   7.756  2.3426 -0.2364  2.2863
   22MOL   H22420426   0.412   4.312   7.675 -0.5074  0.9628  1.0431
   22MOL   H22520427   0.499   4.169   7.732 -0.6895  0.3471  1.3068
   22MOL   H22620428   0.685   4.209   7.577  0.2227 -0.1227 -1.1685
   22MOL   H22720429   0.636   4.377   7.539 -1.0925  1.2562  2.7025
   22MOL   H22820430   0.441   4.314   7.437  1.2849 -0.0772 -0.9586
   22MOL   H22920431   0.478   4.141   7.468  0.8660 -0.6245 -0.2998
   22MOL   H23020432   0.674   4.323   7.314  0.5678 -0.3858  0.7511
   22MOL   H23120433   0.691   4.147   7.321 -0.2852 -0.4827  0.7044
   22MOL   H23220434   0.481   4.096   7.195  0.0799 -0.4064  0.5883
   22MOL   H23320435   0.604   4.173   7.103  5.3245 -1.0437  3.6886
   22MOL   H23420436   0.374   4.589   7.069 -1.3203  0.6972  1.5481
   22MOL   H23520437   0.259   4.467   7.076  0.4783  1.1768 -1.5875
   22MOL   H23620438   0.301   4.461   7.334  0.3424 -0.5079 -1.2321
   22MOL   H23720439   0.273   4.628   7.286 -1.6055 -1.0254 -1.4525
   22MOL   H23820440   0.517   4.660   7.260 -1.2553  0.4559 -0.7321
   22MOL   H23920441   0.554   4.503   7.322  1.5989  0.2728  2.6956
   22MOL   H24020442   0.582   4.616   7.516  0.1977 -1.3434 -0.8891
   22MOL   H24120443   0.422   4.582   7.549 -0.7953 -0.7507 -0.3162
   22MOL   O24220444   0.553   4.834   7.584  0.3146 -0.7767 -0.8456
   22MOL   C24320445   0.565   4.975   7.597 -0.8078 -0.1180 -0.1426
   22MOL   C24420446   0.698   5.006   7.678 -0.6482 -0.7008 -0.5665
   22MOL   C24520447   0.825   5.006   7.587 -0.2575  0.2294  0.6936
   22MOL   C24620448   0.956   5.020   7.661  0.1876  0.3586 -0.4156
   22MOL   C24720449   0.967   5.160   7.715 -0.2194 -0.4853  0.3934
   22MOL   C24820450   0.977   5.283   7.617 -0.2901 -0.3283  0.3107
   22MOL   C24920451   1.081   5.266   7.505 -0.7581  0.0657  0.2467
   22MOL   C25020452   1.082   5.389   7.410  0.2456 -0.2117  0.0318
   22MOL   C25120453   1.206   5.396   7.319  0.8439 -0.3562  0.3525
   22MOL   C25220454   1.221   5.537   7.254  0.3135 -0.0074 -0.2839
   22MOL   O25320455   1.135   5.545   7.141  0.5073  0.5648  0.0104
   22MOL   C25420456   1.174   5.517   7.017 -0.7401  0.1984  0.1355
   22MOL   O25520457   1.286   5.512   6.969 -0.2350  0.5252 -0.4005
   22MOL   C25620458   1.054   5.485   6.925  0.0307 -0.0427 -0.4496
   22MOL   C25720459   1.006   5.337   6.921 -0.0186  0.7964 -0.0137
   22MOL   C25820460   0.922   5.294   6.797  0.0858  0.5253  0.7411
   22MOL   C25920461   0.900   5.141   6.790  0.3261 -0.6202 -0.2362
   22MOL   C26020462   0.789   5.097   6.691 -0.2194 -1.0798 -0.5439
   22MOL   O26120463   0.813   5.015   6.605 -0.4277  0.0938 -0.6165
   22MOL   H26220464   0.549   5.035   7.507  0.9451  1.4098  0.5197
   22MOL   H26320465   0.478   5.011   7.653  0.7762  2.5030  0.7352
   22MOL   H26420466   0.705   4.930   7.756 -0.4608 -0.0945  0.0086
   22MOL   H26520467   0.683   5.099   7.733  1.9320  0.6002 -1.9651
   22MOL   H26620468   0.813   4.909   7.537 -0.2848  0.8530 -0.5214
   22MOL   H26720469   0.811   5.091   7.521  0.6801  0.1337  0.3663
   22MOL   H26820470   1.043   5.011   7.595  0.3349  0.9863 -0.3053
   22MOL   H26920471   0.970   4.952   7.745  3.1488 -0.0141 -1.1422
   22MOL   H27020472   1.058   5.154   0.011  0.4308 -1.1811 -0.6367
   22MOL   H27120473   0.890   5.183   0.024  0.7607  2.5636  0.5260
   22MOL   H27220474   0.990   5.369   7.683 -0.8242  0.4612 -0.5967
   22MOL   H27320475   0.877   5.295   7.574 -0.9624  0.9873  2.2061
   22MOL   H27420476   1.063   5.179   7.443  2.3706  0.5965 -1.4972
   22MOL   H27520477   1.180   5.244   7.546 -0.7484  0.5423  0.4825
   22MOL   H27620478   1.074   5.482   7.466  1.5201  0.5961 -1.1054
   22MOL   H27720479   0.993   5.379   7.347  0.4966  0.0608 -0.3691
   22MOL   H27820480   1.288   5.391   7.391  2.1292  0.7382 -1.0135
   22MOL   H27920481   1.201   5.315   7.246 -1.2088  1.1913 -1.2987
   22MOL   H28020482   1.321   5.561   7.219 -0.2467  1.4500 -0.9192
   22MOL   H28120483   1.189   5.622   7.314 -0.7775 -1.0388  0.6305
   22MOL   H28220484   0.971   5.551   6.948 -0.0414 -1.0830  2.5015
   22MOL   H28320485   1.085   5.525   6.828 -0.3812  0.5535 -0.3410
   22MOL   H28420486   0.947   5.320   7.011 -0.0291 -0.3114 -0.2294
   22MOL   H28520487   1.082   5.263   6.944 -1.2280  0.2190  2.2325
   22MOL   H28620488   0.963   5.339   6.707 -0.1921  0.7440  0.7225
   22MOL   H28720489   0.823   5.338   6.806 -1.3353 -1.5977 -3.1047
   22MOL   H28820490   0.862   5.117   6.889 -0.3877  2.8951  0.3994
   22MOL   H28920491   0.996   5.088   6.785  0.6571  0.1101 -2.2731
   22MOL   O29020492   0.667   5.148   6.717 -0.3293  0.1831  0.2826
   22MOL   C29120493   0.557   5.098   6.643  0.0907  0.7737  0.2817
   22MOL   C29220494   0.436   5.143   6.718  0.1111  0.3017  0.0001
   22MOL   C29320495   0.423   5.290   6.710 -0.4860 -0.0406 -0.2964
   22MOL   C29420496   0.310   5.350   6.795 -0.1316  0.2034  0.2835
   22MOL   C29520497   0.333   5.328   6.950 -0.3539 -0.4894 -0.4771
   22MOL   C29620498   0.223   5.387   7.038 -0.1716 -0.6645 -0.3113
   22MOL   C29720499   0.080   5.330   7.032  0.1614 -0.6214  0.0302
   22MOL   C29820500   7.732   5.412   7.094  0.0992  0.0147 -0.0481
   22MOL   C29920501   7.593   5.348   7.091  0.1539  0.5817  0.0248
   22MOL   C30020502   7.571   5.235   7.188  0.3940  0.7920 -0.2746
   22MOL   O30120503   7.435   5.206   7.178  0.2441 -0.0783  0.3685
   22MOL   C30220504   7.400   5.102   7.094 -0.2691  0.2265 -0.0586
   22MOL   O30320505   7.474   5.037   7.017  0.6807 -0.3077 -0.6615
   22MOL   C30420506   7.250   5.065   7.091 -0.1693 -0.5433  0.2159
   22MOL   C30520507   7.206   5.042   7.238  0.1779  1.1567 -0.2894
   22MOL   C30620508   7.056   5.006   7.244  0.0252 -0.0988 -0.0343
   22MOL   C30720509   6.960   5.124   7.202 -0.5811  0.5906  0.2153
   22MOL   C30820510   6.939   5.224   7.311 -0.5696  0.3726  0.2286
   22MOL   O30920511   6.969   5.343   7.283  0.1243 -0.3371  0.1903
   22MOL   H31020512   0.580   5.142   6.546  1.6355 -0.4491  0.0804
   22MOL   H31120513   0.561   4.990   6.636  0.1917  0.8554 -1.1271
   22MOL   H31220514   0.444   5.110   6.821 -0.0773 -0.6418 -0.2865
   22MOL   H31320515   0.350   5.085   6.685  0.5478 -0.5259  0.3190
   22MOL   H31420516   0.517   5.334   6.742 -1.4345  2.1268 -0.3419
   22MOL   H31520517   0.406   5.316   6.605 -0.3092  1.4303  0.0255
   22MOL   H31620518   0.223   5.296   6.760 -0.6762  1.2396  0.0095
   22MOL   H31720519   0.312   5.456   6.768 -1.4150  1.0910  3.4243
   22MOL   H31820520   0.429   5.367   6.985 -0.7292 -1.0175  1.1894
   22MOL   H31920521   0.344   5.224   6.979  0.9150 -0.1256  0.3936
   22MOL   H32020522   0.211   5.488   6.999  1.3486  0.3416  1.7341
   22MOL   H32120523   0.251   5.389   7.144 -3.2562  2.4675  0.5591
   22MOL   H32220524   0.082   5.225   7.061  1.1846 -1.2334 -2.1142
   22MOL   H32320525   0.070   5.318   6.924  0.6622 -0.0859 -0.0789
   22MOL   H32420526   7.738   5.517   7.068  0.1206 -0.1041 -0.5178
   22MOL   H32520527   7.756   5.440   7.197 -2.2691 -1.4829  0.9571
   22MOL   H32620528   7.522   5.430   7.097  1.9479  2.2747 -1.6034
   22MOL   H32720529   7.574   5.314   6.989  2.3267  1.9533 -0.8787
   22MOL   H32820530   7.607   5.259   7.289 -0.2539 -1.7419  0.5868
   22MOL   H32920531   7.633   5.148   7.169 -0.4199  0.0020  0.6125
   22MOL   H33020532   7.195   5.147   7.045  2.2487  1.4307  0.6948
   22MOL   H33120533   7.238   4.988   7.015  2.5249  1.1763 -2.0411
   22MOL   H33220534   7.233   5.114   7.316  3.3517 -2.1234  1.7968
   22MOL   H33320535   7.263   4.953   7.265  0.4441  1.2242 -0.6200
   22MOL   H33420536   7.018   4.957   7.334  0.8794 -1.0550 -0.1913
   22MOL   H33520537   7.033   4.929   7.170 -4.8343 -0.4172  1.5636
   22MOL   H33620538   6.860   5.100   7.168 -1.0055 -0.5903  2.1777
   22MOL   H33720539   6.995   5.176   7.114  0.2981  2.1985  1.4852
   22MOL   O33820540   6.878   5.178   7.428 -0.0137 -0.3097 -0.4798
   22MOL   C33920541   6.874   5.269   7.539 -0.1784 -0.0197 -0.3269
   22MOL   C34020542   6.874   5.190   7.670 -0.1585  0.3188  0.2561
   22MOL   C34120543   6.864   5.283   0.027  0.6200  0.0732  0.1301
   22MOL   C34220544   6.883   5.207   0.164 -0.0201  0.1994 -0.0493
   22MOL   C34320545   6.866   5.303   0.281  0.3196 -0.1542 -0.3074
   22MOL   C34420546   6.871   5.240   0.424  0.5561  0.0038 -0.0111
   22MOL   C34520547   6.747   5.154   0.453  0.4093  0.2348 -0.6474
   22MOL   C34620548   6.740   5.097   0.592 -0.1111 -0.0528 -0.7911
   22MOL   C34720549   6.595   5.050   0.633  0.2540  0.0279 -0.3499
   22MOL   C34820550   6.570   5.040   0.783  0.0399  0.9038  0.3843
   22MOL   O34920551   6.583   5.161   0.848  0.4367 -0.6923  0.0072
   22MOL   C35020552   6.585   5.167   0.985 -0.4970 -0.2210  0.4325
   22MOL   O35120553   6.559   5.067   1.057 -0.1106 -0.1025 -0.0261
   22MOL   C35220554   6.615   5.311   1.031  0.1299  0.5062  0.3397
   22MOL   C35320555   6.614   5.319   1.182 -0.6923 -0.3376 -0.4897
   22MOL   C35420556   6.636   5.456   1.243 -0.8393  0.9151  0.8751
   22MOL   C35520557   6.595   5.467   1.394 -0.2396  0.5872  0.3810
   22MOL   C35620558   6.589   5.610   1.444 -0.1925 -0.2673  0.2604
   22MOL   O35720559   6.492   5.655   1.502 -0.5076  0.0650 -0.0037
   22MOL   H35820560   6.970   5.319   7.549  0.8445 -2.2188  1.2496
   22MOL   H35920561   6.787   5.334   7.547 -1.3610 -1.1828 -2.8715
   22MOL   H36020562   6.943   5.107   7.687 -2.7224 -2.0788 -0.5484
   22MOL   H36120563   6.783   5.130   7.681 -0.0922  0.2709  0.5292
   22MOL   H36220564   6.941   5.359   0.014  0.7165 -0.0079  0.2273
   22MOL   H36320565   6.769   5.338   0.026  0.6991  0.2099  0.1835
   22MOL   H36420566   6.985   5.169   0.162 -0.4864 -1.1333  1.2423
   22MOL   H36520567   6.815   5.123   0.173  0.8335 -0.6198 -1.2199
   22MOL   H36620568   6.777   5.366   0.283 -0.2869 -0.8682 -2.9560
   22MOL   H36720569   6.947   5.375   0.280 -0.8659  1.2157  0.3560
   22MOL   H36820570   6.867   5.320   0.498  2.4579 -0.2493  0.3663
   22MOL   H36920571   6.965   5.188   0.435 -0.2730 -1.3935  0.5197
   22MOL   H37020572   6.751   5.065   0.389  1.3049 -0.5892  0.5301
   22MOL   H37120573   6.652   5.200   0.428 -0.0134  0.7570  1.8402
   22MOL   H37220574   6.771   5.167   0.669  0.5030  2.8771 -3.6042
   22MOL   H37320575   6.800   5.007   0.603 -1.4523 -0.7362  1.1908
   22MOL   H37420576   6.521   5.120   0.594  0.4422 -0.0380 -0.8223
   22MOL   H37520577   6.571   4.950   0.597  1.9678 -1.0871  1.5011
   22MOL   H37620578   6.640   4.970   0.830  0.7954  0.1116 -1.8514
   22MOL   H37720579   6.472   4.993   0.788  0.1147  0.2131 -3.3262
   22MOL   H37820580   6.711   5.329   0.981 -0.3576 -1.9976 -1.6222
   22MOL   H37920581   6.540   5.380   0.992 -0.5390 -0.6271 -0.4096
   22MOL   H38020582   6.691   5.257   1.229 -3.5264 -2.9381  0.8706
   22MOL   H38120583   6.525   5.269   1.219  0.9434 -2.1593  1.1095
   22MOL   H38220584   6.560   5.510   1.186 -1.0257  1.0072  1.2094
   22MOL   H38320585   6.734   5.493   1.213  0.1924 -1.8793  0.7135
   22MOL   H38420586   6.670   5.411   1.450 -0.2433  1.1397  0.9449
   22MOL   H38520587   6.495   5.425   1.405  0.5518 -1.2271  0.8087
   22MOL   O38620588   6.701   5.677   1.412  0.6669 -0.3324  0.5907
   22MOL   C38720589   6.724   5.804   1.466  0.7989 -0.4087 -0.1195
   22MOL   C38820590   6.865   5.833   1.413 -0.0498 -0.7093  0.2260
   22MOL   C38920591   6.859   5.908   1.271 -0.6183  0.5512  0.5716
   22MOL   C39020592   6.995   5.907   1.191  0.4228 -0.3480 -0.4777
   22MOL   C39120593   6.988   6.002   1.065  0.8437  0.3120 -0.7406
   22MOL   C39220594   7.014   6.145   1.095 -0.4173 -0.7900 -0.0523
   22MOL   C39320595   7.155   6.197   1.073  0.4884  0.1159  0.4359
   22MOL   C39420596   7.194   6.256   0.934 -0.2643 -0.1696 -0.2880
   22MOL   C39520597   7.330   6.322   0.945 -0.2596 -0.0712 -0.1208
   22MOL   C39620598   7.395   6.352   0.804  0.5774 -0.1621  0.0929
   22MOL   O39720599   7.345   6.474   0.756 -0.0577  0.7180  0.2410
   22MOL   C39820600   7.253   6.481   0.657  0.6324  0.5350  0.5375
   22MOL   O39920601   7.193   6.385   0.616 -0.0745 -0.7309 -0.0290
   22MOL   C40020602   7.235   6.614   0.587  1.0389  0.3483 -0.0677
   22MOL   C40120603   7.364   6.655   0.520  0.1465  0.6635  0.2182
   22MOL   C40220604   7.435   6.566   0.423  0.3733  0.8255 -0.2866
   22MOL   C40320605   7.341   6.519   0.308  0.4606 -0.1174 -0.1128
   22MOL   C40420606   7.306   6.626   0.202 -0.1062 -0.3670 -1.5139
   22MOL   O40520607   7.191   6.669   0.181  0.3476 -0.0898 -0.4077
   22MOL   H40620608   6.643   5.876   1.451 -0.5182 -1.8580 -0.2085
   22MOL   H40720609   6.736   5.781   1.572 -0.0563 -0.0745  0.0579
   22MOL   H40820610   6.920   5.741   1.397 -0.9371 -1.3588  0.8816
   22MOL   H40920611   6.923   5.899   1.477 -0.6240  0.9651 -0.9223
   22MOL   H41020612   6.786   5.858   1.207 -0.6288  0.5498  0.5842
   22MOL   H41120613   6.813   6.007   1.277  1.1670  1.5195 -1.1012
   22MOL   H41220614   7.029   5.806   1.167  0.2101 -0.7509  0.8624
   22MOL   H41320615   7.075   5.953   1.249  1.4851  0.1107 -2.2544
   22MOL   H41420616   6.896   5.982   1.008  0.3125  0.9344 -0.1030
   22MOL   H41520617   7.059   5.969   0.989  4.8208 -0.7092  3.2085
   22MOL   H41620618   6.979   6.163   1.197  2.0829 -0.7396  0.8207
   22MOL   H41720619   6.950   6.208   1.033  0.4637 -0.4719 -0.6345
   22MOL   H41820620   7.230   6.127   1.111  0.2478 -1.6526 -2.1580
   22MOL   H41920621   7.154   6.285   1.136 -1.1074  0.8605 -0.5914
   22MOL   H42020622   7.122   6.335   0.910 -0.8548  0.7097  3.9905
   22MOL   H42120623   7.174   6.182   0.855  0.1676  1.4203 -1.9305
   22MOL   H42220624   7.324   6.410   1.008 -0.8628  1.7863 -2.7045
   22MOL   H42320625   7.395   6.257   1.003 -0.8401 -0.5999 -0.0527
   22MOL   H42420626   7.376   6.280   0.725  0.1805  0.3752 -0.3018
   22MOL   H42520627   7.503   6.352   0.818  0.7472  2.0981 -1.0296
   22MOL   H42620628   7.155   6.618   0.513  0.4927 -0.6717  0.4630
   22MOL   H42720629   7.222   6.694   0.660  1.1951  0.6608 -0.3783
   22MOL   H42820630   7.441   6.677   0.595  0.8381  1.0910 -0.6068
   22MOL   H42920631   7.352   6.751   0.469  1.4696 -0.3279 -2.0342
   22MOL   H43020632   7.468   6.472   0.469  1.5309 -0.7855 -4.1814
   22MOL   H43120633   7.528   6.613   0.390  1.9644 -2.0476 -0.0846
   22MOL   H43220634   7.244   6.488   0.348  0.0393  1.1579 -0.1354
   22MOL   H43320635   7.379   6.430   0.258 -0.8725 -0.8301  0.0962
   22MOL   O43420636   7.418   6.663   0.141  0.0536  0.0454 -0.9680
   22MOL   C43520637   7.410   6.760   0.042  0.3872 -0.1761  0.3150
   22MOL   C43620638   7.537   6.753   7.730  0.5954 -0.5637 -0.2999
   22MOL   C43720639   7.661   6.799   0.051 -0.0716 -0.8724  0.5744
   22MOL   C43820640   0.034   6.802   7.737 -0.0557 -0.6576  0.4650
   22MOL   C43920641   0.162   6.801   0.065 -0.9599  0.6324  0.0550
   22MOL   C44020642   0.290   6.807   7.741  0.5810  0.1531  1.0577
   22MOL   C44120643   0.430   6.824   0.047 -0.7162  0.0845  0.1549
   22MOL   C44220644   0.541   6.806   7.715  0.1788 -0.0571  0.8700
   22MOL   C44320645   0.681   6.829   0.015 -0.2627 -0.5471 -0.0556
   22MOL   C44420646   0.797   6.768   7.694 -0.4072 -0.0397 -0.6046
   22MOL   O44520647   0.923   6.811   7.750  0.2110  0.7887 -0.3063
   22MOL   C44620648   1.021   6.852   7.677 -1.2770 -0.1911  0.1905
   22MOL   O44720649   1.018   6.880   7.560  0.1977  0.3960 -0.4899
   22MOL   C44820650   1.142   6.872   0.001 -0.4710 -0.5165 -1.0841
   22MOL   C44920651   1.251   6.760   7.747 -0.2505 -0.5515  0.2609
   22MOL   C45020652   1.387   6.776   0.052  0.4512 -0.3830  0.4744
   22MOL   C45120653   1.483   6.661   0.023  0.4961 -0.4412  0.1815
   22MOL   C45220654   1.564   6.682   7.658  0.0987  0.5397  0.1117
   22MOL   O45320655   1.601   6.585   7.593 -0.3126 -0.5839  0.0359
   22MOL   H45420656   7.328   6.744   7.736  2.2344 -1.8180 -1.5327
   22MOL   H45520657   7.392   6.853   0.096 -0.9449 -0.7894  0.9283
   22MOL   H45620658   7.531   6.820   7.644  0.0181 -1.7032 -1.1603
   22MOL   H45720659   7.540   6.651   7.690  0.1985 -0.4519 -0.6224
   22MOL   H45820660   7.645   6.895   0.099 -0.9416 -0.8282  0.2027
   22MOL   H45920661   7.673   6.728   0.133  0.9750 -0.9389  0.3717
   22MOL   H46020662   0.029   6.883   7.665  0.5952  1.5504  2.8297
   22MOL   H46120663   0.045   6.711   7.677  0.5910 -1.0524  1.1623
   22MOL   H46220664   0.171   6.710   0.125  0.7394 -1.1401 -2.7611
   22MOL   H46320665   0.149   6.878   0.140  1.2028 -0.7756  1.9483
   22MOL   H46420666   0.271   6.888   7.671 -1.3098 -0.3774  0.9146
   22MOL   H46520667   0.300   6.719   7.679  0.7680  1.2027 -0.4106
   22MOL   H46620668   0.430   6.767   0.140 -0.5320 -0.1259  0.0248
   22MOL   H46720669   0.429   6.922   0.095 -0.4724 -1.2993  3.1127
   22MOL   H46820670   0.527   6.858   7.620  0.8274 -0.4912  0.5338
   22MOL   H46920671   0.541   6.704   7.676 -2.1286  0.9598 -1.9323
   22MOL   H47020672   0.704   6.934   0.029 -0.9734 -0.5114  0.9006
   22MOL   H47120673   0.687   6.794   0.118 -1.3856 -2.0744 -0.4794
   22MOL   H47220674   0.794   6.813   7.595  3.7266 -1.2043 -1.3790
   22MOL   H47320675   0.787   6.661   7.678  2.3759 -0.2529 -1.2376
   22MOL   H47420676   1.163   6.976   7.739  2.5829 -1.2173 -1.6534
   22MOL   H47520677   1.118   6.859   0.107  1.4019 -2.4165 -0.8481
   22MOL   H47620678   1.258   6.741   7.640  2.9465  1.4945  0.0447
   22MOL   H47720679   1.205   6.665   0.011 -0.4859 -0.4456  0.2394
   22MOL   H47820680   1.376   6.782   0.160  0.2824 -2.1966  0.5687
   22MOL   H47920681   1.422   6.876   0.026 -1.2525  0.3800  1.0458
   22MOL   H48020682   1.437   6.563   0.018  2.1010 -1.2498  0.9938
   22MOL   H48120683   1.558   6.661   0.102 -0.5485 -0.0171  1.1812
   22MOL   O48220684   1.599   6.811   7.622  0.3441  0.4433  0.0885
   22MOL   C48320685   1.700   6.831   7.532 -0.2366  0.3063 -0.6780
   22MOL   C48420686   1.654   6.891   7.395 -0.4392 -0.0556 -0.0584
   22MOL   C48520687   1.605   6.789   7.290  0.2153 -0.5821  0.3473
   22MOL   C48620688   1.471   6.732   7.318  0.4442 -0.3453  0.0249
   22MOL   C48720689   1.364   6.823   7.360 -1.0044 -0.0751 -0.8464
   22MOL   C48820690   1.317   6.914   7.241 -0.2614  0.2270 -0.6934
   22MOL   C48920691   1.218   7.020   7.275  0.1583  0.1264 -1.1393
   22MOL   C49020692   1.170   7.116   7.161 -0.2449 -0.2391 -0.1848
   22MOL   C49120693   1.281   7.213   7.124 -0.4570  0.5184 -0.0877
   22MOL   C49220694   1.224   7.326   7.034 -0.3280 -0.1446  0.1283
   22MOL   O49320695   1.322   7.416   6.994  0.2834 -0.2724  0.0785
   22MOL   C49420696   1.366   7.509   7.084 -0.4317 -0.7291 -0.0678
   22MOL   O49520697   1.321   7.524   7.198  0.3743  0.4486 -0.5844
   22MOL   C49620698   1.478   7.598   7.032  0.0831 -0.2823  0.5165
   22MOL   C49720699   1.528   7.695   7.143  0.2579  0.2247  0.4157
   22MOL   C49820700   1.648   0.007   7.086 -0.1863 -0.1716  0.3475
   22MOL   C49920701   1.615   0.100   6.959 -0.6613  0.6162  0.0592
   22MOL   C50020702   1.745   0.185   6.916  0.6903 -0.7894 -0.3149
   22MOL   O50120703   1.854   0.135   6.914 -0.3845  0.5324  0.5941
   22MOL   H50220704   1.771   6.898   7.581  1.0350 -1.4281 -0.0819
   22MOL   H50320705   1.773   6.753   7.511 -0.2271 -0.0041  0.5265
   22MOL   H50420706   1.749   6.936   7.366 -0.9229  1.4873  0.6723
   22MOL   H50520707   1.578   6.969   7.408  1.3212  1.8073 -0.5862
   22MOL   H50620708   1.608   6.838   7.193  1.6192 -1.4121 -0.0416
   22MOL   H50720709   1.675   6.706   7.291  0.7564 -0.1277  0.0538
   22MOL   H50820710   1.483   6.655   7.395  2.3658 -0.5496 -0.4425
   22MOL   H50920711   1.431   6.684   7.229  2.4160 -2.1904  0.0698
   22MOL   H51020712   1.385   6.881   7.450  1.2895  0.6820 -1.8493
   22MOL   H51120713   1.273   6.769   7.386 -0.0027 -0.5289  1.9177
   22MOL   H51220714   1.278   6.856   7.158 -2.0055 -1.8371  1.4813
   22MOL   H51320715   1.408   6.951   7.194  1.0772 -1.0249  0.8482
   22MOL   H51420716   1.271   7.078   7.350 -1.1047  0.3458 -0.4039
   22MOL   H51520717   1.134   6.973   7.327  0.4514  1.2658  0.4037
   22MOL   H51620718   1.080   7.166   7.198  0.2537  0.3654  0.2193
   22MOL   H51720719   1.144   7.052   7.076  1.4196 -0.5673 -0.4550
   22MOL   H51820720   1.316   7.264   7.214  2.0274 -0.0534 -0.6791
   22MOL   H51920721   1.370   7.173   7.077 -1.0816 -0.6968 -0.2446
   22MOL   H52020722   1.140   7.372   7.086 -1.0541 -1.4334  0.1353
   22MOL   H52120723   1.188   7.280   6.941 -2.2318  0.9789  0.2874
   22MOL   H52220724   1.553   7.539   6.980 -0.5341 -2.1780  1.6999
   22MOL   H52320725   1.441   7.659   6.950  1.0483  2.1227  1.8160
   22MOL   H52420726   1.559   7.640   7.232 -1.7144 -2.0655 -0.2752
   22MOL   H52520727   1.456   0.004   7.180 -0.4536  0.3108 -1.1140
   22MOL   H52620728   1.723   7.699   7.054  1.1488  0.3901  2.0791
   22MOL   H52720729   1.701   0.064   7.163  3.0772 -3.4825  0.6780
   22MOL   H52820730   1.542   0.174   6.993 -0.8331  0.3126  0.3661
   22MOL   H52920731   1.577   0.043   6.874 -0.0317  0.7327 -0.3021
   22MOL   O53020732   1.718   0.311   6.885  0.0857 -0.3140 -0.1910
   22MOL   C53120733   1.822   0.391   6.842 -0.2735  0.3668 -0.6614
   22MOL   C53220734   1.884   0.485   6.953 -0.7588 -0.8260  0.0318
   22MOL   C53320735   1.957   0.421   7.073 -0.0327 -0.2703 -0.4091
   22MOL   C53420736   2.023   0.529   7.165  0.0453  0.6804  0.3510
   22MOL   C53520737   2.098   0.474   7.292 -0.0252  0.3145  0.0481
   22MOL   C53620738   2.139   0.596   7.385 -0.6836  0.0220 -0.4027
   22MOL   C53720739   2.216   0.546   7.507  0.2095  0.2309  0.7085
   22MOL   C53820740   2.370   0.526   7.495 -0.3638 -0.5362 -0.1131
   22MOL   C53920741   2.421   0.451   7.616  0.5656 -0.1669  0.9958
   22MOL   C54020742   2.567   0.429   7.608 -1.3273  0.0455  0.0755
   22MOL   O54120743   2.600   0.335   7.706  0.2749  0.6459  0.4670
   22MOL   C54220744   2.709   0.272   7.699 -0.4120 -0.2969  0.6716
   22MOL   O54320745   2.802   0.289   7.615  0.5852  0.8253  0.2497
   22MOL   C54420746   2.721   0.178   0.056 -0.3358  0.1847 -0.6606
   22MOL   C54520747   2.710   0.254   0.191 -0.0304  0.4704  0.0320
   22MOL   C54620748   2.826   0.342   0.212  0.3500  0.8472  0.3698
   22MOL   C54720749   2.829   0.369   0.367 -0.0323  0.3807  0.8753
   22MOL   C54820750   2.720   0.452   0.428 -0.3198  0.5354  0.5030
   22MOL   O54920751   2.653   0.413   0.524  0.5235  0.2607 -0.2216
   22MOL   H55020752   1.891   0.322   6.795 -1.9697 -2.7540  1.2917
   22MOL   H55120753   1.778   0.460   6.770  0.1926  0.7782 -0.5558
   22MOL   H55220754   1.799   0.542   6.992  0.2068 -0.1383  1.1433
   22MOL   H55320755   1.948   0.558   6.904 -2.2131 -0.6378 -1.6412
   22MOL   H55420756   1.896   0.346   7.124 -0.5928  0.0917 -0.5402
   22MOL   H55520757   2.033   0.358   7.027 -0.1613  1.8003 -3.6253
   22MOL   H55620758   1.937   0.585   7.202 -2.4337 -2.7627  0.1121
   22MOL   H55720759   2.090   0.600   7.116 -1.2882  1.3135 -0.5823
   22MOL   H55820760   2.186   0.417   7.260  1.3757  1.1976  2.2351
   22MOL   H55920761   2.033   0.404   7.343 -1.3568  1.5656  0.0873
   22MOL   H56020762   2.054   0.653   7.422 -1.6493 -2.1558  0.8570
   22MOL   H56120763   2.190   0.676   7.332 -0.3624 -0.9960 -1.6426
   22MOL   H56220764   2.172   0.455   7.549 -3.5158  2.3561  1.6184
   22MOL   H56320765   2.193   0.614   7.589 -0.3338 -0.7723  1.3922
   22MOL   H56420766   2.425   0.619   7.482  2.0325 -1.8637  0.1990
   22MOL   H56520767   2.394   0.466   7.407 -3.0472  0.1350 -1.3617
   22MOL   H56620768   2.395   0.508   7.705 -2.7147 -0.4454  0.3014
   22MOL   H56720769   2.363   0.359   7.625  0.6647 -0.4205 -0.7822
   22MOL   H56820770   2.629   0.515   7.632  1.5372 -2.0668  0.5144
   22MOL   H56920771   2.589   0.392   7.508 -1.8224  1.3275 -0.5254
   22MOL   H57020772   2.649   0.097   0.044  1.9175 -2.1207  0.6498
   22MOL   H57120773   2.811   0.117   0.048 -1.7931 -2.4961  2.2726
   22MOL   H57220774   2.687   0.178   0.265 -1.5375 -1.3465 -2.2563
   22MOL   H57320775   2.618   0.310   0.180 -0.7584 -0.7662 -0.2502
   22MOL   H57420776   2.833   0.430   0.148 -1.6272 -0.4997 -1.7706
   22MOL   H57520777   2.913   0.288   0.174 -1.8409 -1.5615 -1.3540
   22MOL   H57620778   2.924   0.417   0.394  1.0881 -0.7255 -1.0204
   22MOL   H57720779   2.836   0.272   0.416  2.8292  0.4963  0.7929
   22MOL   O57820780   2.716   0.573   0.370 -0.6683  0.2388 -0.0822
   22MOL   C57920781   2.640   0.684   0.415 -0.5707  0.6416  0.1887
   22MOL   C58020782   2.528   0.707   0.317  0.4549 -0.0932 -0.5934
   22MOL   C58120783   2.430   0.593   0.282  0.9149  0.4456 -0.6438
   22MOL   C58220784   2.303   0.635   0.201 -0.0816  0.1317 -0.3029
   22MOL   C58320785   2.194   0.530   0.172 -0.1276  0.1721  0.5115
   22MOL   C58420786   2.063   0.597   0.139 -0.1850  0.1388 -0.4009
   22MOL   C58520787   1.942   0.507   0.121 -0.3578  0.2296  0.2088
   22MOL   C58620788   1.948   0.417   7.757  0.1850  0.9509 -0.8605
   22MOL   C58720789   1.838   0.303   7.758  0.9662  0.1800 -0.0090
   22MOL   C58820790   1.828   0.209   7.643 -0.1678  0.4645  0.6754
   22MOL   O58920791   1.708   0.129   7.658  0.0900  0.0860 -0.1030
   22MOL   C59020792   1.662   0.052   7.561 -0.5431 -0.0982  0.3930
   22MOL   O59120793   1.709   0.050   7.451 -0.0424  0.6202 -0.3075
   22MOL   C59220794   1.541   7.736   7.604  0.0126 -0.2006  0.0663
   22MOL   C59320795   1.416   0.053   7.615  0.3274  0.4794 -0.0422
   22MOL   C59420796   1.358   0.092   7.473  0.0089 -0.2840 -0.0642
   22MOL   C59520797   1.229   0.166   7.490  0.3573  0.5952 -0.3401
   22MOL   C59620798   1.140   0.150   7.367  0.2549 -0.1361  0.4947
   22MOL   O59720799   1.170   0.197   7.260  0.1948 -0.8813 -0.3152
   22MOL   H59820800   2.607   0.676   0.518 -0.7527 -2.4018 -0.0638
   22MOL   H59920801   2.704   0.773   0.417  1.3136 -0.6289 -0.9712
   22MOL   H60020802   2.563   0.750   0.223 -0.3556  0.1785 -0.7761
   22MOL   H60120803   2.459   0.782   0.356  0.0374 -0.1013 -1.3046
   22MOL   H60220804   2.483   0.509   0.236 -0.0256  0.1725 -1.2316
   22MOL   H60320805   2.411   0.542   0.376  0.9235  4.0872  1.4123
   22MOL   H60420806   2.335   0.663   0.101 -0.8519 -2.9322 -1.4554
   22MOL   H60520807   2.262   0.722   0.251  1.1201  1.2802 -1.2852
   22MOL   H60620808   2.196   0.471   0.263 -0.5470 -1.1759 -0.3386
   22MOL   H60720809   2.219   0.469   0.085 -0.7303  0.1900  0.3214
   22MOL   H60820810   2.070   0.650   0.044  1.5229 -0.1772 -0.4572
   22MOL   H60920811   2.037   0.673   0.212  0.2277  2.3771 -2.5004
   22MOL   H61020812   1.849   0.563   0.113 -1.1170 -1.2795 -1.8463
   22MOL   H61120813   1.943   0.442   0.210  2.6285 -1.5978 -1.0636
   22MOL   H61220814   2.044   0.366   7.755  1.2233  2.9191 -2.5409
   22MOL   H61320815   1.945   0.471   7.663  0.2092 -1.5962 -2.3715
   22MOL   H61420816   1.859   0.230   0.071  1.8321 -0.6738 -1.0334
   22MOL   H61520817   1.742   0.353   0.004  1.1497  0.4393  0.4891
   22MOL   H61620818   1.906   0.132   7.641  1.1354  1.7809  0.0386
   22MOL   H61720819   1.828   0.259   7.547  0.6640 -0.1376  0.3515
   22MOL   H61820820   1.534   7.652   7.535 -0.8565 -0.6020  0.6279
   22MOL   H61920821   1.560   7.684   7.698  0.8975 -0.3919 -0.2170
   22MOL   H62020822   1.430   0.149   7.665 -2.6205  0.1077  1.6502
   22MOL   H62120823   1.342   7.764   7.675  1.1620 -0.7064 -0.0591
   22MOL   H62220824   1.345   0.003   7.412  0.6509  0.3199 -1.1036
   22MOL   H62320825   1.440   0.136   7.416 -0.5608 -1.0010 -1.4733
   22MOL   H62420826   1.246   0.271   7.514  2.3699  0.0665  0.6613
   22MOL   H62520827   1.174   0.110   7.565  0.6871 -0.3404 -0.7865
   22MOL   O62620828   1.027   0.086   7.391  0.0223  0.3751 -0.5631
   22MOL   C62720829   0.930   0.077   7.285  0.3854 -0.0291 -0.5442
   22MOL   C62820830   0.826   7.730   7.302 -0.8622 -0.7652  0.0917
   22MOL   C62920831   0.884   7.583   7.304 -0.5925  0.2614  0.4323
   22MOL   C63020832   0.779   7.492   7.367 -0.6964  0.6958 -0.3767
   22MOL   C63120833   0.826   7.346   7.356  0.5757  0.1644  0.1264
   22MOL   C63220834   0.727   7.240   7.399  0.5161 -0.1339  0.7870
   22MOL   C63320835   0.779   7.097   7.392  0.2734 -0.7058  0.8165
   22MOL   C63420836   0.791   7.042   7.245  0.0499 -0.6135  0.1881
   22MOL   C63520837   0.838   6.899   7.249  0.2682 -0.1759  0.3205
   22MOL   C63620838   0.851   6.833   7.108  0.4441 -0.3790  0.2199
   22MOL   O63720839   0.949   6.896   7.035  0.3495 -0.1115  0.3434
   22MOL   C63820840   0.986   6.849   6.911  0.2562 -0.2621 -0.4858
   22MOL   O63920841   0.957   6.738   6.872  0.3454 -0.0657  0.3471
   22MOL   C64020842   1.055   6.958   6.827 -0.1734  0.0283  0.6608
   22MOL   C64120843   0.976   7.090   6.835 -0.1226 -0.9273  0.2581
   22MOL   C64220844   0.864   7.107   6.735  0.0364 -0.8127  0.5479
   22MOL   C64320845   0.751   7.210   6.774  0.2910 -0.3199 -0.0215
   22MOL   C64420846   0.675   7.271   6.659  0.4500 -0.2487  0.0455
   22MOL   O64520847   0.716   7.267   6.543 -0.0910  0.4529 -0.1716
   22MOL   H64620848   0.879   0.173   7.282  0.4072  0.0385  0.7584
   22MOL   H64720849   0.989   0.048   7.198  0.8172 -0.1986 -0.1995
   22MOL   H64820850   0.762   7.736   7.215 -2.4840 -0.2488  1.2975
   22MOL   H64920851   0.764   7.752   7.389 -0.0024  1.9504  0.0632
   22MOL   H65020852   0.899   7.555   7.200 -3.3924 -0.6152  0.2194
   22MOL   H65120853   0.976   7.570   7.361  0.0001  2.3646  0.0070
   22MOL   H65220854   0.686   7.505   7.311 -0.3022 -0.8304 -1.4310
   22MOL   H65320855   0.763   7.516   7.472  0.3957 -1.3304  0.2708
   22MOL   H65420856   0.926   7.330   7.399  0.2271 -2.6319 -0.0153
   22MOL   H65520857   0.852   7.328   7.252  1.4057 -1.1613  0.5487
   22MOL   H65620858   0.638   7.252   7.337  0.6469 -0.6404  0.4948
   22MOL   H65720859   0.693   7.260   7.501 -1.1813 -0.0277  0.2169
   22MOL   H65820860   0.713   7.036   7.454 -2.2596  0.1355 -0.9515
   22MOL   H65920861   0.875   7.090   7.443 -0.4833 -1.4240  2.1864
   22MOL   H66020862   0.863   7.109   7.198  0.7425 -0.3390  1.5865
   22MOL   H66120863   0.693   7.052   7.199  0.1144  0.1690  0.2100
   22MOL   H66220864   0.935   6.892   7.298 -0.3789 -2.0622  1.4174
   22MOL   H66320865   0.768   6.845   7.313  2.0623 -0.0977  2.4014
   22MOL   H66420866   0.763   6.837   7.044  0.2301  0.0094  0.5347
   22MOL   H66520867   0.864   6.726   7.125 -1.0811 -0.4515  1.0265
   22MOL   H66620868   1.150   6.976   6.876  0.4098 -0.0497 -0.4305
   22MOL   H66720869   1.083   6.923   6.727  0.0511 -0.7278  0.9803
   22MOL   H66820870   1.049   7.165   6.802 -1.9743  0.1461 -1.5529
   22MOL   H66920871   0.951   7.128   6.934 -1.6483 -0.6631 -0.2094
   22MOL   H67020872   0.823   7.007   6.728 -1.6477 -0.1414  0.5518
   22MOL   H67120873   0.901   7.121   6.634  0.0354  1.7102  0.8491
   22MOL   H67220874   0.793   7.298   6.825  0.3210  0.4836 -1.4172
   22MOL   H67320875   0.680   7.157   6.837 -0.2814  1.6985  1.0838
   22MOL   O67420876   0.553   7.318   6.696 -0.1004  0.0759  0.3481
   22MOL   C67520877   0.466   7.376   6.598 -0.2719 -0.0694 -0.0410
   22MOL   C67620878   0.338   7.288   6.601 -0.0623  0.1154  0.5561
   22MOL   C67720879   0.223   7.345   6.511 -0.7106  0.4610 -0.0664
   22MOL   C67820880   0.089   7.267   6.524 -0.4042  0.3902  0.4154
   22MOL   C67920881   7.759   7.307   6.639  0.1542  0.5247 -0.1767
   22MOL   C68020882   7.642   7.204   6.641  0.0016 -0.0545  0.9700
   22MOL   C68120883   7.530   7.227   6.748 -0.9040  0.0828 -0.4804
   22MOL   C68220884   7.391   7.182   6.693 -0.3920  0.5382 -0.1674
   22MOL   C68320885   7.378   7.044   6.640  0.3477 -0.3798 -0.0053
   22MOL   C68420886   7.397   6.926   6.729  0.8130  0.1086 -0.6971
   22MOL   O68520887   7.274   6.894   6.792 -0.7263  0.3745 -0.2044
   22MOL   C68620888   7.264   6.913   6.922 -0.5615  0.3807 -0.0292
   22MOL   O68720889   7.360   6.930   7.004 -0.0918 -0.1184 -0.0347
   22MOL   C68820890   7.117   6.911   6.967 -0.0927 -0.2628 -0.1767
   22MOL   C68920891   7.015   7.013   6.909 -0.0646 -1.1515  0.2978
   22MOL   C69020892   6.878   7.007   6.970  0.3538 -0.6263 -0.3326
   22MOL   C69120893   6.773   7.091   6.889 -0.0908 -0.1437  0.3395
   22MOL   C69220894   6.630   7.074   6.937  0.4893  0.0714  0.9943
   22MOL   O69320895   6.606   7.008   7.035 -0.2536 -0.4847 -0.4269
   22MOL   H69420896   0.442   7.478   6.626  1.8413  0.2452  0.7711
   22MOL   H69520897   0.504   7.387   6.496 -2.6302  1.0706 -0.8311
   22MOL   H69620898   0.299   7.264   6.700 -0.5242  0.8405  0.5566
   22MOL   H69720899   0.369   7.190   6.564  0.5370  0.8177 -0.8401
   22MOL   H69820900   0.206   7.452   6.522  0.8504  0.7454 -0.2813
   22MOL   H69920901   0.260   7.342   6.409 -3.2037  1.1612 -1.0300
   22MOL   H70020902   0.106   7.161   6.546  1.7932  0.7003  0.2603
   22MOL   H70120903   0.047   7.263   6.424  0.7668  1.7083 -0.1332
   22MOL   H70220904   7.717   7.407   6.629 -1.9560 -0.2393  0.8160
   22MOL   H70320905   0.050   7.302   6.733  0.1897  3.3055  0.0176
   22MOL   H70420906   7.684   7.105   6.661 -1.1854 -0.5138  1.2549
   22MOL   H70520907   7.597   7.210   6.542 -1.2506  0.6490  1.5827
   22MOL   H70620908   7.531   7.336   6.752  0.8521  0.0789 -0.2547
   22MOL   H70720909   7.555   7.186   6.846 -0.6661  0.3692 -0.4219
   22MOL   H70820910   7.363   7.253   6.615 -0.3370 -1.7791 -2.3736
   22MOL   H70920911   7.315   7.203   6.768  2.0375  2.2814  1.8966
   22MOL   H71020912   7.282   7.028   6.591 -0.6942 -2.1012  2.5180
   22MOL   H71120913   7.437   7.039   6.549 -0.2250 -2.2607 -0.2942
   22MOL   H71220914   7.474   6.935   6.805  0.6797  0.2665 -0.5793
   22MOL   H71320915   7.407   6.838   6.666 -0.6883 -3.0651  3.2486
   22MOL   H71420916   7.084   6.807   6.959  2.1943 -0.9491 -1.3355
   22MOL   H71520917   7.112   6.923   7.076 -0.4544 -0.2906 -0.1903
   22MOL   H71620918   7.005   7.003   6.801 -4.0946  1.5371  0.3076
   22MOL   H71720919   7.059   7.112   6.922  0.3617 -1.0331 -1.8232
   22MOL   H71820920   6.877   7.035   7.076 -1.5998 -1.5506 -0.0756
   22MOL   H71920921   6.850   6.902   6.975  3.5307 -1.4905  0.0349
   22MOL   H72020922   6.788   7.079   6.782 -4.0573  0.3286 -0.3308
   22MOL   H72120923   6.800   7.194   6.912 -0.1863  0.0337 -0.3175
   22MOL   O72220924   6.537   7.143   6.856  0.1209 -0.4636  0.8191
   22MOL   C72320925   6.399   7.135   6.898 -0.1001  0.1666  0.5968
   22MOL   C72420926   6.320   7.207   6.798  0.6093 -0.7590 -0.7371
   22MOL   C72520927   6.267   7.114   6.683 -0.0659  0.4027 -0.0834
   22MOL   C72620928   6.183   7.195   6.582 -0.4565  0.0437 -0.6795
   22MOL   C72720929   6.135   7.114   6.469 -0.3655  0.3011 -0.0008
   22MOL   C72820930   6.236   7.080   6.363  0.1438 -0.5597  0.0668
   22MOL   C72920931   6.164   7.021   6.245  0.7280  0.1039 -0.1299
   22MOL   C73020932   6.264   6.988   6.139  0.6938 -0.8799  0.2126
   22MOL   C73120933   6.186   6.923   6.022 -0.3745 -0.1538  0.1397
   22MOL   C73220934   6.284   6.889   5.910  0.1432  0.1980 -0.1940
   22MOL   O73320935   6.224   6.811   5.802  0.3857 -0.3306  0.9238
   22MOL   C73420936   6.124   6.867   5.729  0.6605 -0.0398  0.2481
   22MOL   O73520937   6.111   6.987   5.710 -0.1073 -0.4831  0.5093
   22MOL   C73620938   6.039   6.765   5.654  0.1577  0.1127  0.2587
   22MOL   C73720939   5.892   6.800   5.644 -0.3156  0.2966 -0.7851
   22MOL   C73820940   5.811   6.696   5.567 -0.2000  0.4292  0.3495
   22MOL   C73920941   5.849   6.674   5.415 -0.1604  0.4509  0.4387
   22MOL   C74020942   5.806   6.536   5.356  0.3995 -0.2074 -0.1618
   22MOL   O74120943   5.774   6.446   5.433  0.1231 -0.7090  0.3433
   22MOL   H74220944   6.370   7.030   6.908 -1.3075  0.6099  1.8378
   22MOL   H74320945   6.392   7.178   6.998 -0.6331 -0.4895  0.8423
   22MOL   H74420946   6.373   7.293   6.757 -0.3929  1.4649  2.4313
   22MOL   H74520947   6.231   7.244   6.849  0.4135 -1.1420 -0.8032
   22MOL   H74620948   6.352   7.076   6.627  0.8784 -0.2254  1.7624
   22MOL   H74720949   6.209   7.031   6.722 -0.2521 -0.3281 -1.8809
   22MOL   H74820950   6.248   7.270   6.538 -0.9643 -0.0766 -1.6346
   22MOL   H74920951   6.104   7.250   6.632 -0.7691 -1.2432  0.2832
   22MOL   H75020952   6.059   7.174   6.418  1.0983  0.7763 -1.7135
   22MOL   H75120953   6.089   7.027   6.513  0.7084  1.0097  2.5993
   22MOL   H75220954   6.316   7.015   6.397 -0.3804 -1.0311  0.3967
   22MOL   H75320955   6.285   7.171   6.327  0.2652 -0.7757 -0.3053
   22MOL   H75420956   6.086   7.081   6.198  0.4406 -0.4520 -0.3771
   22MOL   H75520957   6.119   6.927   6.277  0.9669 -0.7257 -2.1473
   22MOL   H75620958   6.336   6.912   6.168  0.3789 -1.2608 -0.0033
   22MOL   H75720959   6.323   7.074   6.106  2.2177 -0.8494  2.8731
   22MOL   H75820960   6.118   6.842   6.049 -0.5979  0.0130  0.0836
   22MOL   H75920961   6.124   7.003   5.982  0.0059 -0.9108 -1.9794
   22MOL   H76020962   6.368   6.831   5.947  1.2418  0.7008 -1.8529
   22MOL   H76120963   6.311   6.984   5.864  1.5899  0.0929  0.4053
   22MOL   H76220964   6.080   6.762   5.554  1.9487  1.4503  0.9232
   22MOL   H76320965   6.059   6.675   5.712  0.3420 -0.6710 -1.0008
   22MOL   H76420966   5.879   6.900   5.600  3.1152  1.2064  0.1310
   22MOL   H76520967   5.847   6.797   5.743  0.7760 -2.3235 -0.3192
   22MOL   H76620968   5.705   6.717   5.578 -0.4762 -0.4299 -0.5620
   22MOL   H76720969   5.836   6.603   5.618 -1.4826 -1.0083 -1.5973
   22MOL   H76820970   5.958   6.669   5.418 -0.1832  0.3479  1.1594
   22MOL   H76920971   5.820   6.763   5.358 -1.8140  1.6676  3.0560
   22MOL   O77020972   5.804   6.534   5.223 -0.1568 -0.4667 -0.5737
   22MOL   C77120973   5.783   6.406   5.167 -0.6587  0.4126  0.6468
   22MOL   C77220974   5.802   6.393   5.012  0.1537  0.1988 -0.1586
   22MOL   C77320975   5.755   6.251   4.960 -0.1172  0.0622 -0.5588
   22MOL   C77420976   5.795   6.234   4.814  0.0222  0.0293 -1.0589
   22MOL   C77520977   5.736   6.103   4.754 -0.3239  0.0122 -0.1985
   22MOL   C77620978   5.808   5.975   4.807 -0.4079 -0.0116  0.3559
   22MOL   C77720979   5.829   5.866   4.707 -0.6092  0.1290 -0.3761
   22MOL   C77820980   5.889   5.739   4.763  0.4315 -0.1693  0.1036
   22MOL   C77920981   5.922   5.637   4.647 -0.1661 -0.3155 -0.0907
   22MOL   C78020982   6.013   5.521   4.691 -0.1660  0.6727  0.6046
   22MOL   O78120983   5.954   5.412   4.759  0.1405 -0.1324  0.1862
   22MOL   C78220984   6.033   5.322   4.820 -0.3572 -0.4367  0.6848
   22MOL   O78320985   6.158   5.344   4.835 -0.5822  0.0497 -0.0012
   22MOL   C78420986   5.964   5.190   4.872 -0.1873  0.4791  0.1616
   22MOL   C78520987   5.810   5.202   4.884 -0.2025  0.7343  0.3843
   22MOL   C78620988   5.767   5.274   5.013  0.0465  0.1117 -0.2959
   22MOL   C78720989   5.613   5.278   5.031 -0.2128  0.1897 -0.5302
   22MOL   C78820990   5.580   5.325   5.168  0.0590 -0.5718 -0.8427
   22MOL   O78920991   5.574   5.247   5.260 -0.5385 -0.1693  0.0332
   22MOL   H79020992   5.838   6.328   5.219 -0.5403 -0.4720 -0.7562
   22MOL   H79120993   5.681   6.384   5.199 -1.0287  0.7607 -0.2619
   22MOL   H79220994   5.907   6.401   4.985  0.9016 -1.0747  2.2370
   22MOL   H79320995   5.735   6.467   4.968  0.2693 -0.2968 -1.1849
   22MOL   H79420996   5.783   6.172   5.029 -0.9549 -1.0367 -1.4400
   22MOL   H79520997   5.647   6.240   4.976 -0.1533  0.9297 -0.1728
   22MOL   H79620998   5.903   6.237   4.803  0.3096  0.7074  1.6057
   22MOL   H79720999   5.772   6.314   4.744 -2.3811  0.2888  0.0073
   22MOL   H79821000   5.740   6.109   4.646  0.1441  0.2732 -0.1707
   22MOL   H79921001   5.628   6.092   4.764 -0.4588  0.8618 -0.7187
   22MOL   H80021002   5.745   5.940   4.889  1.6502  0.2848  2.1258
   22MOL   H80121003   5.899   6.008   4.856 -0.5820 -1.1222  1.4649
   22MOL   H80221004   5.883   5.888   4.615  1.3871  2.6818  1.3081
   22MOL   H80321005   5.741   5.828   4.657  0.2117 -0.5500 -1.3189
   22MOL   H80421006   5.823   5.698   4.840 -0.3034  2.0777  0.7130
   22MOL   H80521007   5.975   5.765   4.825  0.5544  0.4885 -0.3281
   22MOL   H80621008   5.827   5.596   4.611  0.5200 -2.8841  0.9029
   22MOL   H80721009   5.971   5.688   4.564 -0.2431  1.7195  1.0694
   22MOL   H80821010   6.089   5.566   4.755 -0.4913  1.6301  0.3204
   22MOL   H80921011   6.064   5.484   4.602  1.0764 -0.8449  1.9217
   22MOL   H81021012   5.999   5.102   4.817  0.0388 -0.1789  1.3386
   22MOL   H81121013   6.008   5.169   4.969  0.7866  1.2381 -0.1001
   22MOL   H81221014   5.764   5.103   4.892 -0.0779  0.6353 -0.1429
   22MOL   H81321015   5.764   5.246   4.796  0.5787 -0.5080 -0.6646
   22MOL   H81421016   5.816   5.370   5.029  1.5296 -1.0350  2.3764
   22MOL   H81521017   5.802   5.205   5.090 -2.1112  0.8382  1.4007
   22MOL   H81621018   5.575   5.177   5.019  0.2814  0.0676 -1.0871
   22MOL   H81721019   5.565   5.347   4.962 -2.1507  0.0254  0.6420
   22MOL   O81821020   5.565   5.460   5.173  0.0192 -0.0142  0.1982
   22MOL   C81921021   5.527   5.523   5.291 -0.4240 -0.7498 -0.4828
   22MOL   C82021022   5.382   5.570   5.275 -1.1280  0.0171  0.2086
   22MOL   C82121023   5.326   5.612   5.409  0.0620 -0.7946  0.2359
   22MOL   C82221024   5.373   5.750   5.458  0.2639  0.3267 -1.1227
   22MOL   C82321025   5.303   5.782   5.596  0.3604  0.5782  0.8271
   22MOL   C82421026   5.331   5.925   5.643  0.3854 -0.5120 -0.4474
   22MOL   C82521027   5.318   5.959   5.794  0.1054  0.0104 -0.0350
   22MOL   C82621028   5.351   6.107   5.824  0.5100 -0.3517  0.6686
   22MOL   C82721029   5.333   6.131   5.976 -0.6862 -0.7181 -0.3753
   22MOL   C82821030   5.412   6.246   6.043 -0.3841  0.2234  0.0606
   22MOL   O82921031   5.392   6.370   5.978  0.2358 -0.9289 -0.2165
   22MOL   C83021032   5.439   6.483   6.025  0.4362 -0.1695 -0.3901
   22MOL   O83121033   5.496   6.489   6.132 -0.2016 -0.1866  0.2550
   22MOL   C83221034   5.424   6.610   5.936  0.4369 -0.3262  0.2683
   22MOL   C83321035   5.521   6.721   5.980  0.3535  0.2895  0.6823
   22MOL   C83421036   5.496   6.842   5.882 -0.1734  0.3235 -0.4357
   22MOL   C83521037   5.593   6.951   5.921  0.0467 -0.5355 -0.2376
   22MOL   C83621038   5.571   7.082   5.857 -0.0426 -0.2921  0.2491
   22MOL   O83721039   5.568   7.184   5.924 -0.0286  0.4135 -0.7330
   22MOL   H83821040   5.534   5.458   5.379 -0.2344 -0.3830 -0.2265
   22MOL   H83921041   5.584   5.615   5.301  0.2374 -1.2850  0.7342
   22MOL   H84021042   5.316   5.488   5.243 -0.4713 -0.0075 -1.1213
   22MOL   H84121043   5.374   5.646   5.198  0.2277  0.4782  0.5106
   22MOL   H84221044   5.219   5.623   5.397  0.2007 -1.3292 -1.6685
   22MOL   H84321045   5.349   5.530   5.478  1.7685  1.7966  2.8545
   22MOL   H84421046   5.345   5.827   5.386  1.7635  1.1162 -0.8905
   22MOL   H84521047   5.481   5.760   5.462  0.2415  0.5584 -1.0963
   22MOL   H84621048   5.341   5.709   5.668  2.7001  0.1626 -0.8147
   22MOL   H84721049   5.195   5.765   5.591  0.6612 -0.8981 -1.2392
   22MOL   H84821050   5.258   5.988   5.594  1.8436  1.5577 -0.0138
   22MOL   H84921051   5.433   5.946   5.610  0.9948 -3.0882 -0.3440
   22MOL   H85021052   5.385   5.906   5.862  0.3360 -0.6663 -0.7860
   22MOL   H85121053   5.222   5.935   5.840 -0.1710 -1.1088 -1.1553
   22MOL   H85221054   5.292   6.175   5.763 -1.3994 -2.6853 -0.1680
   22MOL   H85321055   5.457   6.114   5.799  0.8447 -2.6928  1.2836
   22MOL   H85421056   5.226   6.134   5.998 -0.3660  0.1572  1.0591
   22MOL   H85521057   5.365   6.041   6.027  1.5945 -1.3029 -2.7359
   22MOL   H85621058   5.518   6.226   6.031 -0.4942 -0.7690  0.7003
   22MOL   H85721059   5.375   6.240   6.146 -0.9248 -2.3183 -0.2456
   22MOL   H85821060   5.461   6.564   5.844 -1.6093  1.6765 -1.6148
   22MOL   H85921061   5.319   6.636   5.922  0.9539  2.0204  0.4904
   22MOL   H86021062   5.626   6.695   5.975  0.5841  1.0275  1.5475
   22MOL   H86121063   5.496   6.749   6.083 -4.0578  2.4520 -0.8324
   22MOL   H86221064   5.394   6.875   5.901 -0.3109 -0.8040  0.8731
   22MOL   H86321065   5.514   6.800   5.783  0.0539  0.1877 -0.3366
   22MOL   H86421066   5.691   6.907   5.902  0.1599 -1.2917  2.0209
   22MOL   H86521067   5.584   6.969   6.028 -0.1019  1.6989 -0.5970
   22MOL   O86621068   5.571   7.077   5.720 -0.5924 -0.2862 -0.1729
   22MOL   C86721069   5.526   7.178   5.641 -0.1217 -0.5291 -0.6111
   22MOL   C86821070   5.400   7.142   5.565 -0.3061  0.5986 -0.1894
   22MOL   C86921071   5.414   7.008   5.489  0.2004 -0.1264 -0.2747
   22MOL   C87021072   5.522   7.013   5.380  0.3450  0.4511 -0.3111
   22MOL   C87121073   5.549   6.877   5.324 -0.4610  0.5470  0.6896
   22MOL   C87221074   5.473   6.842   5.199  0.0265  0.0661  0.7707
   22MOL   C87321075   5.486   6.693   5.154 -0.1868  0.7087 -0.3003
   22MOL   C87421076   5.406   6.667   5.024 -0.7192  0.3539  0.5299
   22MOL   C87521077   5.383   6.512   4.997  0.1600  0.2186 -0.1510
   22MOL   C87621078   5.316   6.500   4.866 -0.1063 -0.2564  0.2537
   22MOL   O87721079   5.327   6.364   4.831  0.5915 -0.5897  0.2906
   22MOL   C87821080   5.282   6.325   4.709  0.0317 -0.0211 -0.5546
   22MOL   O87921081   5.222   6.398   4.627  0.1914 -0.0300  0.4962
   22MOL   C88021082   5.300   6.178   4.694 -0.0263 -0.0637 -0.1740
   22MOL   C88121083   5.188   6.086   4.750  0.1827 -0.2575 -0.1122
   22MOL   C88221084   5.064   6.073   4.655  0.0676  0.4774 -0.2072
   22MOL   C88321085   5.101   5.993   4.525 -0.4149  0.4295  0.0318
   22MOL   C88421086   5.175   5.858   4.547 -0.2162  0.4387 -0.4967
   22MOL   O88521087   5.299   5.851   4.551 -0.1330  0.0231 -0.1827
   22MOL   H88621088   5.508   7.269   5.699 -0.1623  0.0523 -1.5090
   22MOL   H88721089   5.603   7.213   5.572  1.0500 -0.8907  0.4971
   22MOL   H88821090   5.371   7.217   5.491  1.2945  2.2497  0.8147
   22MOL   H88921091   5.315   7.139   5.634  0.2427  2.8361  0.6417
   22MOL   H89021092   5.431   6.928   5.562  1.2793  0.6646  0.3535
   22MOL   H89121093   5.319   6.994   5.436  1.0260 -1.6929 -1.4059
   22MOL   H89221094   5.613   7.054   5.423  2.3380 -4.6088  0.6060
   22MOL   H89321095   5.493   7.085   5.304 -0.7909  0.2787 -0.0514
   22MOL   H89421096   5.537   6.794   5.392 -0.6935 -0.0323 -0.0554
   22MOL   H89521097   5.656   6.883   5.303 -0.2664 -1.4755  1.0715
   22MOL   H89621098   5.505   6.890   5.106 -2.8499 -0.7999 -0.7135
   22MOL   H89721099   5.371   6.859   5.232 -0.2530 -0.5072  0.2203
   22MOL   H89821100   5.437   6.635   5.232 -0.5757 -0.3612 -1.3310
   22MOL   H89921101   5.593   6.674   5.145  0.0709  2.5852 -1.2225
   22MOL   H90021102   5.442   6.718   4.935 -0.8254  0.1925  0.3942
   22MOL   H90121103   5.304   6.704   5.031 -1.3684 -1.0556 -1.0430
   22MOL   H90221104   5.481   6.465   4.995  1.5783  2.9723  1.5303
   22MOL   H90321105   5.320   6.469   5.076  1.0371  0.1883  0.5400
   22MOL   H90421106   5.361   6.565   4.791  0.1615 -0.2643  0.4063
   22MOL   H90521107   5.215   6.540   4.864  0.3959  1.0034 -0.6539
   22MOL   H90621108   5.305   6.161   4.586  0.0804  0.0838 -0.1928
   22MOL   H90721109   5.401   6.156   4.727  0.2258  0.3742 -0.6314
   22MOL   H90821110   5.161   6.141   4.840 -0.3124 -0.6306 -0.0323
   22MOL   H90921111   5.223   5.992   4.791 -0.9423 -0.6680 -0.0882
   22MOL   H91021112   5.028   6.170   4.620  0.6793  0.4924 -0.8024
   22MOL   H91121113   4.982   6.025   4.709 -0.6928  0.2627 -1.5328
   22MOL   H91221114   5.169   6.063   4.476 -0.9780  0.9500 -0.0022
   22MOL   H91321115   5.024   5.973   4.451  0.3055 -0.1925 -0.5669
   22MOL   O91421116   5.091   5.753   4.590 -0.2636  0.3765  0.4522
   22MOL   C91521117   5.136   5.620   4.589  0.2221  0.2258  0.0566
   22MOL   C91621118   5.025   5.522   4.554  0.1073 -0.3760  0.1157
   22MOL   C91721119   4.913   5.520   4.663 -0.5910  0.2704 -0.8125
   22MOL   C91821120   4.811   5.406   4.648  0.3244  0.0869  0.5134
   22MOL   C91921121   4.713   5.390   4.764  0.3862  0.8948  0.4366
   22MOL   C92021122   4.601   5.293   4.733  0.0686 -0.4556 -0.1856
   22MOL   C92121123   4.646   5.146   4.727  0.7671  0.3346  0.5608
   22MOL   C92221124   4.533   5.047   4.707  0.0753 -0.0098  0.3659
   22MOL   C92321125   4.559   4.898   4.688  0.4658 -0.3361 -0.3012
   22MOL   C92421126   4.602   4.842   4.822  0.1824  0.7347 -0.0014
   22MOL   O92521127   4.611   4.703   4.799  0.7363  0.4057  0.1620
   22MOL   C92621128   4.671   4.623   4.894  0.2166 -0.0096 -0.3488
   22MOL   O92721129   4.705   4.667   5.003  0.2655 -0.5227  0.6355
   22MOL   C92821130   4.684   4.477   4.852 -0.1211  0.1578  0.2617
   22MOL   C92921131   4.746   4.460   4.710 -0.2737  0.4727 -0.8269
   22MOL   C93021132   4.900   4.447   4.715 -0.1034  0.2712 -0.2221
   22MOL   C93121133   4.983   4.419   4.586  0.8774  0.8298 -0.0334
   22MOL   C93221134   5.002   4.543   4.501  0.6682 -0.0352 -0.1193
   22MOL   O93321135   4.955   4.539   4.389 -0.1106 -0.0388 -0.0262
   22MOL   H93421136   5.208   5.613   4.507  0.2217  0.1979  0.0587
   22MOL   H93521137   5.179   5.611   4.689 -0.1087 -0.9007  0.1084
   22MOL   H93621138   5.069   5.425   4.531 -0.7771 -0.3291 -1.8616
   22MOL   H93721139   4.989   5.560   4.458 -1.1851 -0.3805  0.5856
   22MOL   H93821140   4.981   5.494   4.745  0.5381  1.1175 -1.4759
   22MOL   H93921141   4.861   5.615   4.667 -1.0724  0.0306 -1.4264
   22MOL   H94021142   4.861   5.311   4.632  0.7626  0.4073  0.0123
   22MOL   H94121143   4.754   5.412   4.555 -1.7705  2.8170  1.8914
   22MOL   H94221144   4.678   5.492   4.781  0.0484  0.9558 -0.6051
   22MOL   H94321145   4.754   5.360   4.860 -1.7370  1.2035  1.4732
   22MOL   H94421146   4.542   5.322   4.646  3.6046  0.2569 -2.4599
   22MOL   H94521147   4.530   5.306   4.815 -2.2997 -0.8300 -2.1070
   22MOL   H94621148   4.708   5.115   4.811  0.6749  0.3944  0.6525
   22MOL   H94721149   4.704   5.132   4.636 -0.4746 -0.3011 -0.1453
   22MOL   H94821150   4.482   5.083   4.618  2.5116  2.7998  0.0169
   22MOL   H94921151   4.457   5.061   4.784 -1.2078  0.2760 -0.9271
   22MOL   H95021152   4.466   4.849   4.660  0.7852 -0.5629 -0.9571
   22MOL   H95121153   4.636   4.886   4.612 -0.4189 -1.1614 -1.0747
   22MOL   H95221154   4.516   4.847   4.889 -0.5036 -0.3357 -0.7853
   22MOL   H95321155   4.699   4.887   4.846  0.2108  0.4921  0.3420
   22MOL   H95421156   4.737   4.424   4.930  2.4982  2.8559  0.4277
   22MOL   H95521157   4.588   4.426   4.844  0.8231 -1.6029 -0.1385
   22MOL   H95621158   4.715   4.532   4.635 -0.1639  1.3940 -0.0032
   22MOL   H95721159   4.706   4.367   4.669 -0.3074  0.2089 -0.2153
   22MOL   H95821160   4.928   4.371   4.788 -1.0881  0.3536  0.2590
   22MOL   H95921161   4.950   4.523   4.774  0.3081  0.3872 -0.7137
   22MOL   H96021162   4.931   4.339   4.533  0.7791  2.1280 -1.9842
   22MOL   H96121163   5.080   4.378   4.612  1.3676  1.5195 -0.7633
   22MOL   H96221164   5.065   4.627   4.531  1.4602 -0.6819  0.0296
   23MOL     O121165   7.687   3.147   5.270 -0.5783  0.2774 -0.4325
   23MOL     C221166   7.687   3.004   5.306 -0.3527  0.1887  0.2818
   23MOL     C321167   0.056   2.934   5.274 -0.2985  0.3304 -0.1929
   23MOL     C421168   0.069   2.790   5.322  0.4415  0.0649  0.0129
   23MOL     C521169   0.216   2.746   5.309  0.2637 -0.6944 -0.2524
   23MOL     C621170   0.330   2.805   5.406 -0.3062  0.0523  0.4489
   23MOL     C721171   0.470   2.748   5.395 -0.3902  0.2085 -0.3456
   23MOL     C821172   0.583   2.822   5.468 -0.3677 -0.2304  0.3041
   23MOL     C921173   0.725   2.778   5.419 -0.8226  0.2321  0.2101
   23MOL    C1021174   0.847   2.834   5.509  0.4248 -0.8215  0.2324
   23MOL    C1121175   0.986   2.819   5.433 -0.0602 -0.5155 -0.0622
   23MOL    O1221176   1.046   2.694   5.429  0.1752 -0.0899  0.0282
   23MOL    C1321177   1.010   2.596   5.340  0.2066 -0.9615 -0.1199
   23MOL    O1421178   0.924   2.613   5.249 -0.3990 -0.1220  0.1370
   23MOL    C1521179   1.091   2.466   5.351 -0.9806 -0.3067 -0.0380
   23MOL    C1621180   1.022   2.349   5.289  0.0387 -0.0540 -0.2078
   23MOL    C1721181   0.911   2.305   5.381  0.5131  0.5308  0.0451
   23MOL    C1821182   0.832   2.184   5.315  0.2541 -0.4842  0.2072
   23MOL    C1921183   0.692   2.147   5.372  0.2315  0.0674  0.1530
   23MOL    O2021184   0.646   2.031   5.359 -0.5701 -0.2308  0.7127
   23MOL    H2121185   7.658   2.992   5.410 -2.4028  0.9277 -0.1912
   23MOL    H2221186   7.621   2.943   5.245 -0.5685  1.1260 -0.4360
   23MOL    H2321187   0.140   3.000   5.296  0.5991 -0.8377 -0.0907
   23MOL    H2421188   0.058   2.921   5.166  0.0184 -1.3227  0.0047
   23MOL    H2521189   0.052   2.788   5.430  1.2277  1.2546  0.1718
   23MOL    H2621190   7.760   2.726   5.273 -0.6960  0.3786  1.2985
   23MOL    H2721191   0.242   2.728   5.205  1.4906 -2.6709  0.3714
   23MOL    H2821192   0.213   2.645   5.351  2.3738 -0.0303  1.5968
   23MOL    H2921193   0.292   2.793   5.508 -0.3011 -2.7677  0.1457
   23MOL    H3021194   0.335   2.914   5.398  1.6297 -0.2470 -3.7283
   23MOL    H3121195   0.494   2.750   5.289 -1.0257  1.2359 -0.4748
   23MOL    H3221196   0.465   2.643   5.423 -0.5081  0.7036  1.5780
   23MOL    H3321197   0.586   2.789   5.571  1.7504  1.0483  0.6797
   23MOL    H3421198   0.570   2.929   5.454  0.4488 -0.1953 -0.2565
   23MOL    H3521199   0.749   2.818   5.320 -0.3356 -0.7079 -0.0553
   23MOL    H3621200   0.723   2.671   5.398 -2.6021  0.4026 -0.6414
   23MOL    H3721201   0.829   2.941   5.511  0.2538 -0.8659  1.2333
   23MOL    H3821202   0.841   2.779   5.603  0.4105 -0.8459  0.2175
   23MOL    H3921203   1.055   2.898   5.465 -0.7457 -0.5504  1.5389
   23MOL    H4021204   0.979   2.855   5.330  3.3490 -0.4794 -0.3392
   23MOL    H4121205   1.189   2.479   5.305 -1.7066 -0.2179 -1.6072
   23MOL    H4221206   1.111   2.458   5.458 -0.1154 -0.3166 -0.1954
   23MOL    H4321207   1.085   2.260   5.290  0.3289  0.1484  0.9400
   23MOL    H4421208   0.986   2.369   5.188 -0.7492  0.7377  0.2206
   23MOL    H4521209   0.847   2.386   5.416  1.9310  2.1126 -0.9842
   23MOL    H4621210   0.951   2.259   5.471 -0.4263 -1.7140 -0.6396
   23MOL    H4721211   0.898   2.097   5.326  2.7780  1.5664  1.8194
   23MOL    H4821212   0.817   2.203   5.208 -1.6459  3.6346  1.1210
   23MOL    H4921213   7.727   3.163   5.186 -0.3224  0.5571 -0.2584
   23MOL    O5021214   0.620   2.248   5.426  0.1067  0.5930 -0.3417
   23MOL    C5121215   0.481   2.215   5.475 -0.9875  0.4330 -0.1703
   23MOL    C5221216   0.428   2.325   5.569 -0.3926 -0.0049 -0.2468
   23MOL    C5321217   0.277   2.331   5.588 -0.3814  0.9002  0.0474
   23MOL    C5421218   0.241   2.454   5.674  0.7696 -0.6010 -0.1547
   23MOL    C5521219   0.091   2.448   5.718 -0.3021  0.2694  0.4007
   23MOL    C5621220   0.040   2.591   5.756  0.1406  0.7479 -0.4253
   23MOL    C5721221   7.656   2.626   5.721 -0.3990 -0.1251 -0.6388
   23MOL    C5821222   7.618   2.771   5.762 -0.0373 -0.9457  0.4049
   23MOL    C5921223   7.576   2.784   5.905  0.6143 -0.1461 -0.3279
   23MOL    C6021224   7.542   2.926   5.946  0.1191 -0.7571  0.6070
   23MOL    O6121225   7.429   2.973   5.882  1.3144  0.2499  0.3304
   23MOL    C6221226   7.435   3.070   5.797  1.0213 -0.0855  0.5126
   23MOL    O6321227   7.534   3.122   5.744 -0.0106 -0.2093 -0.0754
   23MOL    C6421228   7.292   3.107   5.751 -0.1987 -0.1262 -0.5168
   23MOL    C6521229   7.236   3.009   5.644  0.5104 -0.0990 -0.1299
   23MOL    C6621230   7.320   2.994   5.514  0.0758 -0.0185  0.0601
   23MOL    C6721231   7.319   3.113   5.423 -0.3709 -0.4877 -0.1233
   23MOL    C6821232   7.181   3.157   5.377 -0.4727 -0.1047  0.8091
   23MOL    O6921233   7.139   3.274   5.397  0.1237  0.4285  0.2521
   23MOL    H7021234   0.419   2.203   5.386  0.2235  2.5309 -1.3138
   23MOL    H7121235   0.472   2.116   5.520 -3.0178  0.7005  0.0837
   23MOL    H7221236   0.466   2.415   5.521  1.3485 -1.3159 -1.4034
   23MOL    H7321237   0.480   2.322   5.665  0.6644  0.3195 -0.7963
   23MOL    H7421238   0.229   2.335   5.491  0.8484 -0.6382 -0.6551
   23MOL    H7521239   0.247   2.236   5.631  2.8737 -2.0896 -3.8802
   23MOL    H7621240   0.264   2.542   5.615  0.5098 -0.4196  0.0136
   23MOL    H7721241   0.302   2.475   5.763  0.4704 -0.7954  0.0964
   23MOL    H7821242   0.070   2.370   5.791 -0.6327 -0.8471 -0.8674
   23MOL    H7921243   0.041   2.425   5.624 -0.3705  3.1039 -0.3043
   23MOL    H8021244   0.098   2.670   5.709  0.6874  0.1736 -0.7180
   23MOL    H8121245   0.059   2.612   5.861 -0.0696  0.1306 -0.2633
   23MOL    H8221246   7.584   2.556   5.762  0.6902 -0.8815 -0.0017
   23MOL    H8321247   7.645   2.620   5.612 -0.0561 -2.5916 -0.5649
   23MOL    H8421248   7.525   2.790   5.709  0.2148 -0.0458  0.2679
   23MOL    H8521249   7.699   2.839   5.735 -0.8674  0.0584  0.3782
   23MOL    H8621250   7.493   2.715   5.917  1.1253 -0.3637  2.0621
   23MOL    H8721251   7.659   2.745   5.962 -0.7106 -0.9895  1.0514
   23MOL    H8821252   7.628   2.992   5.933 -1.8001  1.9388  1.1045
   23MOL    H8921253   7.519   2.934   6.052 -0.4814  0.7802  0.3771
   23MOL    H9021254   7.221   3.116   5.833  1.7727  2.1255  1.0080
   23MOL    H9121255   7.309   3.200   5.697  1.1255 -1.3010 -2.1736
   23MOL    H9221256   7.132   3.031   5.622  0.0825 -0.2577  1.6337
   23MOL    H9321257   7.241   2.915   5.699 -0.7384 -0.0432  0.1017
   23MOL    H9421258   7.288   2.903   5.465 -0.8352  0.1091  0.4008
   23MOL    H9521259   7.421   2.976   5.550  0.9887  2.0116 -1.3309
   23MOL    H9621260   7.372   3.082   5.333 -0.0019 -2.3520  0.7113
   23MOL    H9721261   7.371   3.200   5.465  0.6597 -0.5138 -1.3012
   23MOL    O9821262   7.127   3.056   5.312 -0.0555  0.2054 -0.3725
   23MOL    C9921263   6.999   3.078   5.256 -0.3400  0.2875 -0.2987
   23MOL   C10021264   6.917   2.947   5.251  1.1632 -0.3241  0.0448
   23MOL   C10121265   6.978   2.836   5.164 -0.3207  0.1528 -0.2936
   23MOL   C10221266   6.881   2.727   5.118 -0.2086 -0.0298 -0.1773
   23MOL   C10321267   6.812   2.651   5.232  0.0611 -0.8587  0.5710
   23MOL   C10421268   6.757   2.515   5.179 -0.3568 -0.0771  0.3273
   23MOL   C10521269   6.680   2.430   5.273  0.0870  0.4055 -0.5296
   23MOL   C10621270   6.532   2.470   5.308  0.7238 -0.3291  0.0730
   23MOL   C10721271   6.432   2.458   5.189 -0.0026 -0.3941  0.2722
   23MOL   C10821272   6.303   2.528   5.221  0.2313 -0.0931  0.4962
   23MOL   O10921273   6.326   2.661   5.247  0.0600 -0.0740 -0.4457
   23MOL   C11021274   6.220   2.731   5.292 -0.6676 -0.9866  0.0671
   23MOL   O11121275   6.111   2.687   5.323  0.4001  0.1147 -0.0544
   23MOL   C11221276   6.255   2.878   5.321 -0.1383  0.0497 -0.4247
   23MOL   C11321277   6.173   2.993   5.260  0.8393 -0.4420  0.5805
   23MOL   C11421278   6.176   3.005   5.105  0.4801 -0.0124 -0.8579
   23MOL   C11521279   6.097   3.120   5.047  0.3615 -0.5257  0.1161
   23MOL   C11621280   6.161   3.260   5.039 -0.3895 -0.0921  0.2305
   23MOL   O11721281   6.101   3.366   5.011  0.1177  0.6696  0.0944
   23MOL   H11821282   6.950   3.157   5.313 -0.0762  0.3111 -0.1059
   23MOL   H11921283   7.013   3.128   5.160  1.3120 -1.5484 -1.0486
   23MOL   H12021284   6.816   2.977   5.222  0.7193 -0.3334  1.5720
   23MOL   H12121285   6.888   2.920   5.352 -2.5911 -0.0918 -0.8855
   23MOL   H12221286   7.028   2.877   5.077  0.3155 -2.0716 -1.0094
   23MOL   H12321287   7.059   2.789   5.219 -0.3505 -1.8571 -1.9059
   23MOL   H12421288   6.929   2.661   5.045  0.0939 -1.0172  0.8971
   23MOL   H12521289   6.800   2.770   5.060 -1.2128 -1.2065  0.3275
   23MOL   H12621290   6.735   2.713   5.276  0.3679 -0.0554 -0.0194
   23MOL   H12721291   6.881   2.626   5.313 -0.1773  0.4591  1.1804
   23MOL   H12821292   6.843   2.463   5.137 -0.5204 -1.3748  1.5823
   23MOL   H12921293   6.701   2.541   5.089  0.2475  3.1872  0.8168
   23MOL   H13021294   6.725   2.414   5.371  1.6832 -1.0660 -1.4649
   23MOL   H13121295   6.693   2.332   5.227 -0.7179 -0.8083  1.7311
   23MOL   H13221296   6.548   2.570   5.349  0.1937 -0.2852  0.1697
   23MOL   H13321297   6.502   2.413   5.396 -0.5871  0.2501  0.0109
   23MOL   H13421298   6.471   2.486   5.092  0.9604  0.9046  1.0123
   23MOL   H13521299   6.416   2.351   5.179  0.2500 -0.2886 -1.3667
   23MOL   H13621300   6.259   2.480   5.308  1.3085 -0.1400  1.0155
   23MOL   H13721301   6.227   2.517   5.143  1.0704 -0.2255 -0.3066
   23MOL   H13821302   6.247   2.902   5.427 -1.5071  0.3796 -0.5871
   23MOL   H13921303   6.362   2.894   5.306 -0.2608 -0.2488 -1.7293
   23MOL   H14021304   6.203   3.092   5.294  0.6526  0.0142 -0.5788
   23MOL   H14121305   6.072   2.976   5.296  0.3369 -0.7575 -0.9427
   23MOL   H14221306   6.135   2.915   5.059 -0.1534  0.4088 -1.1335
   23MOL   H14321307   6.281   3.011   5.077  0.0028 -0.5335 -2.8105
   23MOL   H14421308   6.017   3.126   5.121 -0.6429  1.6176 -1.0941
   23MOL   H14521309   6.068   3.099   4.945  1.0571 -0.5886 -0.0695
   23MOL   O14621310   6.294   3.249   5.055 -0.1433  0.0152  0.0364
   23MOL   C14721311   6.372   3.365   5.051 -0.2488  0.5412 -0.1196
   23MOL   C14821312   6.415   3.405   5.200  0.6982 -0.1492 -0.0503
   23MOL   C14921313   6.490   3.292   5.261  0.2641 -0.1640  0.1882
   23MOL   C15021314   6.527   3.308   5.408 -0.3004 -0.8607 -0.4051
   23MOL   C15121315   6.660   3.238   5.440  0.0812 -0.0840  0.0152
   23MOL   C15221316   6.701   3.265   5.580  0.4145  0.4819  0.2890
   23MOL   C15321317   6.828   3.184   5.604  0.5587 -1.0112 -0.4657
   23MOL   C15421318   6.868   3.189   5.755 -0.1338  1.2180  0.7970
   23MOL   C15521319   6.980   3.285   5.797  0.2595 -0.3612  0.9129
   23MOL   C15621320   7.017   3.268   5.942 -0.4320 -0.4813  0.0130
   23MOL   O15721321   7.136   3.340   5.963  0.2096  0.2947 -0.5303
   23MOL   C15821322   7.132   3.468   5.994  0.2396  0.0544  0.0050
   23MOL   O15921323   7.027   3.535   6.017  0.3486 -0.0215 -0.1113
   23MOL   C16021324   7.274   3.522   6.030 -0.4266  0.4042 -0.1645
   23MOL   C16121325   7.358   3.563   5.907 -0.1212 -0.0942  1.0810
   23MOL   C16221326   7.484   3.647   5.956 -0.3332 -0.2687 -0.6806
   23MOL   C16321327   7.570   3.696   5.839 -0.1603  0.4983  0.0935
   23MOL   C16421328   7.642   3.584   5.758 -0.1447  0.2091  0.3637
   23MOL   O16521329   0.000   3.577   5.760 -0.2636  0.0111  0.2614
   23MOL   H16621330   6.471   3.357   5.007 -0.3793  3.0691 -0.9205
   23MOL   H16721331   6.323   3.440   4.990  1.1318  0.7755 -0.9512
   23MOL   H16821332   6.333   3.442   5.262 -0.9493 -1.6785 -1.2267
   23MOL   H16921333   6.483   3.489   5.192  0.8072 -0.3541 -1.4660
   23MOL   H17021334   6.431   3.201   5.251 -0.1107 -0.0365  1.1142
   23MOL   H17121335   6.574   3.257   5.200  1.1211 -1.7119  2.1926
   23MOL   H17221336   6.443   3.282   5.473 -0.6833  0.8919 -0.1610
   23MOL   H17321337   6.549   3.412   5.432  0.2242 -1.4596  1.7991
   23MOL   H17421338   6.738   3.259   5.367  1.4969 -1.1381  1.1937
   23MOL   H17521339   6.636   3.132   5.443  1.6048 -0.4234  1.1125
   23MOL   H17621340   6.619   3.224   5.639 -0.4662 -0.7296 -1.7249
   23MOL   H17721341   6.710   3.371   5.602  2.1547  0.1272  1.4148
   23MOL   H17821342   6.904   3.222   5.536 -0.2704  0.0907 -0.7852
   23MOL   H17921343   6.815   3.079   5.577  1.6954 -1.0074 -1.0507
   23MOL   H18021344   6.889   3.092   5.801  0.2403  0.4316 -1.0070
   23MOL   H18121345   6.777   3.224   5.803  0.0026  1.5907  0.7869
   23MOL   H18221346   7.064   3.241   5.742 -1.1203 -0.8283 -0.8701
   23MOL   H18321347   6.954   3.384   5.759  0.4482 -0.7603 -0.2837
   23MOL   H18421348   7.046   3.165   5.960  0.2734 -0.1861  0.5780
   23MOL   H18521349   6.936   3.304   6.007  0.9381 -0.1149  1.5595
   23MOL   H18621350   7.247   3.613   6.083 -0.4766  1.0555 -1.2848
   23MOL   H18721351   7.327   3.455   6.097  1.6394  1.8505 -0.3062
   23MOL   H18821352   7.301   3.627   5.840  2.0594 -1.1717 -1.9409
   23MOL   H18921353   7.363   3.475   5.843 -3.9096 -0.0420  0.5960
   23MOL   H19021354   7.539   3.596   6.035 -1.1274  1.1435  0.7857
   23MOL   H19121355   7.455   3.743   5.996  0.9833  0.4180 -1.3446
   23MOL   H19221356   7.652   3.756   5.879 -0.6002  1.8535 -0.9740
   23MOL   H19321357   7.510   3.747   5.763 -0.6660 -0.1310  0.0687
   23MOL   O19421358   7.558   3.500   5.688 -0.0785  0.1555 -0.1047
   23MOL   C19521359   7.609   3.400   5.598 -0.7715 -0.7685 -0.4331
   23MOL   C19621360   7.675   3.456   5.468  0.5610  0.8108 -0.1016
   23MOL   C19721361   7.588   3.491   5.356  0.0199 -0.4800  0.3760
   23MOL   C19821362   7.647   3.571   5.240  0.1106 -0.0653 -0.1645
   23MOL   C19921363   7.539   3.617   5.139 -0.3192  0.1297  0.2968
   23MOL   C20021364   7.608   3.720   5.050  0.4134  0.2961  0.4275
   23MOL   C20121365   7.517   3.765   4.923 -0.5189 -0.2366 -0.6581
   23MOL   C20221366   7.606   3.836   4.812 -0.5686 -0.4464  0.4267
   23MOL   C20321367   7.524   3.898   4.700 -0.2230 -0.1960  0.0186
   23MOL   C20421368   7.419   3.999   4.744  0.2749  0.5029 -0.1011
   23MOL   O20521369   7.489   4.108   4.808  0.3156 -0.4045 -0.3244
   23MOL   C20621370   7.423   4.195   4.894 -0.8161  0.2297  0.8753
   23MOL   O20721371   7.307   4.198   4.927  0.1837  0.0867 -0.2194
   23MOL   C20821372   7.518   4.298   4.959 -0.0068 -0.5598 -0.0963
   23MOL   C20921373   7.443   4.397   5.050  0.2781 -0.1679  0.2958
   23MOL   C21021374   7.528   4.509   5.119  1.4128 -0.1479 -0.4118
   23MOL   C21121375   7.436   4.606   5.199 -0.2685 -0.4936 -0.1084
   23MOL   C21221376   7.340   4.699   5.122 -0.1753  0.0764 -0.3897
   23MOL   O21321377   7.239   4.738   5.184  0.1989  0.1735  0.2961
   23MOL   H21421378   7.686   3.346   5.652 -1.4405 -0.2843  1.0469
   23MOL   H21521379   7.525   3.338   5.566 -0.3224 -2.9734  2.4143
   23MOL   H21621380   7.734   3.373   5.429  0.1443  0.4367  0.0581
   23MOL   H21721381   7.737   3.543   5.493  0.3585  0.7299  0.6778
   23MOL   H21821382   7.552   3.395   5.318  0.9079 -0.3358 -0.8522
   23MOL   H21921383   7.498   3.540   5.393 -0.1184  0.5228 -1.1927
   23MOL   H22021384   7.732   3.517   5.199  1.2188  1.8747 -0.5041
   23MOL   H22121385   7.687   3.666   5.278 -0.2830 -0.7259  1.9597
   23MOL   H22221386   7.455   3.667   5.187 -0.6058 -0.8891  0.8719
   23MOL   H22321387   7.514   3.531   5.077  1.7879  0.1339 -0.5976
   23MOL   H22421388   7.700   3.676   5.014  1.0594 -0.0812  2.4660
   23MOL   H22521389   7.636   3.805   5.113  0.6629  1.3221 -1.0437
   23MOL   H22621390   7.437   3.828   4.962  1.0473  1.9807 -0.9385
   23MOL   H22721391   7.467   3.681   4.875  0.5757 -0.6833 -1.0338
   23MOL   H22821392   7.683   3.768   4.775  0.5840  1.2621 -0.4169
   23MOL   H22921393   7.666   3.918   4.851 -0.9284 -0.1966  0.4574
   23MOL   H23021394   7.588   3.951   4.629  0.2452 -0.9033 -0.0864
   23MOL   H23121395   7.461   3.829   4.644 -0.0085 -2.0012  1.9406
   23MOL   H23221396   7.356   3.954   4.821 -2.2776  1.6702 -1.4530
   23MOL   H23321397   7.350   4.029   4.666  1.8782  0.9370 -1.3617
   23MOL   H23421398   7.596   4.241   5.010 -1.1335 -0.5171  1.7219
   23MOL   H23521399   7.563   4.353   4.876 -1.4774  2.3473  0.9824
   23MOL   H23621400   7.375   4.355   5.125  0.7581 -1.5856 -0.0570
   23MOL   H23721401   7.372   4.452   4.988 -1.7926 -1.7273  1.1944
   23MOL   H23821402   7.581   4.561   5.039  1.8525 -0.6709 -0.4683
   23MOL   H23921403   7.598   4.461   5.187 -1.3416 -0.0438  2.5995
   23MOL   H24021404   7.503   4.672   5.255  0.3536  0.9474 -2.4548
   23MOL   H24121405   7.374   4.542   5.260 -0.4885 -0.9527 -0.8115
   23MOL   O24221406   7.374   4.729   5.000  0.2587 -0.2360 -0.3131
   23MOL   C24321407   7.289   4.819   4.922  0.5114  0.7247  0.8487
   23MOL   C24421408   7.341   4.838   4.780 -0.0653  0.9580  0.5990
   23MOL   C24521409   7.280   4.955   4.701  0.2524  0.2114  0.0927
   23MOL   C24621410   7.355   4.992   4.569  0.9432  0.1398 -0.8946
   23MOL   C24721411   7.307   5.119   4.506  0.6408  0.5014  0.2783
   23MOL   C24821412   7.355   5.129   4.358  0.1378 -0.0446 -0.6193
   23MOL   C24921413   7.325   5.276   4.297  0.3380 -0.2294 -0.3836
   23MOL   C25021414   7.423   5.388   4.347 -0.3789  0.4675  0.8258
   23MOL   C25121415   7.392   5.522   4.293 -0.5186  0.0846 -0.1729
   23MOL   C25221416   7.455   5.564   4.166 -0.2531  0.2089 -0.2030
   23MOL   O25321417   7.479   5.705   4.151 -0.3863 -0.5085 -0.0749
   23MOL   C25421418   7.498   5.763   4.023  0.1672 -1.0543 -0.4688
   23MOL   O25521419   7.484   5.704   3.918 -0.2160  0.1966 -1.0167
   23MOL   C25621420   7.526   5.911   4.040  0.1167  0.2018  1.4659
   23MOL   C25721421   7.649   5.951   4.131 -0.3684  0.5030 -0.2500
   23MOL   C25821422   0.021   5.888   4.098 -0.9597 -0.0276  0.1790
   23MOL   C25921423   0.137   5.936   4.193 -1.2585 -0.1384 -0.3387
   23MOL   C26021424   0.207   6.055   4.131  0.6628 -0.1146 -0.1946
   23MOL   O26121425   0.182   6.167   4.188  0.2376 -0.2822 -0.1230
   23MOL   H26221426   7.189   4.777   4.913 -0.1664  2.3462  0.5159
   23MOL   H26321427   7.271   4.911   4.978  0.5741  1.1938  0.1090
   23MOL   H26421428   7.338   4.749   4.717  0.6048  1.6502 -0.4212
   23MOL   H26521429   7.441   4.878   4.794  0.0369  0.4813  1.2634
   23MOL   H26621430   7.175   4.931   4.686  0.3400 -0.9896  1.3293
   23MOL   H26721431   7.280   5.045   4.762 -0.4399 -1.0324  1.9637
   23MOL   H26821432   7.346   4.900   4.513 -1.7384  1.2021 -2.2969
   23MOL   H26921433   7.457   5.019   4.594  1.3777  1.2507 -3.6735
   23MOL   H27021434   7.341   5.206   4.563  1.1469  2.4104 -2.8194
   23MOL   H27121435   7.199   5.136   4.504  0.7253  1.6423  3.0578
   23MOL   H27221436   7.294   5.066   4.293  2.0433 -0.5676 -1.9553
   23MOL   H27321437   7.457   5.099   4.336  0.6776  1.0867  0.3109
   23MOL   H27421438   7.227   5.310   4.329  0.8424  0.6915  0.1861
   23MOL   H27521439   7.310   5.284   4.190  0.0978  1.2798 -0.2428
   23MOL   H27621440   7.526   5.358   4.329 -0.0497  1.2983  1.2686
   23MOL   H27721441   7.427   5.387   4.455 -2.6195 -0.5740  0.9188
   23MOL   H27821442   7.286   5.538   4.278 -0.9196 -1.9046  0.4314
   23MOL   H27921443   7.414   5.602   4.364 -0.8949 -1.0070  1.1953
   23MOL   H28021444   7.399   5.529   4.079  0.6977  0.3769 -0.8939
   23MOL   H28121445   7.550   5.513   4.151  0.8903  1.8712  1.1450
   23MOL   H28221446   7.531   5.968   3.947  1.4241 -0.5225  1.0787
   23MOL   H28321447   7.436   5.959   4.075  0.8505  2.0355  0.9034
   23MOL   H28421448   7.619   5.930   4.234  1.4723 -0.5535  0.0977
   23MOL   H28521449   7.670   6.057   4.115 -1.5437  0.5403 -1.6023
   23MOL   H28621450   0.032   5.918   3.994 -0.7410  0.5541  0.3732
   23MOL   H28721451   0.003   5.781   4.107  1.0965 -0.5002 -1.0290
   23MOL   H28821452   0.207   5.854   4.208 -0.9793 -0.1380 -1.6034
   23MOL   H28921453   0.100   5.955   4.294  2.1582 -0.6487  1.0567
   23MOL   O29021454   0.289   6.018   4.028  0.0701  0.0268 -0.1446
   23MOL   C29121455   0.371   6.118   3.962  0.2087  0.2841  0.2458
   23MOL   C29221456   0.347   6.131   3.810 -0.4089 -0.1934 -0.5603
   23MOL   C29321457   0.428   6.247   3.748  0.2226  0.0074  0.2148
   23MOL   C29421458   0.405   6.260   3.600 -0.0665  0.1628 -0.6384
   23MOL   C29521459   0.284   6.336   3.563  0.2197 -0.1186  0.2260
   23MOL   C29621460   0.280   6.369   3.407 -0.3327 -0.1386 -0.6483
   23MOL   C29721461   0.157   6.457   3.380  0.0355  0.1458 -0.0464
   23MOL   C29821462   0.134   6.470   3.232  0.0914 -0.5562 -0.3469
   23MOL   C29921463   7.758   6.526   3.196 -0.3251 -0.4406 -0.3190
   23MOL   C30021464   7.764   6.558   3.048  0.0270 -0.1126  0.2432
   23MOL   O30121465   7.638   6.555   2.985 -0.5949  0.1578  0.1562
   23MOL   C30221466   7.623   6.609   2.861 -0.6885 -0.4486 -0.1107
   23MOL   O30321467   7.711   6.662   2.788  1.3109 -0.1657 -0.1095
   23MOL   C30421468   7.481   6.591   2.810  0.2276 -0.9211 -0.1674
   23MOL   C30521469   7.439   6.682   2.698 -0.2507 -0.5550 -0.4793
   23MOL   C30621470   7.395   6.817   2.743  0.0120  0.3097 -0.4058
   23MOL   C30721471   7.252   6.831   2.801 -0.4853 -0.4171 -0.6975
   23MOL   C30821472   7.145   6.777   2.708  0.3773 -0.6943 -0.4390
   23MOL   O30921473   7.119   6.659   2.700 -0.0227 -0.4566  0.1082
   23MOL   H31021474   0.361   6.221   3.996 -0.6490  1.1546 -2.5130
   23MOL   H31121475   0.474   6.088   3.978  0.7590  1.0632 -1.6413
   23MOL   H31221476   0.240   6.144   3.790 -0.7794 -3.6035 -1.1381
   23MOL   H31321477   0.385   6.036   3.773 -0.4711 -0.3450 -0.2430
   23MOL   H31421478   0.402   6.341   3.797  0.5684  0.7260 -0.9680
   23MOL   H31521479   0.531   6.216   3.767 -0.1420  0.7241  3.6732
   23MOL   H31621480   0.408   6.158   3.561  1.5672  0.2320 -0.7538
   23MOL   H31721481   0.495   6.313   3.567 -0.4578  0.8913 -0.5452
   23MOL   H31821482   0.282   6.428   3.621 -0.7614  0.7191 -1.0983
   23MOL   H31921483   0.195   6.286   3.599 -1.3015  2.8173  0.6728
   23MOL   H32021484   0.276   6.276   3.351 -0.5909 -0.7140  0.3192
   23MOL   H32121485   0.373   6.414   3.371  0.3670 -0.1916  1.0230
   23MOL   H32221486   0.176   6.562   3.404  2.1216 -0.4234  0.8574
   23MOL   H32321487   0.075   6.416   3.439  1.6156 -1.9011  0.8000
   23MOL   H32421488   0.156   6.371   3.191  2.2000 -0.3498  0.2090
   23MOL   H32521489   0.211   6.531   3.186 -1.1869  1.4382  0.1045
   23MOL   H32621490   7.690   6.444   3.218 -0.8710  0.1268  0.1348
   23MOL   H32721491   7.722   6.615   3.248  0.9975  0.9055 -1.6368
   23MOL   H32821492   0.067   6.480   3.015 -0.1393 -0.1158 -0.0979
   23MOL   H32921493   0.050   6.654   3.034 -0.9299  0.3282 -0.3027
   23MOL   H33021494   7.468   6.487   2.777  1.7077 -1.1106 -0.1929
   23MOL   H33121495   7.408   6.615   2.887 -1.1248  1.0044 -1.9666
   23MOL   H33221496   7.362   6.633   2.638 -2.1105  0.9385  0.6550
   23MOL   H33321497   7.527   6.690   2.634 -0.3185 -0.6310 -0.5815
   23MOL   H33421498   7.395   6.887   2.659 -1.0904  0.5740 -0.2014
   23MOL   H33521499   7.472   6.850   2.812 -0.4321 -1.5450  0.9968
   23MOL   H33621500   7.247   6.938   2.822 -0.8996 -0.5760  0.0364
   23MOL   H33721501   7.233   6.775   2.892  0.1782  2.8673  1.5766
   23MOL   O33821502   7.078   6.872   2.633  0.2895 -0.4354 -0.0555
   23MOL   C33921503   6.973   6.834   2.544 -0.3011  0.4605  0.3062
   23MOL   C34021504   6.862   6.937   2.568  0.0787  0.0562  0.4479
   23MOL   C34121505   6.800   6.915   2.704 -0.3155  0.0097 -0.1158
   23MOL   C34221506   6.670   7.000   2.719  0.0011 -0.0012  0.2711
   23MOL   C34321507   6.627   7.015   2.869  0.4144 -0.3867  0.4806
   23MOL   C34421508   6.489   7.072   2.882 -0.1054  0.3921 -0.2588
   23MOL   C34521509   6.465   7.141   3.023  0.6409  0.0913 -0.0557
   23MOL   C34621510   6.325   7.214   3.028 -0.0202  0.1676 -0.1305
   23MOL   C34721511   6.210   7.124   2.988  0.4314 -0.2828 -0.2908
   23MOL   C34821512   6.070   7.182   3.019  0.4653  0.1031 -1.0987
   23MOL   O34921513   6.041   7.267   2.914 -0.1450 -0.5509  0.3631
   23MOL   C35021514   5.969   7.372   2.931 -0.0753  0.4242  0.4700
   23MOL   O35121515   5.916   7.401   3.039  0.1289  0.4884  0.5672
   23MOL   C35221516   5.959   7.469   2.808 -0.4159  0.0381  0.0814
   23MOL   C35321517   5.879   7.403   2.690 -0.0835 -0.5727 -0.2575
   23MOL   C35421518   5.732   7.392   2.730 -0.4089  0.0611  0.8390
   23MOL   C35521519   5.641   7.340   2.622  0.8415 -0.0212 -0.2033
   23MOL   C35621520   5.503   7.400   2.623 -0.1470  0.3015 -0.5525
   23MOL   O35721521   5.423   7.388   2.714 -0.5387 -0.2211 -0.1330
   23MOL   H35821522   7.001   6.836   2.439 -1.3684  0.0168  0.0122
   23MOL   H35921523   6.922   6.739   2.561 -0.4939  0.6548  0.8251
   23MOL   H36021524   6.789   6.926   2.488  2.0076  1.8471 -1.6426
   23MOL   H36121525   6.904   7.037   2.553  2.3188 -1.3951 -3.7301
   23MOL   H36221526   6.783   6.810   2.725  1.0761 -0.0926  0.5778
   23MOL   H36321527   6.878   6.941   2.776 -0.1107  1.4748 -0.8449
   23MOL   H36421528   6.590   6.948   2.666  0.0823  0.6572 -0.5087
   23MOL   H36521529   6.673   7.093   2.663 -1.1218  0.2398  0.5776
   23MOL   H36621530   6.697   7.087   2.913  1.0917 -1.6144  1.4491
   23MOL   H36721531   6.618   6.914   2.908  0.3226  0.3164  2.3636
   23MOL   H36821532   6.413   6.993   2.873  1.8702 -1.3617 -2.1143
   23MOL   H36921533   6.469   7.137   2.797  0.2420  0.1943 -0.4931
   23MOL   H37021534   6.544   7.214   3.043  1.2759 -0.1919 -1.4757
   23MOL   H37121535   6.461   7.073   3.109 -0.3999  0.7153  0.3953
   23MOL   H37221536   6.333   7.300   2.962 -0.1227 -0.8146 -1.4457
   23MOL   H37321537   6.307   7.260   3.126  0.0611  0.3829 -0.2179
   23MOL   H37421538   6.221   7.104   2.882  3.6067  1.8885 -0.4451
   23MOL   H37521539   6.229   7.032   3.045  1.1834 -0.2553 -0.4900
   23MOL   H37621540   6.059   7.231   3.116 -0.2319 -1.0548 -0.5923
   23MOL   H37721541   5.995   7.105   3.006 -0.2704  0.4262  0.9617
   23MOL   H37821542   5.917   7.566   2.833 -0.4705 -0.1051  0.5691
   23MOL   H37921543   6.062   7.478   2.777 -0.1077  2.2140  1.6469
   23MOL   H38021544   5.931   7.314   2.654  0.5727 -0.0483 -0.6104
   23MOL   H38121545   5.877   7.473   2.606 -1.3526 -0.5196 -0.2034
   23MOL   H38221546   5.693   7.481   2.780 -0.3453 -1.3415  3.4889
   23MOL   H38321547   5.729   7.312   2.805 -0.3696  0.3750  1.1787
   23MOL   H38421548   5.618   7.234   2.635  0.4460 -0.2793 -2.7283
   23MOL   H38521549   5.684   7.350   2.522 -0.2516 -0.8590 -0.7811
   23MOL   O38621550   5.473   7.478   2.514  0.1237  0.1167 -0.1202
   23MOL   C38721551   5.344   7.538   2.498  0.0602 -0.2735  0.2322
   23MOL   C38821552   5.268   7.491   2.379 -0.1589  0.6381  0.2136
   23MOL   C38921553   5.336   7.525   2.252 -0.8258  0.0143  0.5895
   23MOL   C39021554   5.263   7.473   2.130  0.5556  0.2188  0.0814
   23MOL   C39121555   5.308   7.317   2.105  0.2723  1.0029  0.5732
   23MOL   C39221556   5.244   7.269   1.971 -0.1104  0.1642  0.5644
   23MOL   C39321557   5.305   7.129   1.940 -0.5488  0.2497  0.4027
   23MOL   C39421558   5.257   7.063   1.813  0.3871  0.0871  0.2511
   23MOL   C39521559   5.342   6.954   1.754  0.5025  0.3168  0.4931
   23MOL   C39621560   5.255   6.847   1.682  0.2387 -0.4919 -0.1616
   23MOL   O39721561   5.174   6.777   1.776  0.6246 -0.0243 -0.7112
   23MOL   C39821562   5.177   6.639   1.776 -0.4002 -0.0292 -0.1810
   23MOL   O39921563   5.240   6.562   1.701 -0.1388 -0.2529  0.3179
   23MOL   C40021564   5.085   6.584   1.885  0.8200 -0.2487 -0.4580
   23MOL   C40121565   5.078   6.669   2.012 -0.3676  0.6477 -0.2510
   23MOL   C40221566   5.210   6.676   2.096 -0.0282  0.1975  0.1905
   23MOL   C40321567   5.187   6.786   2.204 -0.2097 -0.8437  0.5487
   23MOL   C40421568   5.317   6.849   2.256 -0.2660  0.5127  0.7374
   23MOL   O40521569   5.428   6.797   2.230  0.1584 -0.3963  0.0091
   23MOL   H40621570   5.274   7.528   2.580 -2.3113  0.0940 -1.6863
   23MOL   H40721571   5.364   7.645   2.491  1.8324 -0.5037  1.4315
   23MOL   H40821572   5.171   7.538   2.366  0.9316  2.2737 -2.5668
   23MOL   H40921573   5.251   7.384   2.387  2.2596  0.2938  1.2566
   23MOL   H41021574   5.342   7.634   2.245 -1.6218 -0.0724 -2.0947
   23MOL   H41121575   5.442   7.500   2.244 -0.7894  1.0286 -3.2465
   23MOL   H41221576   5.272   7.534   2.041  0.3078 -0.3736 -0.3486
   23MOL   H41321577   5.155   7.469   2.144  0.5392 -0.4867 -0.2381
   23MOL   H41421578   5.263   7.260   2.185 -1.2714 -0.2843 -1.1790
   23MOL   H41521579   5.417   7.315   2.101  0.2318  1.0107 -0.8499
   23MOL   H41621580   5.285   7.337   1.896  0.1784 -0.6155  0.0125
   23MOL   H41721581   5.137   7.284   1.958 -0.1191 -1.2685 -1.1752
   23MOL   H41821582   5.290   7.057   2.021 -1.3650 -1.0843 -0.9003
   23MOL   H41921583   5.414   7.122   1.941 -0.3296  1.5250 -4.1540
   23MOL   H42021584   5.247   7.132   1.729  0.6112  0.2381  0.3505
   23MOL   H42121585   5.155   7.032   1.835  0.8610 -0.3030  1.9405
   23MOL   H42221586   5.420   6.990   1.686  0.1099  2.4723  1.1517
   23MOL   H42321587   5.398   6.894   1.826  1.7425  0.9236  0.0471
   23MOL   H42421588   5.316   6.773   1.630 -0.1266 -2.1458  1.6817
   23MOL   H42521589   5.198   6.888   1.600  0.7981 -0.3278 -0.4739
   23MOL   H42621590   4.986   6.574   1.840  0.4349  5.8165 -1.3347
   23MOL   H42721591   5.122   6.489   1.923  0.9446 -0.0960 -0.2002
   23MOL   H42821592   4.991   6.635   2.068 -0.6909  0.7126 -0.7106
   23MOL   H42921593   5.045   6.771   1.995  2.0114  2.4255  4.9285
   23MOL   H43021594   5.293   6.699   2.029 -0.3180 -0.8764 -0.5591
   23MOL   H43121595   5.234   6.588   2.156 -4.0278 -1.0186  0.1523
   23MOL   H43221596   5.119   6.748   2.280 -3.4664  0.0071 -1.8242
   23MOL   H43321597   5.140   6.870   2.155  1.1059 -0.3105  0.1845
   23MOL   O43421598   5.293   6.958   2.328  0.0038 -0.0601 -0.4510
   23MOL   C43521599   5.395   7.022   2.401  0.4798 -0.2675  0.4223
   23MOL   C43621600   5.408   6.979   2.547  0.2201 -0.5183 -0.3630
   23MOL   C43721601   5.457   6.839   2.585  0.0424  0.5274 -0.1318
   23MOL   C43821602   5.482   6.831   2.734  0.1684 -0.0127 -0.3504
   23MOL   C43921603   5.508   6.695   2.793 -0.1720  0.3785 -0.0828
   23MOL   C44021604   5.524   6.697   2.945 -0.3996  0.0498  0.2909
   23MOL   C44121605   5.581   6.564   2.994 -0.3550  0.4515 -0.4552
   23MOL   C44221606   5.664   6.573   3.129  0.2750  0.3425  0.2122
   23MOL   C44321607   5.586   6.602   3.262  0.6729  0.4645  0.0633
   23MOL   C44421608   5.679   6.637   3.389 -0.5853  0.6353  0.0728
   23MOL   O44521609   5.776   6.536   3.414 -0.2006 -0.1530 -0.2655
   23MOL   C44621610   5.840   6.541   3.527 -0.5607  0.3894  0.4563
   23MOL   O44721611   5.821   6.614   3.622 -0.1792  0.1986 -0.5933
   23MOL   C44821612   5.968   6.447   3.536  0.9810  0.7265 -0.5489
   23MOL   C44921613   6.073   6.500   3.446 -0.6129 -0.0159  0.1185
   23MOL   C45021614   6.059   6.455   3.297  0.4701  0.1422 -0.1799
   23MOL   C45121615   6.166   6.511   3.204 -0.2253 -0.1692  0.3392
   23MOL   C45221616   6.135   6.649   3.148  0.8691  0.2344  0.1617
   23MOL   O45321617   6.209   6.748   3.164 -0.8801 -0.3111 -0.1577
   23MOL   H45421618   5.490   6.987   2.359  0.5779 -0.1236  0.5257
   23MOL   H45521619   5.382   7.129   2.389  1.3146 -0.2638 -0.6092
   23MOL   H45621620   5.315   6.996   2.600  0.8362  1.3650  0.1529
   23MOL   H45721621   5.464   7.057   2.599 -2.7222  1.4422 -0.0570
   23MOL   H45821622   5.375   6.771   2.563  0.2750  0.2225 -0.0622
   23MOL   H45921623   5.552   6.817   2.536 -0.3874 -1.0187 -0.2781
   23MOL   H46021624   5.396   6.874   2.786  0.4754  1.0550 -0.7033
   23MOL   H46121625   5.572   6.893   2.743  0.6272 -0.7405  0.1018
   23MOL   H46221626   5.597   6.656   2.744  0.5873  1.4448  0.4299
   23MOL   H46321627   5.429   6.621   2.780 -1.2333  1.1506  1.7887
   23MOL   H46421628   5.429   6.717   2.994 -1.2185 -2.3680 -0.2042
   23MOL   H46521629   5.577   6.788   2.969  0.1229  0.5521 -2.5765
   23MOL   H46621630   5.642   6.523   2.914 -1.5759  1.0121 -1.6897
   23MOL   H46721631   5.498   6.495   3.007  0.0471 -0.0097 -0.3287
   23MOL   H46821632   5.738   6.653   3.131  2.5022 -1.6377 -0.1879
   23MOL   H46921633   5.730   6.486   3.132  1.9097  1.5783  1.7451
   23MOL   H47021634   5.510   6.679   3.248  1.0652  0.8227 -0.0966
   23MOL   H47121635   5.528   6.520   3.304 -1.4171  2.6495  1.6162
   23MOL   H47221636   5.619   6.644   3.480 -0.3470 -1.1068  0.3789
   23MOL   H47321637   5.724   6.735   3.374  1.3889 -0.1751  0.5111
   23MOL   H47421638   6.000   6.450   3.640  0.4338 -0.4540 -0.3383
   23MOL   H47521639   5.940   6.343   3.521 -1.8915  1.4924 -0.8138
   23MOL   H47621640   6.167   6.450   3.468 -0.4419 -0.6332 -1.8656
   23MOL   H47721641   6.076   6.608   3.461  1.6184  0.5069 -3.3303
   23MOL   H47821642   5.967   6.488   3.248  1.7429  0.8207 -2.1698
   23MOL   H47921643   6.059   6.348   3.276  0.5112 -0.1844  1.4112
   23MOL   H48021644   6.180   6.439   3.124 -1.2786 -1.1384  1.0122
   23MOL   H48121645   6.262   6.516   3.255  1.0961  0.1600 -2.0822
   23MOL   O48221646   6.026   6.649   3.069 -0.0709  0.2996  0.7921
   23MOL   C48321647   5.981   6.768   3.004 -0.7211  0.7013 -0.2863
   23MOL   C48421648   5.949   6.734   2.857 -0.4067  0.3698 -0.2804
   23MOL   C48521649   5.902   6.861   2.794  0.2660 -0.4162 -0.4572
   23MOL   C48621650   5.872   6.855   2.639  0.0791  0.3662 -0.1739
   23MOL   C48721651   5.826   6.987   2.593  0.2984  0.6343  0.3958
   23MOL   C48821652   5.797   6.973   2.445  0.2553 -0.0494  0.7062
   23MOL   C48921653   5.775   7.105   2.376 -0.2744 -0.2587 -0.1700
   23MOL   C49021654   5.749   7.101   2.225 -0.3594 -0.7137 -0.3534
   23MOL   C49121655   5.676   7.228   2.173 -0.8600 -1.4143  0.2747
   23MOL   C49221656   5.767   7.352   2.161 -0.2476 -0.6952  0.2360
   23MOL   O49321657   5.716   7.473   2.121 -0.1148  0.0648  0.0195
   23MOL   C49421658   5.778   7.586   2.138  0.1108  0.3317 -0.1406
   23MOL   O49521659   5.892   7.607   2.184  0.3710  0.4391 -0.8009
   23MOL   C49621660   5.687   7.691   2.081  0.3905  0.0474  0.2305
   23MOL   C49721661   5.738   0.063   2.119 -0.5221  0.8228 -0.4516
   23MOL   C49821662   5.651   0.179   2.082  0.5254  0.0226  0.8609
   23MOL   C49921663   5.612   0.190   1.935 -0.7342 -0.0868  0.1352
   23MOL   C50021664   5.727   0.243   1.848 -1.0239  0.5369 -0.1718
   23MOL   O50121665   5.840   0.251   1.889 -0.2189  0.1563 -0.5467
   23MOL   H50221666   5.889   6.795   3.057 -0.8748  1.3532 -0.8822
   23MOL   H50321667   6.054   6.848   3.018 -1.2543  1.4212 -1.5823
   23MOL   H50421668   5.875   6.654   2.863  0.5198 -0.3533  1.6301
   23MOL   H50521669   6.034   6.695   2.802  0.1279  1.9653 -0.6207
   23MOL   H50621670   5.811   6.885   2.849 -0.3192 -3.6543  0.0912
   23MOL   H50721671   5.988   6.928   2.796 -0.3102  0.2993  1.3505
   23MOL   H50821672   5.792   6.783   2.619  0.2834  0.2933 -0.7588
   23MOL   H50921673   5.960   6.820   2.585  0.1830  0.4815 -0.0787
   23MOL   H51021674   5.916   7.047   2.601  1.6160 -1.2767  0.1704
   23MOL   H51121675   5.748   7.023   2.660 -2.4661 -0.2202 -2.2106
   23MOL   H51221676   5.708   6.911   2.436 -0.1764  0.5734  0.5701
   23MOL   H51321677   5.878   6.933   2.384 -0.5898 -0.9205  0.1541
   23MOL   H51421678   5.853   7.180   2.390  0.0937 -0.6309 -0.2174
   23MOL   H51521679   5.692   7.146   2.433  0.3435  0.7442  0.0264
   23MOL   H51621680   5.686   7.014   2.207  1.6325 -2.6085  1.4823
   23MOL   H51721681   5.836   7.079   2.163 -0.0310 -1.6847  0.4425
   23MOL   H51821682   5.625   7.203   2.080  0.4239  0.7053 -1.0323
   23MOL   H51921683   5.592   7.245   2.240 -1.9559  0.4800 -1.5530
   23MOL   H52021684   5.838   7.320   2.085  2.1190  0.9896  1.6405
   23MOL   H52121685   5.827   7.369   2.251  0.0751  0.8239 -0.2524
   23MOL   H52221686   5.692   7.670   1.974 -0.7439 -1.9093  0.5359
   23MOL   H52321687   5.583   7.669   2.107 -0.1396  2.8664  0.6703
   23MOL   H52421688   5.840   0.068   2.078 -0.6597  2.7967 -0.6030
   23MOL   H52521689   5.761   0.069   2.225 -0.0596  0.7330 -0.5431
   23MOL   H52621690   5.697   0.271   2.117 -1.2642  0.6050  1.7316
   23MOL   H52721691   5.561   0.168   2.141  1.6016 -0.1439  2.4802
   23MOL   H52821692   5.525   0.254   1.925  0.7440  1.8462 -0.5184
   23MOL   H52921693   5.582   0.090   1.903 -1.7538  0.3654 -0.3389
   23MOL   O53021694   5.675   0.278   1.730  0.0367 -0.0165 -0.7761
   23MOL   C53121695   5.745   0.347   1.630 -0.3402 -0.2300 -0.1618
   23MOL   C53221696   5.818   0.248   1.539  0.8410  0.4929  0.3835
   23MOL   C53321697   5.842   0.310   1.398 -0.3919 -0.0193 -0.1605
   23MOL   C53421698   5.894   0.206   1.300  0.4874  0.5087 -0.0673
   23MOL   C53521699   5.941   0.263   1.164  0.9232 -0.7405 -0.2571
   23MOL   C53621700   6.050   0.370   1.168  0.0119 -0.4793  0.3586
   23MOL   C53721701   6.059   0.443   1.027  0.0071 -0.3687  0.0571
   23MOL   C53821702   6.114   0.354   0.918 -0.6322  0.6121  0.0231
   23MOL   C53921703   6.262   0.307   0.942 -0.7009 -0.2971 -0.1685
   23MOL   C54021704   6.321   0.221   0.827  1.0306 -0.0257 -0.1921
   23MOL   O54121705   6.331   0.302   0.707  0.3479  0.0175  0.6829
   23MOL   C54221706   6.426   0.397   0.693  0.3063  0.9122 -0.4694
   23MOL   O54321707   6.501   0.441   0.779 -0.7709  0.3475 -0.0381
   23MOL   C54421708   6.419   0.451   0.549 -0.3409  0.1162  0.4709
   23MOL   C54521709   6.513   0.574   0.518 -0.0913  0.2807  0.5740
   23MOL   C54621710   6.516   0.609   0.367  0.0269 -0.3128  0.1600
   23MOL   C54721711   6.595   0.738   0.340  0.0082 -0.2367 -0.9498
   23MOL   C54821712   6.616   0.758   0.188 -0.1153 -0.2779 -0.0685
   23MOL   O54921713   6.723   0.742   0.135 -0.4863  0.0916  0.3594
   23MOL   H55021714   5.680   0.412   1.572 -0.4829  1.6031  1.9839
   23MOL   H55121715   5.824   0.412   1.667 -0.0411  1.4173 -3.4825
   23MOL   H55221716   5.758   0.160   1.516  2.0690 -0.1894 -0.2726
   23MOL   H55321717   5.909   0.224   1.594  0.3267  0.8383  1.4057
   23MOL   H55421718   5.762   0.368   1.352 -0.0279 -0.7096 -1.7187
   23MOL   H55521719   5.918   0.383   1.426  0.5713 -1.1187  0.1412
   23MOL   H55621720   5.811   0.138   1.284  0.3479  0.1305  2.1646
   23MOL   H55721721   5.969   0.139   1.343 -0.8021  1.2045  3.3921
   23MOL   H55821722   5.853   0.311   1.120  1.0294  0.6489  0.9951
   23MOL   H55921723   5.976   0.178   1.106 -1.8727 -0.4902 -2.4785
   23MOL   H56021724   6.151   0.336   1.193  0.3743 -1.2432 -1.9415
   23MOL   H56121725   6.023   0.448   1.239 -1.7391  0.5475 -1.3845
   23MOL   H56221726   6.129   0.527   1.026  1.2072 -1.3234 -2.4355
   23MOL   H56321727   5.962   0.483   0.999 -0.4704 -2.3359 -1.2142
   23MOL   H56421728   6.117   0.419   0.830 -1.1563  1.4810  0.6444
   23MOL   H56521729   6.049   0.270   0.891 -2.0062  0.8162  2.5671
   23MOL   H56621730   6.315   0.400   0.962 -1.2276  0.3064 -1.5148
   23MOL   H56721731   6.275   0.248   1.033 -0.3512 -1.1571 -0.7655
   23MOL   H56821732   6.268   0.128   0.805  0.4342  0.6529 -1.7049
   23MOL   H56921733   6.424   0.190   0.844  1.0538  0.6936  1.0999
   23MOL   H57021734   6.434   0.369   0.479  2.3431 -0.3057  1.5022
   23MOL   H57121735   6.315   0.480   0.532 -0.5044  1.5047  3.5315
   23MOL   H57221736   6.614   0.534   0.532 -0.6381 -0.6393  2.0239
   23MOL   H57321737   6.509   0.659   0.587 -2.4655  1.1263 -0.5617
   23MOL   H57421738   6.418   0.619   0.320  0.3048 -2.2690 -0.8614
   23MOL   H57521739   6.578   0.543   0.307  0.0923  1.2413 -1.5401
   23MOL   H57621740   6.690   0.731   0.393 -0.5414  1.1626  0.2592
   23MOL   H57721741   6.548   0.827   0.382  1.8041  0.7485 -0.9540
   23MOL   O57821742   6.506   0.804   0.132 -0.1171 -0.0386 -0.7029
   23MOL   C57921743   6.503   0.820   7.760 -0.3208 -0.2326  0.3161
   23MOL   C58021744   6.476   0.678   7.695 -0.3227 -0.3070  0.2342
   23MOL   C58121745   6.333   0.637   7.698  0.4113  1.2658 -0.7668
   23MOL   C58221746   6.311   0.491   7.639 -0.3430 -0.2326 -0.3919
   23MOL   C58321747   6.333   0.469   7.489  0.0175  0.2937 -0.9575
   23MOL   C58421748   6.294   0.338   7.420  0.1099 -0.6246  0.1991
   23MOL   C58521749   6.318   0.344   7.266  0.4500 -0.0727  0.0339
   23MOL   C58621750   6.254   0.230   7.186  0.1936  0.8609  0.3065
   23MOL   C58721751   6.329   0.098   7.188  1.0500  0.2342  0.7465
   23MOL   C58821752   6.244   7.737   7.144  0.3804 -0.3765 -0.1210
   23MOL   O58921753   6.301   7.620   7.213  0.1545  0.7557 -0.5611
   23MOL   C59021754   6.335   7.517   7.144  0.4624 -0.6795 -0.0778
   23MOL   O59121755   6.304   7.493   7.024 -0.4917  0.4071  0.1426
   23MOL   C59221756   6.416   7.414   7.220 -0.0796 -0.0048 -0.2354
   23MOL   C59321757   6.557   7.398   7.156 -0.9558  0.0940 -0.8066
   23MOL   C59421758   6.656   7.508   7.173  1.0731  0.2397  0.8465
   23MOL   C59521759   6.799   7.476   7.108  0.1090  0.3747 -0.6675
   23MOL   C59621760   6.894   7.392   7.200  0.6533 -0.0491  0.6058
   23MOL   O59721761   6.866   7.364   7.319  0.5342 -0.3107  0.6694
   23MOL   H59821762   6.421   0.886   7.733 -1.0412 -1.7514 -1.2389
   23MOL   H59921763   6.595   0.862   7.719 -0.7478  1.3282  0.9177
   23MOL   H60021764   6.537   0.600   7.740  0.1560 -1.7198 -2.7451
   23MOL   H60121765   6.509   0.681   7.592  2.5153 -0.4693  1.1078
   23MOL   H60221766   6.292   0.640   0.035  0.4200  1.0768 -0.7575
   23MOL   H60321767   6.274   0.703   7.634  0.1454 -0.0150 -1.8627
   23MOL   H60421768   6.211   0.453   7.663 -1.5353  2.1367 -1.4200
   23MOL   H60521769   6.386   0.425   7.682 -0.6948 -0.7973 -0.6337
   23MOL   H60621770   6.441   0.479   7.475 -0.1447  1.7284 -1.3484
   23MOL   H60721771   6.294   0.551   7.427 -0.4748 -0.6312 -1.8847
   23MOL   H60821772   6.194   0.297   7.432  1.1372 -3.2695 -0.0516
   23MOL   H60921773   6.351   0.257   7.466  1.3705  0.1658  0.0561
   23MOL   H61021774   6.425   0.341   7.247  0.4442  2.5378 -0.6716
   23MOL   H61121775   6.282   0.439   7.226 -1.3243 -0.9168 -0.4388
   23MOL   H61221776   6.250   0.276   7.087  2.2546  0.5295  0.0598
   23MOL   H61321777   6.150   0.204   7.210 -0.2254  1.5853 -0.6717
   23MOL   H61421778   6.427   0.107   7.141  0.0865  1.3535 -1.1317
   23MOL   H61521779   6.343   0.073   7.293 -1.3867 -1.3007  0.7300
   23MOL   H61621780   6.242   7.737   7.035  0.3889 -0.2678 -0.1214
   23MOL   H61721781   6.140   7.754   7.169 -0.4884 -2.4337 -2.2184
   23MOL   H61821782   6.421   7.442   7.325  1.0588 -0.0726 -0.2708
   23MOL   H61921783   6.378   7.312   7.223  2.6009 -1.0043  1.5425
   23MOL   H62021784   6.553   7.361   7.054  1.8891  0.6881 -1.1614
   23MOL   H62121785   6.604   7.316   7.210 -0.3814 -0.2588 -1.8388
   23MOL   H62221786   6.661   7.534   7.279  2.0835  0.9651  0.6233
   23MOL   H62321787   6.619   7.601   7.128  0.5580 -0.3206  0.1062
   23MOL   H62421788   6.842   7.575   7.093  0.2037  0.3927 -0.2887
   23MOL   H62521789   6.783   7.434   7.009 -2.8110  0.3841 -0.2450
   23MOL   O62621790   7.009   7.353   7.138 -0.3894  0.2427 -0.2213
   23MOL   C62721791   7.092   7.274   7.219 -0.4408  0.2687 -0.6200
   23MOL   C62821792   7.226   7.257   7.137 -0.0861 -0.5427  0.0983
   23MOL   C62921793   7.281   7.400   7.134  0.2598  0.1184 -0.0530
   23MOL   C63021794   7.430   7.395   7.093  0.7547 -0.1506 -0.1365
   23MOL   C63121795   7.487   7.529   7.039 -0.5373 -0.0604 -0.1206
   23MOL   C63221796   7.627   7.497   6.988  0.3152  0.0597 -0.8369
   23MOL   C63321797   7.695   7.627   6.925  0.6272 -1.2876 -0.5387
   23MOL   C63421798   0.073   7.584   6.865 -0.6885  0.0628 -0.0973
   23MOL   C63521799   0.143   7.712   6.832 -0.5570  0.1036  0.6786
   23MOL   C63621800   0.202   0.022   6.946 -0.9170 -0.8997  0.0685
   23MOL   O63721801   0.315   7.726   7.011 -0.4418 -0.4212  0.0075
   23MOL   C63821802   0.439   7.743   6.957 -0.3575 -0.4242 -0.4303
   23MOL   O63921803   0.464   0.047   6.860  0.0059  0.2444 -0.2156
   23MOL   C64021804   0.544   7.664   7.034 -0.5565 -0.7429 -0.3202
   23MOL   C64121805   0.587   7.531   6.963  0.5431 -0.9498  0.5066
   23MOL   C64221806   0.525   7.398   7.017  0.2346  0.1870  0.1574
   23MOL   C64321807   0.371   7.390   7.019 -0.3230  0.2459  0.2633
   23MOL   C64421808   0.322   7.246   7.049  0.2359  0.1390  0.7521
   23MOL   O64521809   0.394   7.159   7.094 -0.7789 -0.2656 -0.1444
   23MOL   H64621810   7.112   7.336   7.307  2.0700  0.5120 -1.3052
   23MOL   H64721811   7.042   7.185   7.256  1.0900 -0.0282  0.8014
   23MOL   H64821812   7.217   7.216   7.037  1.3287 -0.0421 -0.2490
   23MOL   H64921813   7.292   7.183   7.184  1.6973  0.1144 -1.3151
   23MOL   H65021814   7.215   7.463   7.075  0.4290  1.3796  1.0987
   23MOL   H65121815   7.278   7.446   7.233 -0.2947 -0.5350  0.2361
   23MOL   H65221816   7.445   7.322   7.014  2.1504 -1.1346  1.0155
   23MOL   H65321817   7.486   7.356   7.178 -0.8877 -0.3533  0.8783
   23MOL   H65421818   7.498   7.602   7.119 -0.9810  0.1720 -0.2730
   23MOL   H65521819   7.421   7.560   6.958 -0.3288  2.4209  0.6162
   23MOL   H65621820   7.617   7.413   6.919  2.7469 -1.7884  0.9847
   23MOL   H65721821   7.696   7.469   7.068  0.3183 -0.9091 -1.1682
   23MOL   H65821822   7.697   7.705   7.001  1.7497 -0.2345 -1.6205
   23MOL   H65921823   7.627   7.663   6.847  1.4410  1.7509  0.0709
   23MOL   H66021824   0.059   7.522   6.777 -1.1025  3.0595 -2.2285
   23MOL   H66121825   0.126   7.511   6.927 -2.1723  1.3904  2.8172
   23MOL   H66221826   0.231   7.689   6.772 -0.9659  2.1229 -0.7533
   23MOL   H66321827   0.079   0.010   6.771 -0.4311  1.9532  2.4037
   23MOL   H66421828   0.122   0.051   7.014 -1.7370 -0.2213 -1.1680
   23MOL   H66521829   0.230   0.123   6.916  3.2093 -2.8910 -3.4760
   23MOL   H66621830   0.625   7.737   7.037 -2.9588  2.1007 -1.3591
   23MOL   H66721831   0.523   7.647   7.140 -0.5576  0.1920 -0.1659
   23MOL   H66821832   0.694   7.518   6.977  0.9811 -0.0988 -1.9756
   23MOL   H66921833   0.570   7.530   6.856  0.0825  2.1827  0.5022
   23MOL   H67021834   0.553   7.390   7.122  1.4496  3.4402  0.1493
   23MOL   H67121835   0.573   7.309   6.975 -2.9906 -1.6099  0.1180
   23MOL   H67221836   0.347   7.416   6.916 -1.4405  0.2070  0.5050
   23MOL   H67321837   0.330   7.466   7.085 -0.6473  1.4231 -1.2741
   23MOL   O67421838   0.188   7.242   7.049  0.1994 -0.1282 -0.3360
   23MOL   C67521839   0.129   7.118   7.090  0.3788 -0.0442  0.6372
   23MOL   C67621840   7.764   7.159   7.169 -0.8209  0.5612 -0.2353
   23MOL   C67721841   7.670   7.025   7.174 -0.2386 -0.2017 -0.2066
   23MOL   C67821842   7.719   6.912   7.262  0.0272 -0.7083 -0.4781
   23MOL   C67921843   7.613   6.797   7.274 -0.3130  0.0314  0.8310
   23MOL   C68021844   7.654   6.688   7.373 -0.7172  0.8563 -0.5564
   23MOL   C68121845   0.014   6.601   7.328  0.0637 -0.2210 -0.0105
   23MOL   C68221846   0.012   6.457   7.365  0.5226  0.3394 -0.1254
   23MOL   C68321847   0.092   6.359   7.278  0.4857 -0.6298 -0.6956
   23MOL   C68421848   0.085   6.215   7.325 -0.6213 -0.4204 -0.5318
   23MOL   O68521849   7.719   6.170   7.364  0.8183 -0.6101 -0.4067
   23MOL   C68621850   7.636   6.124   7.264  0.2255  0.1467 -0.2958
   23MOL   O68721851   7.652   6.129   7.142 -0.0204 -0.1078  0.3316
   23MOL   C68821852   7.509   6.063   7.328 -0.4864 -0.0305  0.7011
   23MOL   C68921853   7.377   6.081   7.251 -0.1380  0.3104  0.6744
   23MOL   C69021854   7.262   6.037   7.340  0.2235 -0.2052 -0.3802
   23MOL   C69121855   7.121   6.057   7.287 -0.0075  0.4645 -0.4192
   23MOL   C69221856   7.013   6.080   7.403 -0.3093 -0.2265  0.1313
   23MOL   O69321857   7.019   6.035   7.513 -0.1917 -0.2053 -0.3520
   23MOL   H69421858   0.116   7.053   7.003 -0.9274 -0.2272  0.9539
   23MOL   H69521859   0.196   7.069   7.161  0.5834  0.2550  0.6476
   23MOL   H69621860   7.712   7.238   7.114 -2.1919  0.6133  1.1110
   23MOL   H69721861   0.026   7.204   7.264 -0.5096 -1.0665  0.4552
   23MOL   H69821862   7.577   7.057   7.221 -0.3713  0.0316 -0.6259
   23MOL   H69921863   7.656   6.983   7.074  1.0381  1.3449 -1.0756
   23MOL   H70021864   7.733   6.935   7.368 -0.3646 -0.4258 -0.4843
   23MOL   H70121865   0.041   6.874   7.208 -0.6978 -1.3906 -1.1679
   23MOL   H70221866   7.610   6.752   7.175  0.4417  1.2531  0.2436
   23MOL   H70321867   7.517   6.841   7.303 -0.3033  0.5208  0.1446
   23MOL   H70421868   7.563   6.629   7.378  0.4265 -0.9194 -0.4248
   23MOL   H70521869   7.664   6.720   7.477 -1.1450 -1.4386  0.2213
   23MOL   H70621870   0.105   6.645   7.370  0.1388  1.0543 -1.4727
   23MOL   H70721871   0.007   6.608   7.220 -1.1809 -0.6612  0.0301
   23MOL   H70821872   7.674   6.423   7.378  0.5657  0.7834  1.4944
   23MOL   H70921873   0.053   6.446   7.466 -1.3728  1.0142  0.7207
   23MOL   H71021874   0.040   6.365   7.182  0.6354  0.1719 -0.7376
   23MOL   H71121875   0.192   6.395   7.252  0.2889 -0.2874 -0.9897
   23MOL   H71221876   0.146   6.221   7.415  0.5340  0.6048 -1.3539
   23MOL   H71321877   0.130   6.145   7.254 -1.4317 -1.4846 -0.0151
   23MOL   H71421878   7.532   5.960   7.355  2.3626 -0.4871 -3.0748
   23MOL   H71521879   7.505   6.111   7.426 -2.3191 -1.7564  1.5249
   23MOL   H71621880   7.384   6.026   7.157 -1.0007  1.3292 -0.0022
   23MOL   H71721881   7.361   6.185   7.223  0.4903  0.2089 -0.0695
   23MOL   H71821882   7.266   6.089   7.435 -0.8210  1.3944 -1.1879
   23MOL   H71921883   7.280   5.934   7.372  0.3484 -0.3072 -0.7761
   23MOL   H72021884   7.089   5.973   7.224 -0.8762  1.1141 -0.8483
   23MOL   H72121885   7.110   6.146   7.225  0.1545 -0.5303 -1.9228
   23MOL   O72221886   6.919   6.159   7.355 -0.1586  0.1101 -0.2215
   23MOL   C72321887   6.804   6.193   7.434 -0.9247 -0.0605  1.1223
   23MOL   C72421888   6.700   6.295   7.373  0.5251  0.2604  0.8035
   23MOL   C72521889   6.740   6.438   7.406 -0.6548 -0.0467  0.1594
   23MOL   C72621890   6.635   6.544   7.365 -0.4645  0.2379 -0.4543
   23MOL   C72721891   6.704   6.680   7.392  0.1920 -0.3288  0.3570
   23MOL   C72821892   6.603   6.788   7.343  0.0919 -0.6567 -0.0584
   23MOL   C72921893   6.662   6.927   7.369 -0.2556 -0.4088 -0.4037
   23MOL   C73021894   6.667   6.978   7.521  0.6263 -0.5302 -0.5392
   23MOL   C73121895   6.743   7.109   7.529 -0.3826  0.4144  0.9936
   23MOL   C73221896   6.722   7.177   7.667 -0.3669 -0.5838 -0.5410
   23MOL   O73321897   6.750   7.092   0.015 -0.2339 -0.0794 -0.3563
   23MOL   C73421898   6.759   7.146   0.135  0.1942 -0.0320 -0.0905
   23MOL   O73521899   6.760   7.266   0.165 -0.2331 -0.0801 -0.0867
   23MOL   C73621900   6.785   7.039   0.239  0.0839  0.3480  0.4164
   23MOL   C73721901   6.929   6.982   0.242  0.1229 -0.4185  0.5676
   23MOL   C73821902   7.048   7.073   0.284 -0.7128 -0.0240 -0.0562
   23MOL   C73921903   7.183   6.999   0.262 -0.3734  0.2923  0.2801
   23MOL   C74021904   7.297   7.059   0.344  1.2675  0.6141 -0.1298
   23MOL   O74121905   7.267   7.126   0.447  0.5363  0.9191  1.0289
   23MOL   H74221906   6.756   6.097   7.449 -1.7550  0.0307 -0.8506
   23MOL   H74321907   6.836   6.229   7.532  1.3554  2.1063 -0.3469
   23MOL   H74421908   6.605   6.279   7.424  0.0309  0.1270 -0.1514
   23MOL   H74521909   6.681   6.273   7.268  1.5567  1.8365  0.2646
   23MOL   H74621910   6.749   6.444   7.514  0.6884 -1.1489  0.1084
   23MOL   H74721911   6.837   6.469   7.367  0.0511  0.5682  2.3763
   23MOL   H74821912   6.548   6.538   7.431 -1.5335 -0.7689 -1.9217
   23MOL   H74921913   6.598   6.527   7.264 -0.6921  1.7765 -0.6331
   23MOL   H75021914   6.789   6.684   7.324 -0.5631 -1.3112 -0.6815
   23MOL   H75121915   6.737   6.690   7.495  1.1571  0.5065 -0.0238
   23MOL   H75221916   6.506   6.785   7.392  0.2990  1.5789  0.4987
   23MOL   H75321917   6.587   6.766   7.237 -0.8160 -0.0343 -0.0467
   23MOL   H75421918   6.596   6.994   7.314 -0.0170  0.2182  0.0697
   23MOL   H75521919   6.757   6.929   7.317  0.4896 -1.2847  0.8968
   23MOL   H75621920   6.719   6.903   7.581 -2.0247 -1.7131  0.3540
   23MOL   H75721921   6.569   6.992   7.566  0.9940  0.1635  0.0566
   23MOL   H75821922   6.851   7.097   7.520 -0.6402 -2.6543  1.5006
   23MOL   H75921923   6.713   7.159   7.437  1.2725 -0.9953 -0.3639
   23MOL   H76021924   6.620   7.213   7.680 -0.5833 -1.5139  0.3928
   23MOL   H76121925   6.791   7.260   7.677 -0.0344 -0.9251  0.0358
   23MOL   H76221926   6.765   7.087   0.335  1.3078  1.1808  0.2726
   23MOL   H76321927   6.719   6.954   0.226 -0.3046  0.6924  0.0936
   23MOL   H76421928   6.935   6.954   0.137 -0.4053 -0.7959  0.6343
   23MOL   H76521929   6.926   6.890   0.301 -2.1633  0.1418  1.3645
   23MOL   H76621930   7.030   7.113   0.384  0.1784  0.5183 -0.1125
   23MOL   H76721931   7.047   7.163   0.222  1.0141  0.1404  0.1278
   23MOL   H76821932   7.206   6.994   0.155  1.9871 -2.8133  0.8830
   23MOL   H76921933   7.184   6.897   0.300 -3.2672 -0.1819 -0.7311
   23MOL   O77021934   7.424   7.026   0.300 -0.0023 -0.5079 -0.6883
   23MOL   C77121935   7.531   7.083   0.379 -0.3073  0.0588 -0.5502
   23MOL   C77221936   7.661   7.017   0.367 -0.3832 -0.6286 -0.0243
   23MOL   C77321937   0.008   7.064   0.466 -0.0573  0.3582 -0.3900
   23MOL   C77421938   0.141   7.001   0.428 -0.4091 -0.5168  0.3062
   23MOL   C77521939   0.254   7.062   0.508  0.0136  0.3250 -0.6371
   23MOL   C77621940   0.389   6.988   0.488 -0.1240  0.3260  0.7197
   23MOL   C77721941   0.501   7.053   0.583  0.3313  1.0913  0.2060
   23MOL   C77821942   0.635   6.975   0.566  0.7932 -0.6079 -0.0394
   23MOL   C77921943   0.728   6.994   0.689 -0.6586 -0.4563 -0.5057
   23MOL   C78021944   0.766   7.139   0.721  0.6483 -0.2703 -0.2380
   23MOL   O78121945   0.882   7.157   0.798  0.0758  0.3778 -0.6383
   23MOL   C78221946   0.944   7.269   0.809  0.4198  0.5627  0.4166
   23MOL   O78321947   0.890   7.370   0.772  0.8556 -0.0727 -0.2815
   23MOL   C78421948   1.077   7.274   0.879 -0.1358 -0.5929  0.0999
   23MOL   C78521949   1.199   7.257   0.782  0.2485 -0.0025 -0.3659
   23MOL   C78621950   1.197   7.125   0.711  0.5654 -0.1333  0.4223
   23MOL   C78721951   1.313   7.122   0.609  0.0012  0.2046  0.7191
   23MOL   C78821952   1.322   6.985   0.541  1.2129 -0.1500 -0.0002
   23MOL   O78921953   1.227   6.902   0.549 -0.0414  0.4863 -0.1100
   23MOL   H79021954   7.545   7.189   0.359  0.7452  0.3530  1.6099
   23MOL   H79121955   7.504   7.074   0.484 -1.1202  1.2105 -0.6397
   23MOL   H79221956   7.692   7.025   0.263  0.1604 -0.3371  0.1544
   23MOL   H79321957   7.648   6.909   0.375 -0.8532 -0.5765 -0.0531
   23MOL   H79421958   0.010   7.173   0.462 -1.2219  0.4082  0.3070
   23MOL   H79521959   7.747   7.037   0.568  1.5879  1.5380  0.3491
   23MOL   H79621960   0.166   7.017   0.323  4.1404 -0.7881  1.2327
   23MOL   H79721961   0.140   6.892   0.422  1.0220 -0.3845 -4.3815
   23MOL   H79821962   0.233   7.066   0.615  1.8319 -3.5626 -0.0741
   23MOL   H79921963   0.260   7.169   0.484 -1.9548  0.5085 -0.4565
   23MOL   H80021964   0.423   6.981   0.385  0.3745 -0.2985  0.9245
   23MOL   H80121965   0.382   6.881   0.510  0.8922 -0.2119 -1.4577
   23MOL   H80221966   0.471   7.058   0.687  1.2503 -0.4271  0.5775
   23MOL   H80321967   0.516   7.158   0.560 -0.1867  1.5422  1.8796
   23MOL   H80421968   0.679   7.000   0.470  0.9585  0.9418  0.4227
   23MOL   H80521969   0.614   6.871   0.542  0.6972 -0.5000 -0.4171
   23MOL   H80621970   0.687   6.934   0.771 -0.5205  1.0485  0.6958
   23MOL   H80721971   0.824   6.953   0.656 -0.6712 -0.8279 -0.0922
   23MOL   H80821972   0.680   7.170   0.781  0.1062 -1.9185 -0.1259
   23MOL   H80921973   0.778   7.193   0.628 -1.3645  1.0708  0.2569
   23MOL   H81021974   1.082   7.376   0.918 -0.1089 -0.3931 -0.4238
   23MOL   H81121975   1.089   7.209   0.965 -0.0050  1.4041  1.6248
   23MOL   H81221976   1.289   7.251   0.843  0.9406 -2.5073 -1.5447
   23MOL   H81321977   1.203   7.347   0.721 -0.1211 -0.4917 -1.1209
   23MOL   H81421978   1.098   7.108   0.669  1.2635 -1.6639 -0.6661
   23MOL   H81521979   1.218   7.050   0.787 -1.9105  0.5446  1.8474
   23MOL   H81621980   1.408   7.153   0.653 -1.7667  1.2177  3.9989
   23MOL   H81721981   1.292   7.197   0.533 -1.7817 -1.2306 -0.2476
   23MOL   O81821982   1.433   6.963   0.474 -0.2985  0.1968 -0.4225
   23MOL   C81921983   1.485   6.833   0.441 -0.3623  0.6501 -0.5484
   23MOL   C82021984   1.560   6.777   0.559  0.2514 -0.1607 -0.3307
   23MOL   C82121985   1.469   6.691   0.648 -0.0095  0.7090  0.1379
   23MOL   C82221986   1.539   6.642   0.778 -0.0452 -0.3527  0.2864
   23MOL   C82321987   1.440   6.566   0.877  0.0056 -0.8234 -0.0829
   23MOL   C82421988   1.504   6.496   1.002  1.2380  1.1619 -0.2633
   23MOL   C82521989   1.544   6.594   1.116  0.1319 -0.0777 -0.2356
   23MOL   C82621990   1.626   6.527   1.233  0.2197  0.6387  0.5919
   23MOL   C82721991   1.672   6.618   1.346  0.5944  0.0232 -0.1838
   23MOL   C82821992   1.576   6.722   1.390 -0.5947 -0.1436 -0.1678
   23MOL   O82921993   1.632   6.791   1.494 -0.3297  0.1446  0.1013
   23MOL   C83021994   1.572   6.798   1.615  0.1272  0.3550 -0.6898
   23MOL   O83121995   1.467   6.735   1.646 -0.1368  0.7405 -0.0669
   23MOL   C83221996   1.644   6.887   1.718 -0.0003  0.0125  0.5350
   23MOL   C83321997   1.780   6.840   1.763 -0.0219  0.1280  0.9162
   23MOL   C83421998   1.783   6.690   1.805  0.4189  0.0216 -0.6088
   23MOL   C83521999   1.922   6.651   1.858 -0.0895  0.6326  0.5749
   23MOL   C83622000   2.017   6.599   1.753 -0.4789 -0.1711 -0.1726
   23MOL   O83722001   1.979   6.510   1.673  0.3684 -0.1044  0.0524
   23MOL   H83822002   1.402   6.772   0.406 -2.7453  4.0904 -1.1500
   23MOL   H83922003   1.549   6.842   0.353 -1.3578 -1.0412 -1.4817
   23MOL   H84022004   1.606   6.864   0.606  0.0347  0.7335 -1.7334
   23MOL   H84122005   1.648   6.724   0.524  2.4555  1.6034  2.3862
   23MOL   H84222006   1.399   6.758   0.697 -1.1957 -0.5263  0.1544
   23MOL   H84322007   1.410   6.611   0.602 -0.1277 -0.4859  2.3216
   23MOL   H84422008   1.573   6.720   0.847 -2.2406 -0.1040  1.1525
   23MOL   H84522009   1.624   6.579   0.754  0.3406 -0.1893  1.1972
   23MOL   H84622010   1.383   6.494   0.818  0.0342 -0.8339 -0.0983
   23MOL   H84722011   1.375   6.648   0.908  1.3244  0.7591 -1.4194
   23MOL   H84822012   1.593   6.441   0.972  0.1569 -0.7516 -0.0917
   23MOL   H84922013   1.433   6.425   1.046  0.0779  1.1990 -2.0243
   23MOL   H85022014   1.455   6.647   1.152 -0.4563  0.2844 -2.1901
   23MOL   H85122015   1.610   6.669   1.073  1.2616 -0.4438  0.8088
   23MOL   H85222016   1.716   6.486   1.187  1.0797  0.2862  2.5392
   23MOL   H85322017   1.578   6.442   1.280  0.2589 -0.7896 -1.8690
   23MOL   H85422018   1.707   6.558   1.430 -0.5137  0.2628  0.4567
   23MOL   H85522019   1.759   6.666   1.301  0.4674  0.4673  0.0388
   23MOL   H85622020   1.479   6.681   1.415 -1.1975 -0.0000 -2.1749
   23MOL   H85722021   1.559   6.795   1.311  1.6778 -0.9793 -1.4727
   23MOL   H85822022   1.652   6.987   1.674  0.4870 -2.1507 -4.6818
   23MOL   H85922023   1.582   6.891   1.807  1.7882  0.4351  1.7767
   23MOL   H86022024   1.827   6.908   1.834  4.0014 -0.0241 -1.4435
   23MOL   H86122025   1.846   6.847   1.676 -1.7759 -3.2286 -0.7727
   23MOL   H86222026   1.761   6.622   1.723  2.3134 -1.2461 -0.0972
   23MOL   H86322027   1.720   6.668   1.892  0.5415  3.2739  0.3570
   23MOL   H86422028   1.899   6.579   1.937  0.4930 -0.4237 -0.2019
   23MOL   H86522029   1.965   6.732   1.916 -0.9348  1.5683 -0.0933
   23MOL   O86622030   2.136   6.659   1.766 -0.0325  0.0963 -0.1776
   23MOL   C86722031   2.237   6.621   1.675  0.6342 -0.2630  0.2333
   23MOL   C86822032   2.332   6.539   1.763 -0.4166  0.5160  0.2035
   23MOL   C86922033   2.299   6.388   1.796 -0.3706 -0.0622 -0.1748
   23MOL   C87022034   2.392   6.325   1.900 -0.5373 -0.3002  0.3600
   23MOL   C87122035   2.349   6.181   1.953  0.1837  0.8535  0.0155
   23MOL   C87222036   2.432   6.142   2.081  0.0984  0.5307  0.2342
   23MOL   C87322037   2.385   6.012   2.149 -0.4967  1.0398  0.3176
   23MOL   C87422038   2.470   5.975   2.271  0.6511  0.7047 -0.1231
   23MOL   C87522039   2.420   5.855   2.345  0.5627  0.3892  0.7050
   23MOL   C87622040   2.504   5.820   2.473  0.1662  0.6260  0.2672
   23MOL   O87722041   2.518   5.931   2.551  0.0320 -0.2731  0.6026
   23MOL   C87822042   2.610   5.937   2.643  0.4494 -0.2175  0.5585
   23MOL   O87922043   2.701   5.860   2.660  0.2127  0.5194  0.2467
   23MOL   C88022044   2.595   6.072   2.716 -0.7682 -0.3647 -0.1396
   23MOL   C88122045   2.689   6.185   2.665 -0.3125  0.9440  0.3170
   23MOL   C88222046   2.655   6.238   2.528 -0.0800  0.2773  0.0087
   23MOL   C88322047   2.734   6.357   2.491 -0.6391  0.1155  0.3522
   23MOL   C88422048   2.705   6.411   2.354  0.1743  0.0655  0.4083
   23MOL   O88522049   2.608   6.371   2.288  0.3414  0.1666  0.1645
   23MOL   H88622050   2.205   6.569   1.585  0.1365 -0.0219  0.2702
   23MOL   H88722051   2.284   6.715   1.646 -1.3167  0.3227 -1.1228
   23MOL   H88822052   2.350   6.585   1.860  0.0407  0.0948  0.3214
   23MOL   H88922053   2.431   6.548   1.717  0.1391 -2.3977  0.7411
   23MOL   H89022054   2.197   6.382   1.835 -1.1803  0.2741 -2.1440
   23MOL   H89122055   2.292   6.320   1.710 -1.0430  0.8594 -0.8598
   23MOL   H89222056   2.402   6.397   1.982  3.4454  0.6288 -0.8320
   23MOL   H89322057   2.494   6.320   1.863  0.0094  0.1993  1.7681
   23MOL   H89422058   2.368   6.113   1.870  1.5664  2.5577 -1.1315
   23MOL   H89522059   2.242   6.172   1.965  0.3451 -1.7114 -0.2836
   23MOL   H89622060   2.420   6.229   2.146 -0.1826  0.5258  0.1929
   23MOL   H89722061   2.536   6.134   2.049 -0.3693  2.4091 -1.9128
   23MOL   H89822062   2.392   5.945   2.063  1.0769  0.2803  1.0009
   23MOL   H89922063   2.278   6.023   2.162 -0.6963 -1.4045  1.0892
   23MOL   H90022064   2.482   6.057   2.341  1.3379  1.4528 -1.1126
   23MOL   H90122065   2.576   5.963   2.250  1.1527  0.4727  2.4465
   23MOL   H90222066   2.319   5.868   2.384 -0.8480  0.6551 -2.9165
   23MOL   H90322067   2.429   5.774   2.273  1.6373  1.5618 -0.5026
   23MOL   H90422068   2.605   5.795   2.441  0.2712 -0.6898  1.5475
   23MOL   H90522069   2.459   5.738   2.530  1.9443  0.7367  1.8554
   23MOL   H90622070   2.491   6.103   2.705  0.0705  2.0771 -1.9418
   23MOL   H90722071   2.624   6.056   2.820  1.7254  1.7356 -0.4379
   23MOL   H90822072   2.784   6.132   2.670 -1.2892 -0.7202  2.2420
   23MOL   H90922073   2.694   6.269   2.733  0.0140  0.2142  1.2031
   23MOL   H91022074   2.551   6.268   2.512 -0.5314  0.1661  2.4789
   23MOL   H91122075   2.688   6.156   2.464  1.7574  0.3878  0.8014
   23MOL   H91222076   2.834   6.314   2.487 -1.2120 -1.1445 -1.6930
   23MOL   H91322077   2.748   6.437   2.563  1.3589 -0.1589  0.2938
   23MOL   O91422078   2.793   6.511   2.315  0.5096  0.1198  0.4306
   23MOL   C91522079   2.755   6.586   2.200 -0.4699 -0.1316 -0.0588
   23MOL   C91622080   2.694   6.722   2.243 -0.2147  0.1575 -0.3314
   23MOL   C91722081   2.643   6.797   2.120 -0.2188 -0.1477 -0.2816
   23MOL   C91822082   2.550   6.909   2.168 -0.5986 -0.3475  0.7180
   23MOL   C91922083   2.622   7.019   2.249  0.5176  0.7378 -0.0849
   23MOL   C92022084   2.581   7.003   2.405  0.1254  0.0018 -0.0675
   23MOL   C92122085   2.629   7.108   2.497 -0.1586 -0.6821  0.5223
   23MOL   C92222086   2.630   7.076   2.647 -0.0506  0.3795 -0.2437
   23MOL   C92322087   2.687   7.193   2.730  0.6970  0.3912  0.0624
   23MOL   C92422088   2.659   7.188   2.880 -0.4067  0.3877 -0.3851
   23MOL   O92522089   2.733   7.294   2.931  0.0554 -0.6158 -0.0706
   23MOL   C92622090   2.728   7.326   3.067 -0.3439 -0.4848  0.0542
   23MOL   O92722091   2.679   7.249   3.153 -0.7486  0.3916 -0.5243
   23MOL   C92822092   2.783   7.461   3.095 -0.2888  0.2160 -0.4118
   23MOL   C92922093   2.737   7.577   3.006  0.4960  0.3854  0.4558
   23MOL   C93022094   2.579   7.583   3.000 -0.3289  0.3721  0.2350
   23MOL   C93122095   2.530   7.703   2.919  0.8188  0.0798 -0.6499
   23MOL   C93222096   2.516   0.057   3.023 -0.0227  0.0404  0.1202
   23MOL   O93322097   2.612   0.085   3.089 -0.0429  0.2993 -0.2099
   23MOL   H93422098   2.855   6.598   2.157 -0.9264 -0.6607 -1.2805
   23MOL   H93522099   2.700   6.524   2.129  2.4787 -1.0539 -1.6288
   23MOL   H93622100   2.780   6.781   2.275  0.0556 -1.6309  2.3771
   23MOL   H93722101   2.613   6.713   2.314 -1.4038  3.1691 -1.2272
   23MOL   H93822102   2.731   6.839   2.071 -0.3500  0.0128 -0.3783
   23MOL   H93922103   2.589   6.730   2.053 -0.5436  1.3787 -1.5822
   23MOL   H94022104   2.468   6.879   2.233  0.0171  1.8268  2.5630
   23MOL   H94122105   2.495   6.959   2.087 -0.4145  1.6844  1.8246
   23MOL   H94222106   2.572   7.107   2.209 -2.7513 -2.2841 -3.0465
   23MOL   H94322107   2.730   7.017   2.237  0.4462 -0.2588 -0.6383
   23MOL   H94422108   2.612   6.907   2.444  1.1919  0.9852  1.5557
   23MOL   H94522109   2.473   6.990   2.412  0.2991 -0.7641  1.3533
   23MOL   H94622110   2.571   7.199   2.478 -0.4573 -0.8730  0.5216
   23MOL   H94722111   2.732   7.134   2.471 -0.1858  0.1876  1.2577
   23MOL   H94822112   2.688   6.985   2.662 -0.0020  0.1058 -2.0549
   23MOL   H94922113   2.532   7.040   2.679  0.0673  2.0043  2.1184
   23MOL   H95022114   2.795   7.192   2.713  0.7912 -0.2111  0.6697
   23MOL   H95122115   2.644   7.287   2.694  0.4829 -0.4562 -1.9624
   23MOL   H95222116   2.702   7.102   2.933 -1.3291  0.2693  0.1681
   23MOL   H95322117   2.552   7.199   2.896 -0.4663 -0.1098 -0.4287
   23MOL   H95422118   2.759   7.503   3.193 -2.0379 -0.3210 -0.6031
   23MOL   H95522119   2.892   7.449   3.095 -0.4020 -0.9469  1.2183
   23MOL   H95622120   2.777   7.569   2.905 -0.0539 -1.1456  0.3485
   23MOL   H95722121   2.786   7.665   3.047  1.5414  0.2637 -0.5244
   23MOL   H95822122   2.536   7.585   3.100  0.4548 -0.9364  0.6110
   23MOL   H95922123   2.532   7.496   2.954  0.9240  0.4780 -1.2766
   23MOL   H96022124   2.443   7.697   2.854 -1.6636 -2.8351  2.7353
   23MOL   H96122125   2.598   7.725   2.837  0.1510  2.4288 -0.5979
   23MOL   H96222126   2.418   0.096   3.049  0.5479  1.9283 -0.4741
   24MOL     O122127   3.968   3.346   7.157 -0.1621  0.0083 -0.1993
   24MOL     C222128   3.917   3.263   7.261 -0.0165  0.1721  0.3911
   24MOL     C322129   3.814   3.162   7.209  0.3973  0.0766 -0.9946
   24MOL     C422130   3.692   3.227   7.145  0.4405 -0.2040 -0.0065
   24MOL     C522131   3.583   3.137   7.085 -0.4928 -0.4125 -0.2461
   24MOL     C622132   3.487   3.084   7.191 -0.6539 -0.6949 -0.7629
   24MOL     C722133   3.384   2.992   7.124  0.2878 -0.4364  0.0813
   24MOL     C822134   3.309   2.898   7.209 -0.1725 -0.0530  0.2519
   24MOL     C922135   3.197   2.823   7.136 -0.2050  0.7818  0.4820
   24MOL    C1022136   3.091   2.758   7.222  0.2333 -0.2956  0.5956
   24MOL    C1122137   2.978   2.690   7.139  0.7875  0.3664 -0.0662
   24MOL    O1222138   2.898   2.608   7.220  0.0953 -0.2023 -0.0141
   24MOL    C1322139   2.790   2.650   7.287 -0.7480  0.6604 -0.2269
   24MOL    O1422140   2.741   2.758   7.295  0.1972 -0.2732  0.0938
   24MOL    C1522141   2.754   2.548   7.407  0.3137 -0.3135  0.5323
   24MOL    C1622142   2.737   2.397   7.375 -0.5249  0.6362  0.1546
   24MOL    C1722143   2.692   2.318   7.504  0.6063 -0.2979  0.1133
   24MOL    C1822144   2.688   2.162   7.489 -0.8856 -0.5953 -0.0693
   24MOL    C1922145   2.565   2.112   7.412 -0.0166  0.2606 -0.2646
   24MOL    O2022146   2.520   2.001   7.442 -0.0537  0.5561  0.1781
   24MOL    H2122147   4.000   3.208   7.305 -1.1455 -2.4255 -0.6715
   24MOL    H2222148   3.881   3.319   7.348 -1.0388 -0.8403  0.6259
   24MOL    H2322149   3.782   3.107   7.297  1.5821  0.6996 -0.1534
   24MOL    H2422150   3.852   3.093   7.134 -1.0353 -2.0625  0.2082
   24MOL    H2522151   3.640   3.300   7.208  0.2166 -2.9432  3.1217
   24MOL    H2622152   3.731   3.281   7.059  0.8263 -1.1134 -0.3983
   24MOL    H2722153   3.631   3.050   7.039 -0.9291 -0.7113 -0.1419
   24MOL    H2822154   3.529   3.192   7.008 -1.3594  0.1738  0.7640
   24MOL    H2922155   3.433   3.159   7.248 -1.1118 -1.3904 -0.2618
   24MOL    H3022156   3.543   3.039   7.274  0.2246  2.3552  0.3721
   24MOL    H3122157   3.431   2.925   7.052  1.0503  0.9166 -0.7009
   24MOL    H3222158   3.320   3.049   7.056  1.1488  2.6690  1.8298
   24MOL    H3322159   3.260   2.955   7.288  2.1903  0.8451  1.1075
   24MOL    H3422160   3.374   2.830   7.263  2.1938  2.5097  0.7754
   24MOL    H3522161   3.239   2.753   7.064 -0.6815  0.2918  0.6737
   24MOL    H3622162   3.143   2.897   7.077  0.3416  0.5127 -0.3523
   24MOL    H3722163   3.131   2.675   7.280  3.1163  1.1557  0.7999
   24MOL    H3822164   3.053   2.824   7.300 -2.6022 -2.0749  0.8052
   24MOL    H3922165   3.018   2.641   7.051 -1.3532 -0.8057 -0.4277
   24MOL    H4022166   2.911   2.766   7.098 -0.8756 -2.0390 -1.8840
   24MOL    H4122167   2.839   2.557   7.475  0.4405  3.4008 -0.0031
   24MOL    H4222168   2.670   2.595   7.457 -1.2034 -2.5201  0.1268
   24MOL    H4322169   2.828   2.358   7.328 -1.8810 -1.5856 -0.6737
   24MOL    H4422170   2.659   2.396   7.300  0.6519  3.3675 -1.2096
   24MOL    H4522171   2.597   2.366   7.525  1.3185  1.6077 -0.8954
   24MOL    H4622172   2.770   2.339   7.578  1.4501  2.8591 -1.5472
   24MOL    H4722173   2.707   2.112   7.584  3.6928  0.2000 -0.4449
   24MOL    H4822174   2.782   2.131   7.443 -2.4869 -2.1357 -2.4424
   24MOL    H4922175   4.041   3.389   7.199 -0.1529 -1.9670  1.8414
   24MOL    O5022176   2.516   2.188   7.320  0.0565 -1.3089  1.0023
   24MOL    C5122177   2.384   2.170   7.275  0.3815 -0.1197  0.0353
   24MOL    C5222178   2.347   2.302   7.200 -0.1309 -0.2439  0.0377
   24MOL    C5322179   2.355   2.432   7.278  0.1604 -0.3189 -0.0276
   24MOL    C5422180   2.328   2.557   7.190 -0.1814  0.1380 -0.3484
   24MOL    C5522181   2.361   2.686   7.273  0.8870  0.1536 -0.3883
   24MOL    C5622182   2.341   2.815   7.200 -0.3062 -0.3444  0.6610
   24MOL    C5722183   2.366   2.945   7.285  0.2045  0.2363 -0.4609
   24MOL    C5822184   2.327   3.079   7.219  0.1531 -0.5474 -0.0027
   24MOL    C5922185   2.381   3.198   7.296  0.3225  0.0030  0.3823
   24MOL    C6022186   2.355   3.330   7.226 -0.0838 -0.2555  0.2814
   24MOL    O6122187   2.371   3.443   7.314  0.3898  0.7337 -0.1036
   24MOL    C6222188   2.493   3.493   7.344  0.3862 -0.0542 -0.0139
   24MOL    O6322189   2.604   3.455   7.299 -0.3013  0.6312  0.1684
   24MOL    C6422190   2.493   3.585   7.462 -0.0972 -0.4300  0.1203
   24MOL    C6522191   2.452   3.511   7.595 -0.4793 -0.1879 -0.7315
   24MOL    C6622192   2.571   3.456   7.679 -0.2120  0.4837  0.4989
   24MOL    C6722193   2.525   3.365   0.031  0.1869 -0.6243 -0.6529
   24MOL    C6822194   2.453   3.230   7.763 -0.7201  0.4202  0.8890
   24MOL    O6922195   2.444   3.196   7.649  0.0632 -0.0424 -0.2192
   24MOL    H7022196   2.385   2.094   7.198  1.6766 -2.0064  1.8728
   24MOL    H7122197   2.302   2.150   7.345  0.0361  0.0185 -0.3282
   24MOL    H7222198   2.245   2.303   7.163  0.2756 -0.1010 -1.1064
   24MOL    H7322199   2.414   2.324   7.116 -0.5469 -1.3383 -0.5924
   24MOL    H7422200   2.284   2.438   7.360 -1.6472 -1.2644 -1.4721
   24MOL    H7522201   2.453   2.444   7.324  0.3621 -0.3859 -0.4356
   24MOL    H7622202   2.223   2.552   7.164 -0.1718 -1.0079 -0.2070
   24MOL    H7722203   2.380   2.545   7.095  0.6661 -1.4859  0.2915
   24MOL    H7822204   2.463   2.688   7.311  0.5212  2.3288  0.5528
   24MOL    H7922205   2.296   2.685   7.361  0.0580 -0.9048 -1.0036
   24MOL    H8022206   2.244   2.819   7.149 -0.8011 -0.6301  1.5747
   24MOL    H8122207   2.410   2.813   7.116 -0.9582 -0.0768  0.1074
   24MOL    H8222208   2.475   2.952   7.286  0.4590 -2.9379  0.3098
   24MOL    H8322209   2.309   2.932   7.377  2.2143 -1.6320  0.5791
   24MOL    H8422210   2.219   3.096   7.219  0.2718  0.2428 -1.3520
   24MOL    H8522211   2.355   3.089   7.115 -0.4673 -0.8871 -0.2052
   24MOL    H8622212   2.331   3.193   7.393 -0.0840  0.6361  0.2092
   24MOL    H8722213   2.488   3.187   7.308  0.2760  0.1103  0.9298
   24MOL    H8822214   2.249   3.339   7.203  0.0162  0.7855  0.2239
   24MOL    H8922215   2.418   3.340   7.138  0.8528 -1.1342  0.8363
   24MOL    H9022216   2.595   3.612   7.486  0.1691 -0.7059 -0.7030
   24MOL    H9122217   2.436   3.673   7.434 -0.0615 -0.9047 -1.4775
   24MOL    H9222218   2.386   3.429   7.569 -1.3223  0.5955 -1.1212
   24MOL    H9322219   2.392   3.584   7.651 -0.6560 -1.0573  0.2211
   24MOL    H9422220   2.638   3.539   7.699  0.8774  0.0831 -1.3776
   24MOL    H9522221   2.635   3.391   7.620  0.3377 -1.1489  2.7892
   24MOL    H9622222   2.459   3.430   0.089  1.0119 -0.4149  0.0697
   24MOL    H9722223   2.605   3.341   0.101  0.2160  1.9080  0.2506
   24MOL    O9822224   2.419   3.153   0.100 -0.1091  0.8289 -0.8024
   24MOL    C9922225   2.382   3.018   0.078 -0.0774 -0.3474 -0.0974
   24MOL   C10022226   2.292   2.980   0.192  0.2125  0.3074 -0.2982
   24MOL   C10122227   2.354   2.985   0.331  0.3489  0.1171  0.2810
   24MOL   C10222228   2.278   2.901   0.431 -0.5844  0.1169  0.6099
   24MOL   C10322229   2.285   2.749   0.398  0.2662  0.0762  0.6453
   24MOL   C10422230   2.213   2.671   0.507  0.7087 -0.2247 -0.8943
   24MOL   C10522231   2.210   2.522   0.470 -0.3292  0.0297  0.5105
   24MOL   C10622232   2.121   2.427   0.551  0.7403  0.4566  0.0569
   24MOL   C10722233   1.981   2.423   0.478  0.2700 -0.0829 -0.2813
   24MOL   C10822234   1.894   2.309   0.542 -0.9329 -0.0742 -0.6956
   24MOL   O10922235   1.963   2.188   0.573  0.7609  0.2448 -0.0796
   24MOL   C11022236   1.998   2.102   0.467 -0.4077  0.3758 -0.9420
   24MOL   O11122237   1.982   2.138   0.348  0.0900  0.4542 -0.0788
   24MOL   C11222238   2.083   1.976   0.503  0.1304 -0.2938  0.2302
   24MOL   C11322239   2.190   1.930   0.397  0.1543 -0.4540  0.0157
   24MOL   C11422240   2.138   1.801   0.340  0.2615  0.2316  0.5235
   24MOL   C11522241   2.217   1.722   0.236  0.4826  0.7656 -0.8880
   24MOL   C11622242   2.246   1.802   0.109 -0.7258 -0.1049  0.1266
   24MOL   O11722243   2.363   1.828   0.093 -0.0282  0.3208 -0.3620
   24MOL   H11822244   2.340   3.000   7.744 -0.2273 -0.9126  0.0640
   24MOL   H11922245   2.468   2.951   0.087  0.5645  0.7039  1.8798
   24MOL   H12022246   2.238   2.890   0.163  1.6845 -0.4022 -0.8876
   24MOL   H12122247   2.211   3.054   0.193 -1.4355 -1.4723  1.4135
   24MOL   H12222248   2.456   2.948   0.334  0.5623  0.6042 -0.8373
   24MOL   H12322249   2.383   3.083   0.371  1.5340 -0.1053 -0.0328
   24MOL   H12422250   2.175   2.935   0.424 -0.8909 -0.4714  2.1794
   24MOL   H12522251   2.326   2.919   0.527 -2.0499 -0.3821  1.4325
   24MOL   H12622252   2.384   2.706   0.406 -0.8449 -2.5976  0.3469
   24MOL   H12722253   2.238   2.726   0.302 -0.6227  2.9937  0.3166
   24MOL   H12822254   2.107   2.696   0.498  0.2337 -1.7839  0.2338
   24MOL   H12922255   2.253   2.688   0.607  0.5868  0.8807 -1.0243
   24MOL   H13022256   2.312   2.484   0.477 -0.2496  0.1134 -0.0922
   24MOL   H13122257   2.194   2.501   0.364 -1.3553  1.0222  0.4498
   24MOL   H13222258   2.104   2.447   0.657  1.1065  0.0414  0.1956
   24MOL   H13322259   2.169   2.329   0.557  2.0277  1.0094 -1.1090
   24MOL   H13422260   1.933   2.519   0.494 -0.8970 -0.1085 -3.3020
   24MOL   H13522261   1.984   2.403   0.371  0.3082  0.0149 -0.2983
   24MOL   H13622262   1.802   2.304   0.485 -1.8202 -0.7830  0.7637
   24MOL   H13722263   1.847   2.344   0.634  1.3341  0.6054  0.2333
   24MOL   H13822264   2.129   2.002   0.598  0.3754  0.1242 -0.0009
   24MOL   H13922265   2.008   1.900   0.528  0.3159 -0.3513  0.6090
   24MOL   H14022266   2.282   1.903   0.448  1.7747  1.0333 -2.0367
   24MOL   H14122267   2.206   2.004   0.319  0.9263  1.1336  1.6225
   24MOL   H14222268   2.040   1.816   0.293 -0.1075 -2.4857  0.3876
   24MOL   H14322269   2.118   1.729   0.419 -0.9945 -0.4963 -0.4408
   24MOL   H14422270   2.153   1.636   0.217 -0.0161  0.7848  0.6445
   24MOL   H14522271   2.314   1.692   0.276 -0.3235  0.0254  0.5517
   24MOL   O14622272   2.138   1.858   0.048 -0.1912 -0.2651  0.0901
   24MOL   C14722273   2.155   1.922   7.688 -0.0630  0.5720  0.2621
   24MOL   C14822274   2.028   1.999   7.658  0.2623 -0.7000 -0.0694
   24MOL   C14922275   2.035   2.130   7.740  0.1452  0.3104 -0.0273
   24MOL   C15022276   1.900   2.207   7.733  1.2006 -0.4524  0.6905
   24MOL   C15122277   1.905   2.340   0.045  0.1239 -0.3141 -0.9252
   24MOL   C15222278   1.771   2.412   0.046  0.5189 -0.1210 -0.5293
   24MOL   C15322279   1.787   2.539   0.142 -0.1138 -0.2457 -0.4720
   24MOL   C15422280   1.864   2.656   0.072  0.6672 -0.8639 -0.3936
   24MOL   C15522281   1.883   2.781   0.157 -1.0398  0.0964 -0.7742
   24MOL   C15622282   1.943   2.895   0.085 -0.5597 -0.0724  0.1783
   24MOL   O15722283   1.986   2.994   0.172 -0.5055  0.4233 -0.2828
   24MOL   C15822284   1.903   3.105   0.201 -0.2566  0.0379  0.8461
   24MOL   O15922285   1.798   3.134   0.146 -0.3748 -0.5882 -0.2275
   24MOL   C16022286   1.949   3.195   0.311  0.3071  0.2448  0.6031
   24MOL   C16122287   1.875   3.173   0.446  0.5948 -0.1422  0.0443
   24MOL   C16222288   1.750   3.268   0.463  0.4628 -1.2357  0.0820
   24MOL   C16322289   1.707   3.290   0.608  0.2013  0.1667 -0.4113
   24MOL   C16422290   1.621   3.181   0.670  0.0720 -0.3172 -0.3728
   24MOL   O16522291   1.498   3.184   0.681  0.3537  0.7493  0.0936
   24MOL   H16622292   2.232   1.999   7.694 -0.2182  0.7984 -0.6053
   24MOL   H16722293   2.175   1.857   7.603 -1.5813  0.0036  0.3310
   24MOL   H16822294   1.932   1.953   7.682  0.2412 -0.7861 -0.3186
   24MOL   H16922295   2.014   2.017   7.551 -1.4793 -1.6315 -0.0145
   24MOL   H17022296   2.069   2.115   0.077 -2.2633  0.8587  0.8888
   24MOL   H17122297   2.116   2.194   7.705 -1.9704  2.7383 -0.6453
   24MOL   H17222298   1.821   2.136   7.757  0.6244 -0.4260 -1.0487
   24MOL   H17322299   1.881   2.228   7.628  1.5632  2.0348  1.1005
   24MOL   H17422300   1.989   2.402   0.013 -1.0642  1.5649 -0.5060
   24MOL   H17522301   1.923   2.314   0.150  0.7012  0.8710 -0.7168
   24MOL   H17622302   1.692   2.352   0.090 -2.6735  1.2357 -4.1666
   24MOL   H17722303   1.729   2.442   7.715  1.0531 -2.6493 -1.5969
   24MOL   H17822304   1.837   2.516   0.236  0.2173  0.4421 -0.4777
   24MOL   H17922305   1.687   2.568   0.175 -0.5689 -2.4515  0.1493
   24MOL   H18022306   1.815   2.681   7.742  0.8246 -0.1616 -0.2911
   24MOL   H18122307   1.959   2.625   0.030  1.4339 -0.2613  0.8921
   24MOL   H18222308   1.796   2.819   0.210 -1.3738  0.7259 -1.7552
   24MOL   H18322309   1.961   2.749   0.226 -0.3233  3.4778  0.0462
   24MOL   H18422310   1.861   2.935   0.026 -1.0739  1.0438  1.6240
   24MOL   H18522311   2.031   2.870   0.027 -1.5697  2.0203 -2.3650
   24MOL   H18622312   2.057   3.180   0.323  0.0743 -0.6931  1.5442
   24MOL   H18722313   1.950   3.298   0.275  0.3538  0.0157 -0.0773
   24MOL   H18822314   1.949   3.191   0.524  0.6666 -1.0467  0.1910
   24MOL   H18922315   1.832   3.074   0.460 -0.3182  0.0879 -1.0935
   24MOL   H19022316   1.672   3.223   0.402  0.4892 -0.7310 -0.3313
   24MOL   H19122317   1.768   3.366   0.417 -0.0447 -2.5009 -2.9547
   24MOL   H19222318   1.654   3.384   0.621 -0.9312 -0.4021 -0.8076
   24MOL   H19322319   1.797   3.301   0.668 -0.6467  0.6090  0.7907
   24MOL   O19422320   1.697   3.075   0.711 -0.1636 -0.5661  0.7083
   24MOL   C19522321   1.636   2.954   0.758 -0.3754  0.3130  0.4678
   24MOL   C19622322   1.593   2.858   0.645  0.3050 -0.0310  0.8833
   24MOL   C19722323   1.701   2.767   0.587 -0.1308 -0.5663 -0.5687
   24MOL   C19822324   1.659   2.666   0.475  0.0358 -1.2307 -0.4189
   24MOL   C19922325   1.557   2.573   0.514 -0.4585  0.1226 -0.1389
   24MOL   C20022326   1.512   2.476   0.405  0.8292 -0.1242  0.3331
   24MOL   C20122327   1.399   2.385   0.462 -0.1965 -0.0260 -0.9916
   24MOL   C20222328   1.362   2.265   0.376 -0.5002 -0.2821 -0.2578
   24MOL   C20322329   1.254   2.169   0.439 -0.1996 -0.4918 -0.2441
   24MOL   C20422330   1.120   2.238   0.480 -0.1737  0.3697  0.3581
   24MOL   O20522331   1.039   2.256   0.364  0.3291  0.5919  0.2749
   24MOL   C20622332   0.936   2.165   0.336 -0.6495  0.3687 -0.0967
   24MOL   O20722333   0.917   2.055   0.393  0.0541  0.4590  0.2789
   24MOL   C20822334   0.839   2.220   0.232  0.2464 -1.0402  0.0496
   24MOL   C20922335   0.725   2.120   0.198  0.6279  0.4093  0.3935
   24MOL   C21022336   0.634   2.174   0.089 -0.8488  0.0359 -0.4621
   24MOL   C21122337   0.495   2.110   0.083  0.9193  0.5303 -0.0947
   24MOL   C21222338   0.404   2.147   0.197 -0.0480  0.6391  0.2621
   24MOL   O21322339   0.429   2.236   0.274 -0.2797 -0.5105  0.7593
   24MOL   H21422340   1.708   2.911   0.828  1.6175  2.3519 -0.2894
   24MOL   H21522341   1.554   2.978   0.826 -0.7659 -1.7703  0.7711
   24MOL   H21622342   1.561   2.918   0.560  1.2626 -0.7159  0.0292
   24MOL   H21722343   1.512   2.804   0.693  0.5532 -1.5255 -0.3641
   24MOL   H21822344   1.778   2.836   0.552 -0.8484 -0.0347 -1.1020
   24MOL   H21922345   1.755   2.709   0.662  0.3713 -0.2706 -0.7005
   24MOL   H22022346   1.753   2.623   0.440  0.7788  0.8367 -1.0080
   24MOL   H22122347   1.618   2.719   0.389  0.2783 -2.1032 -1.0787
   24MOL   H22222348   1.469   2.626   0.552 -0.4269 -1.4796  2.2446
   24MOL   H22322349   1.601   2.509   0.590  0.5972 -0.6147 -1.3650
   24MOL   H22422350   1.597   2.421   0.367  0.2947  0.2762 -1.4945
   24MOL   H22522351   1.478   2.544   0.327 -1.0409  0.5329  1.6726
   24MOL   H22622352   1.307   2.444   0.466  0.0399  0.2755  0.2106
   24MOL   H22722353   1.431   2.348   0.560 -0.8047  1.9329 -0.0220
   24MOL   H22822354   1.453   2.208   0.355  0.6011  0.8507  1.2900
   24MOL   H22922355   1.321   2.299   0.282 -0.6781 -1.4249 -0.6001
   24MOL   H23022356   1.239   2.086   0.369  0.3486 -0.2699 -0.6336
   24MOL   H23122357   1.300   2.126   0.527 -0.1818  0.7195  0.3542
   24MOL   H23222358   1.150   2.335   0.519  1.1276  0.2499 -0.3035
   24MOL   H23322359   1.080   2.179   0.563  1.3595  0.2744  1.0357
   24MOL   H23422360   0.802   2.317   0.263 -0.2072 -1.4832  0.9129
   24MOL   H23522361   0.890   2.249   0.140 -0.8140 -0.1179 -0.2572
   24MOL   H23622362   0.661   2.098   0.284  1.3555 -0.9476  0.6022
   24MOL   H23722363   0.765   2.021   0.176 -0.5961  0.3972 -1.8113
   24MOL   H23822364   0.675   2.169   7.753 -0.5551 -0.9599 -0.2946
   24MOL   H23922365   0.636   2.282   0.105  0.3762 -0.1630  0.8964
   24MOL   H24022366   0.495   2.002   0.068 -0.9579  0.2079  1.8917
   24MOL   H24122367   0.448   2.136   7.753  1.1495  1.0059 -0.0775
   24MOL   O24222368   0.294   2.072   0.202  0.2088 -0.5386  0.2052
   24MOL   C24322369   0.213   2.073   0.315  0.0547  0.8130  0.2909
   24MOL   C24422370   0.251   1.953   0.406 -0.1739 -0.1991 -0.1696
   24MOL   C24522371   0.127   1.912   0.487 -0.5421 -0.5556 -0.4022
   24MOL   C24622372   0.159   1.785   0.572  0.3226 -0.4994  0.2818
   24MOL   C24722373   0.275   1.777   0.660  0.5203  0.2194  0.0306
   24MOL   C24822374   0.263   1.697   0.785 -0.2435 -0.2990 -0.5063
   24MOL   C24922375   0.400   1.647   0.841  0.3736  0.2496 -0.5138
   24MOL   C25022376   0.394   1.574   0.979 -0.5747 -0.2168  0.2118
   24MOL   C25122377   0.529   1.574   1.046 -0.0875 -0.3781  0.3532
   24MOL   C25222378   0.538   1.488   1.176  0.4915 -0.0528 -0.1110
   24MOL   O25322379   0.656   1.510   1.246  0.3774 -0.1808  0.3230
   24MOL   C25422380   0.769   1.444   1.209  0.3170  0.2137 -0.0996
   24MOL   O25522381   0.782   1.365   1.115 -0.6579  0.5967  0.1633
   24MOL   C25622382   0.886   1.501   1.297  0.0007  0.6820  0.4179
   24MOL   C25722383   0.981   1.596   1.215 -0.0090 -0.1989 -0.4189
   24MOL   C25822384   1.060   1.518   1.103 -0.2081  0.8417 -0.1244
   24MOL   C25922385   1.179   1.593   1.040 -0.3466  0.0385 -0.0129
   24MOL   C26022386   1.282   1.635   1.146  0.7338  0.1028  0.5968
   24MOL   O26122387   1.272   1.747   1.188  0.4590 -0.0352  0.2977
   24MOL   H26222388   0.206   2.165   0.373 -0.8777  0.9921 -0.1104
   24MOL   H26322389   0.115   2.057   0.272  0.9481  0.0005 -1.5178
   24MOL   H26422390   0.332   1.971   0.476  2.0201  0.8221 -2.8819
   24MOL   H26522391   0.294   1.874   0.345  1.1055 -0.0686  0.5460
   24MOL   H26622392   0.118   1.989   0.563 -0.9394  0.0840 -1.0970
   24MOL   H26722393   0.037   1.897   0.428  0.4933 -3.1451 -1.4302
   24MOL   H26822394   0.172   1.698   0.506 -1.0388 -0.2834 -0.2964
   24MOL   H26922395   0.073   1.765   0.635  0.3976 -1.4712  0.0883
   24MOL   H27022396   0.285   1.883   0.683 -0.2614 -0.1104  1.9902
   24MOL   H27122397   0.366   1.742   0.613 -0.4277 -3.2435  0.6559
   24MOL   H27222398   0.194   1.613   0.788 -0.0211 -0.6070 -3.0862
   24MOL   H27322399   0.232   1.770   0.860 -1.4741 -1.6237  0.2753
   24MOL   H27422400   0.467   1.732   0.845  0.6815 -0.0241  0.1542
   24MOL   H27522401   0.439   1.573   0.771 -1.8583  0.3373 -1.9275
   24MOL   H27622402   0.359   1.473   0.958 -1.3901  0.1624 -0.3001
   24MOL   H27722403   0.311   1.600   1.045 -0.2361  0.4056  0.3960
   24MOL   H27822404   0.610   1.552   0.977  1.2704 -0.8844  2.0592
   24MOL   H27922405   0.552   1.675   1.078 -0.5781 -0.7450  1.9140
   24MOL   H28022406   0.532   1.387   1.135  1.4938  0.4314 -1.4812
   24MOL   H28122407   0.459   1.515   1.246  1.6524 -0.8930  1.5734
   24MOL   H28222408   0.837   1.557   1.377  1.8083 -0.9548  2.7401
   24MOL   H28322409   0.931   1.406   1.326  1.2835  1.2334  0.2734
   24MOL   H28422410   1.047   1.655   1.279  1.3643 -0.5128 -1.5223
   24MOL   H28522411   0.919   1.671   1.165  1.2863  0.4888 -1.0423
   24MOL   H28622412   0.986   1.485   1.029  1.4390  0.5738 -1.6949
   24MOL   H28722413   1.095   1.423   1.143  1.0775  1.8114  1.0958
   24MOL   H28822414   1.147   1.685   0.990 -0.2896 -1.9255 -3.8545
   24MOL   H28922415   1.234   1.548   0.957 -1.3807  1.5729 -1.5661
   24MOL   O29022416   1.372   1.539   1.177 -0.2289 -0.7695  0.8195
   24MOL   C29122417   1.484   1.564   1.264 -0.2301  0.7841  0.1294
   24MOL   C29222418   1.475   1.482   1.392  0.0942  0.1156  0.2893
   24MOL   C29322419   1.598   1.498   1.473  0.1670  0.1635  0.2737
   24MOL   C29422420   1.616   1.381   1.575 -0.4621 -0.3251 -0.2654
   24MOL   C29522421   1.730   1.404   1.672  0.1251  0.2356 -0.2707
   24MOL   C29622422   1.788   1.279   1.733 -0.1024  0.4097 -0.2793
   24MOL   C29722423   1.848   1.297   1.878 -0.7443  0.2640 -1.0130
   24MOL   C29822424   1.883   1.171   1.959  0.2843  0.1468  0.5846
   24MOL   C29922425   1.960   1.211   2.088 -0.2124  0.1469  0.0653
   24MOL   C30022426   2.003   1.093   2.164 -0.5304  0.2619  0.0429
   24MOL   O30122427   1.905   0.988   2.186 -0.5995 -1.2221  0.0823
   24MOL   C30222428   1.845   0.956   2.303  0.6178  0.4357 -0.2322
   24MOL   O30322429   1.872   1.018   2.407  0.1416  0.0355  0.1487
   24MOL   C30422430   1.762   0.830   2.297  0.1654 -0.0973  0.0649
   24MOL   C30522431   1.757   0.752   2.165  0.0478  0.1689 -0.0912
   24MOL   C30622432   1.685   0.808   2.044  0.3505  0.8529 -0.5542
   24MOL   C30722433   1.674   0.706   1.932 -0.1668  0.2733  0.1663
   24MOL   C30822434   1.672   0.768   1.798 -0.7208  0.1287  0.1209
   24MOL   O30922435   1.716   0.705   1.704 -0.4906 -0.1359 -0.0504
   24MOL   H31022436   1.574   1.537   1.208  0.5242 -0.2906  1.8361
   24MOL   H31122437   1.493   1.668   1.294 -0.6430  1.0771 -0.7483
   24MOL   H31222438   1.467   1.376   1.367  1.3368 -0.4059  2.0401
   24MOL   H31322439   1.389   1.498   1.456 -0.1485  0.2590 -0.0693
   24MOL   H31422440   1.679   1.517   1.402 -0.0787 -2.1030 -0.6360
   24MOL   H31522441   1.585   1.596   1.520 -2.4637  0.1446 -0.3269
   24MOL   H31622442   1.651   1.296   1.516  0.7729 -0.3615  0.5077
   24MOL   H31722443   1.522   1.352   1.623 -1.0844  0.4536 -0.9863
   24MOL   H31822444   1.692   1.480   1.741  2.5114  2.0324 -0.9086
   24MOL   H31922445   1.804   1.460   1.615 -0.6708  2.6193  0.9613
   24MOL   H32022446   1.872   1.250   1.670  0.9962  2.3319  0.2455
   24MOL   H32122447   1.720   1.194   1.730 -0.9859  1.1279 -0.8003
   24MOL   H32222448   1.784   1.367   1.932  1.1554  2.6067 -1.6900
   24MOL   H32322449   1.949   1.332   1.856  0.6108  0.5569  5.0049
   24MOL   H32422450   1.937   1.098   1.899 -2.6261 -1.1202 -0.6012
   24MOL   H32522451   1.784   1.131   1.986  0.0965  0.0712 -0.2189
   24MOL   H32622452   2.044   1.274   2.057 -1.4553  1.8521  0.0997
   24MOL   H32722453   1.909   1.268   2.166  0.1313  0.5076  0.0316
   24MOL   H32822454   2.060   1.127   2.251 -1.6407  2.0518  0.0834
   24MOL   H32922455   2.077   1.049   2.097 -1.2878 -1.7906  0.5217
   24MOL   H33022456   1.790   0.760   2.375 -1.0168  0.0637  0.6488
   24MOL   H33122457   1.661   0.867   2.319  0.8309  1.7386  0.1493
   24MOL   H33222458   1.707   0.661   2.198 -0.1940  0.8850  1.5926
   24MOL   H33322459   1.853   0.714   2.130 -0.0741 -1.2653  1.0639
   24MOL   H33422460   1.729   0.902   2.011 -0.5214  1.5811  0.3323
   24MOL   H33522461   1.590   0.845   2.082  0.1651  0.6377 -0.8057
   24MOL   H33622462   1.591   0.637   1.947  0.6143 -0.0919  3.1461
   24MOL   H33722463   1.762   0.642   1.926 -1.4039 -1.2671 -2.0124
   24MOL   O33822464   1.601   0.883   1.789 -0.7304 -0.0413  0.3677
   24MOL   C33922465   1.576   0.949   1.668 -0.0664  0.2242  0.5959
   24MOL   C34022466   1.448   1.040   1.683  0.2936  0.4189  0.1471
   24MOL   C34122467   1.393   1.106   1.549 -0.2601  0.0629  0.2532
   24MOL   C34222468   1.257   1.172   1.574  0.3475 -0.2106 -0.6063
   24MOL   C34322469   1.138   1.071   1.577 -0.9710 -0.4942 -0.0297
   24MOL   C34422470   1.001   1.133   1.578  0.0659  0.0645 -0.4602
   24MOL   C34522471   0.887   1.036   1.579  1.0654  0.0849  0.6988
   24MOL   C34622472   0.753   1.109   1.570 -0.1854  0.0317 -0.1496
   24MOL   C34722473   0.724   1.133   1.418  0.6785 -0.6687  0.3015
   24MOL   C34822474   0.591   1.206   1.393 -0.1754 -0.6828 -0.4838
   24MOL   O34922475   0.588   1.315   1.473 -0.6079  0.1545 -0.2892
   24MOL   C35022476   0.470   1.380   1.489  0.1168  0.0482  0.3519
   24MOL   O35122477   0.364   1.348   1.434 -0.0095 -0.2536 -0.3367
   24MOL   C35222478   0.491   1.510   1.569 -0.5797 -0.3174  0.7490
   24MOL   C35322479   0.405   1.629   1.526  0.2941 -1.0114 -0.0552
   24MOL   C35422480   0.452   1.765   1.588 -0.1216 -0.1526  0.9732
   24MOL   C35522481   0.363   1.888   1.539 -0.3610  0.0528  0.0593
   24MOL   C35622482   0.214   1.869   1.572 -0.3631  0.7043  0.4101
   24MOL   O35722483   0.127   1.903   1.490 -0.2694  0.1816 -0.5384
   24MOL   H35822484   1.654   1.022   1.646  1.9359 -1.6756  1.2645
   24MOL   H35922485   1.553   0.877   1.590 -1.7768 -0.0733  1.3399
   24MOL   H36022486   1.467   1.114   1.761 -0.3477 -0.7281  1.4017
   24MOL   H36122487   1.370   0.977   1.725 -2.5108  3.1645 -0.6760
   24MOL   H36222488   1.465   1.178   1.512 -0.2003  0.5348  1.2689
   24MOL   H36322489   1.385   1.027   1.474  2.7583 -2.8310  2.7720
   24MOL   H36422490   1.249   1.238   1.488 -0.4968 -0.0959 -0.4432
   24MOL   H36522491   1.256   1.220   1.672  1.0229 -0.6568 -0.3784
   24MOL   H36622492   1.157   0.995   1.653 -0.3816  0.3547  0.6844
   24MOL   H36722493   1.142   1.009   1.488 -1.8121 -2.2496  1.1371
   24MOL   H36822494   0.995   1.203   1.496  0.3016  1.7290  0.9090
   24MOL   H36922495   0.980   1.192   1.668 -0.8064  0.3854 -0.8685
   24MOL   H37022496   0.896   0.990   1.677 -0.6428 -1.1072  0.3073
   24MOL   H37122497   0.905   0.967   1.497  0.8168  2.2938 -1.2895
   24MOL   H37222498   0.742   1.202   1.626 -0.2925 -0.0432 -0.0450
   24MOL   H37322499   0.674   1.045   1.610  0.0329  1.3320  2.4456
   24MOL   H37422500   0.806   1.194   1.381  0.4629 -2.1202 -2.6568
   24MOL   H37522501   0.707   1.042   1.360 -1.0804 -0.2561  0.1330
   24MOL   H37622502   0.500   1.152   1.419 -0.1945 -0.8936 -0.9792
   24MOL   H37722503   0.591   1.237   1.288 -1.4787  1.5952  0.1638
   24MOL   H37822504   0.475   1.503   1.676 -1.0171  0.4334  0.7421
   24MOL   H37922505   0.598   1.533   1.569 -1.0237  2.0869  2.9846
   24MOL   H38022506   0.300   1.599   1.525 -0.1578  0.5086 -1.4052
   24MOL   H38122507   0.426   1.652   1.422 -1.3769  3.5476  0.4911
   24MOL   H38222508   0.554   1.774   1.549 -0.4878 -0.7040 -0.1371
   24MOL   H38322509   0.454   1.756   1.696  1.4465 -1.1585  0.8663
   24MOL   H38422510   0.364   1.892   1.430  2.7496 -0.1349  0.0493
   24MOL   H38522511   0.394   1.983   1.582  3.2206 -0.2458 -1.6559
   24MOL   O38622512   0.192   1.816   1.692 -0.0069 -0.1708 -0.8613
   24MOL   C38722513   0.058   1.801   1.738  0.3904 -0.1097 -0.1720
   24MOL   C38822514   0.058   1.789   1.895 -0.1656  0.4364  0.1782
   24MOL   C38922515   7.683   1.775   1.949 -0.3786  0.3092  0.9555
   24MOL   C39022516   7.664   1.790   2.100 -0.0057 -0.0093 -0.0844
   24MOL   C39122517   7.755   1.705   2.181 -0.6890  0.9483  0.2872
   24MOL   C39222518   7.761   1.714   2.330 -0.4418  0.3235 -0.5482
   24MOL   C39322519   0.121   1.644   2.387  0.3406  0.1023  0.4076
   24MOL   C39422520   0.091   1.495   2.412  0.4688  0.5345 -0.1317
   24MOL   C39522521   0.191   1.422   2.498 -0.2321  0.5170  0.8833
   24MOL   C39622522   0.156   1.272   2.525  0.2354  0.4724 -0.0678
   24MOL   O39722523   0.157   1.204   2.394 -0.7448 -0.5708  0.3467
   24MOL   C39822524   0.035   1.169   2.344 -0.5438 -0.3245 -0.1327
   24MOL   O39922525   7.691   1.180   2.397 -0.1375  0.6901  0.5994
   24MOL   C40022526   0.054   1.083   2.220 -0.0232 -0.5810 -0.0997
   24MOL   C40122527   7.706   0.976   2.199  0.6367  0.6186  0.5167
   24MOL   C40222528   7.741   0.864   2.101  0.2252  0.0190 -0.1320
   24MOL   C40322529   0.045   0.734   2.152 -0.3342  0.3145  0.2733
   24MOL   C40422530   0.173   0.742   2.236  0.1959 -0.2592 -0.1690
   24MOL   O40522531   0.276   0.684   2.199  0.0584 -0.5046  0.1023
   24MOL   H40622532   7.760   1.886   1.710  0.1934 -0.0359  0.4774
   24MOL   H40722533   0.016   1.711   1.692 -0.8040 -0.6495  1.9132
   24MOL   H40822534   0.107   1.878   1.935  0.1909  0.0284  0.6714
   24MOL   H40922535   0.103   1.694   1.925  0.4650  1.1338  1.5113
   24MOL   H41022536   7.617   1.843   1.895  0.2133 -0.0538 -0.2513
   24MOL   H41122537   7.636   1.682   1.918 -0.0979 -0.2583  2.1983
   24MOL   H41222538   7.560   1.765   2.123 -0.5793  2.4139  0.1817
   24MOL   H41322539   7.678   1.893   2.133  0.6803 -0.4720  1.1010
   24MOL   H41422540   0.089   1.735   2.146  0.1472  0.0275  1.8127
   24MOL   H41522541   7.740   1.606   2.138 -3.3238  2.0324 -1.3897
   24MOL   H41622542   7.664   1.682   2.368  0.3272 -4.7550 -2.4011
   24MOL   H41722543   0.016   1.820   2.344 -0.1301  0.3133 -0.9136
   24MOL   H41822544   0.126   1.693   2.484 -2.2859  1.5067 -0.1244
   24MOL   H41922545   0.209   1.655   2.322 -1.2382 -0.0299 -1.8031
   24MOL   H42022546   0.073   1.447   2.316 -0.4714  0.3672  0.1221
   24MOL   H42122547   7.752   1.496   2.447  0.5492 -0.5026  0.1548
   24MOL   H42222548   0.281   1.428   2.437 -0.3896 -0.5036  0.5505
   24MOL   H42322549   0.233   1.489   2.573  1.9278 -0.3032  0.4688
   24MOL   H42422550   0.065   1.274   2.586 -0.9454  0.4431 -1.8040
   24MOL   H42522551   0.232   1.224   2.587 -0.9229 -1.7796 -0.3468
   24MOL   H42622552   0.050   1.153   2.136  2.4174  0.6210  0.7660
   24MOL   H42722553   0.150   1.033   2.228  1.1295  1.7229  0.7134
   24MOL   H42822554   7.618   1.032   2.168  0.4202 -0.3930 -0.7209
   24MOL   H42922555   7.692   0.926   2.295  1.9020  0.7753  0.8003
   24MOL   H43022556   0.038   0.903   2.020 -0.5200 -0.4592 -0.9316
   24MOL   H43122557   7.655   0.836   2.041  0.9079  0.0398 -1.1479
   24MOL   H43222558   0.067   0.678   2.061 -3.1743 -1.6538  0.7320
   24MOL   H43322559   7.743   0.662   2.200  0.8961 -0.7944  0.3464
   24MOL   O43422560   0.152   0.806   2.353 -0.0102 -0.0143 -0.0219
   24MOL   C43522561   0.266   0.836   2.432 -0.4171 -0.0749 -0.4080
   24MOL   C43622562   0.230   0.900   2.570 -0.0475  0.1769  0.2337
   24MOL   C43722563   0.344   0.941   2.662 -0.4610  0.9981 -0.0328
   24MOL   C43822564   0.290   1.001   2.796 -0.2030  0.6230 -0.2316
   24MOL   C43922565   0.399   1.059   2.886 -0.1703  0.3623 -0.4879
   24MOL   C44022566   0.495   0.945   2.939  0.8194  0.7801 -0.2589
   24MOL   C44122567   0.614   0.988   3.023  0.4822  0.1911  1.4964
   24MOL   C44222568   0.693   0.875   3.088 -0.7671  0.0337 -0.6275
   24MOL   C44322569   0.795   0.930   3.194 -0.5761  0.0833  0.1443
   24MOL   C44422570   0.927   0.957   3.121  0.9409  0.0261 -0.1380
   24MOL   O44522571   1.041   0.991   3.215  0.1639  0.3426  0.1960
   24MOL   C44622572   1.173   0.986   3.176  0.7655 -0.4459 -0.9756
   24MOL   O44722573   1.208   0.955   3.063 -0.0104  0.1171  0.1649
   24MOL   C44822574   1.270   1.010   3.289 -0.0450  0.8234 -0.1307
   24MOL   C44922575   1.219   0.944   3.418 -0.0371  0.1365 -0.2779
   24MOL   C45022576   1.227   0.788   3.416 -0.5271 -0.1112  0.7836
   24MOL   C45122577   1.181   0.713   3.536 -0.2992 -0.5433  0.2576
   24MOL   C45222578   1.165   0.566   3.505  0.2235 -0.1163  0.0734
   24MOL   O45322579   1.262   0.492   3.525  0.1856  0.3774 -0.0874
   24MOL   H45422580   0.335   0.755   2.456  0.7208  1.6195  2.3057
   24MOL   H45522581   0.324   0.909   2.376 -1.0427  0.3356 -0.5187
   24MOL   H45622582   0.171   0.816   2.606 -0.2554  0.7428  1.2238
   24MOL   H45722583   0.155   0.979   2.566 -0.7877 -0.5058  0.5103
   24MOL   H45822584   0.405   0.855   2.690 -0.8985  0.9789  0.8837
   24MOL   H45922585   0.415   1.002   2.606 -0.7138 -0.8622 -2.4561
   24MOL   H46022586   0.234   0.919   2.839  0.2789  0.5229  0.2079
   24MOL   H46122587   0.214   1.075   2.772  0.2995  0.5660 -2.0763
   24MOL   H46222588   0.355   1.094   2.979  0.8957 -0.4514  0.3445
   24MOL   H46322589   0.462   1.135   2.839  0.5085 -0.2915 -0.6514
   24MOL   H46422590   0.549   0.899   2.856 -2.1539 -3.5932  0.0527
   24MOL   H46522591   0.449   0.867   2.999  1.3315  1.5961  1.2405
   24MOL   H46622592   0.570   1.057   3.095 -0.0488  0.7681  0.6255
   24MOL   H46722593   0.677   1.040   2.951 -2.6153 -1.9060 -2.9437
   24MOL   H46822594   0.754   0.810   3.025  1.2723  0.8052  0.5222
   24MOL   H46922595   0.628   0.799   3.133  1.4300 -1.8400 -0.5244
   24MOL   H47022596   0.756   1.027   3.227  1.5191  0.9162  0.2255
   24MOL   H47122597   0.818   0.870   3.282  1.0001  1.4569  0.6927
   24MOL   H47222598   0.921   1.048   3.062  3.1283  1.1759  1.3335
   24MOL   H47322599   0.962   0.881   3.050 -1.0052  0.1581 -1.2613
   24MOL   H47422600   1.374   0.982   3.275 -0.2546  0.3699 -0.7782
   24MOL   H47522601   1.281   1.113   3.325  0.9226 -0.2103  2.6838
   24MOL   H47622602   1.117   0.981   3.426  1.0728  2.8937  2.2497
   24MOL   H47722603   1.269   0.986   3.505  0.7196  0.2923 -0.7862
   24MOL   H47822604   1.332   0.765   3.400 -0.3602  1.8538 -1.3080
   24MOL   H47922605   1.157   0.761   3.337 -1.5996  0.2077  1.6213
   24MOL   H48022606   1.082   0.746   3.566  0.2843  1.6657 -0.1725
   24MOL   H48122607   1.246   0.735   3.621 -1.6263  1.7704  0.7031
   24MOL   O48222608   1.039   0.531   3.457 -0.2210  0.3322 -0.2240
   24MOL   C48322609   1.021   0.401   3.409 -0.4434  0.3735 -0.8943
   24MOL   C48422610   0.867   0.388   3.404 -0.4807  0.4590 -0.0781
   24MOL   C48522611   0.796   0.383   3.538  0.2170 -0.8524  0.1890
   24MOL   C48622612   0.648   0.364   3.520  0.2258  0.8465 -0.1830
   24MOL   C48722613   0.570   0.350   3.658  0.3528 -0.6602  0.6893
   24MOL   C48822614   0.422   0.344   3.627 -0.5970 -0.7062  0.7660
   24MOL   C48922615   0.354   0.285   3.756 -0.1190  0.1304 -0.4145
   24MOL   C49022616   0.207   0.313   3.748  0.1871  0.0803 -0.1504
   24MOL   C49122617   0.123   0.254   3.863  0.0207  0.3015 -0.6871
   24MOL   C49222618   7.739   0.274   3.855  0.6623  0.6029  0.0334
   24MOL   O49322619   7.679   0.186   3.750 -0.3507 -0.0398 -0.3783
   24MOL   C49422620   7.552   0.208   3.708 -0.1090 -0.1128  0.6738
   24MOL   O49522621   7.488   0.307   3.745 -0.5390  0.3026 -0.8023
   24MOL   C49622622   7.509   0.108   3.596 -0.1287 -0.3694  1.2144
   24MOL   C49722623   7.364   0.077   3.593 -0.0894  0.6549  0.1815
   24MOL   C49822624   7.275   0.169   3.507 -0.3802 -0.2300 -0.1967
   24MOL   C49922625   7.284   0.124   3.359  0.3102 -0.0935 -0.5398
   24MOL   C50022626   7.179   0.181   3.266 -0.0499  0.5063  0.4342
   24MOL   O50122627   7.059   0.173   3.287  0.2594 -0.6822 -0.3109
   24MOL   H50222628   1.065   0.391   3.309  0.3972 -1.2423 -0.3835
   24MOL   H50322629   1.056   0.323   3.477 -0.5444  0.6227 -0.5596
   24MOL   H50422630   0.862   0.291   3.354  0.5601  0.5546 -0.3730
   24MOL   H50522631   0.823   0.458   3.333 -1.8453 -0.7976 -0.5058
   24MOL   H50622632   0.836   0.305   3.603  3.5946 -0.1287 -0.9073
   24MOL   H50722633   0.818   0.478   3.586 -0.3873 -0.5211 -0.1890
   24MOL   H50822634   0.629   0.281   3.452 -0.4233  0.5133  0.3972
   24MOL   H50922635   0.608   0.450   3.467  1.4052 -0.2591 -2.9776
   24MOL   H51022636   0.591   0.434   3.723  0.3306 -0.9250  1.0364
   24MOL   H51122637   0.615   0.268   3.714  0.1615 -1.1672  0.1119
   24MOL   H51222638   0.399   0.276   3.546 -0.0697 -0.6994  0.6079
   24MOL   H51322639   0.391   0.445   3.601  0.6154 -0.3328  0.7241
   24MOL   H51422640   0.400   0.328   3.844  2.6714 -0.0651 -1.7204
   24MOL   H51522641   0.373   0.178   3.761 -1.4244 -0.0331  1.7290
   24MOL   H51622642   0.172   0.271   3.654  1.2669 -0.8147 -0.1710
   24MOL   H51722643   0.190   0.418   3.727  0.4637 -0.4644 -3.2658
   24MOL   H51822644   0.145   0.148   3.877  0.9114  0.5158 -0.4481
   24MOL   H51922645   0.160   0.296   3.957  0.3492 -0.4590 -0.4745
   24MOL   H52022646   7.732   0.377   3.819  2.1716  0.5656 -0.3787
   24MOL   H52122647   7.693   0.266   3.953 -0.6210 -1.2707 -0.6985
   24MOL   H52222648   7.538   0.142   3.497  1.9382 -2.5991  0.9849
   24MOL   H52322649   7.560   0.013   3.613  0.7760 -0.3241 -1.0961
   24MOL   H52422650   7.319   0.066   3.692 -1.5125  1.6044 -0.3455
   24MOL   H52522651   7.348   7.741   3.555  0.2514  0.7646 -0.2583
   24MOL   H52622652   7.307   0.273   3.514 -2.8930  0.7011 -1.9492
   24MOL   H52722653   7.172   0.163   3.543 -0.5660 -1.0531 -0.8501
   24MOL   H52822654   7.260   0.018   3.355 -1.4444  0.3320 -1.5452
   24MOL   H52922655   7.385   0.138   3.319  0.7956  0.5784  0.8785
   24MOL   O53022656   7.235   0.252   3.169 -0.0110 -0.0486  0.2755
   24MOL   C53122657   7.163   0.342   3.099  0.4072  0.1638  0.3410
   24MOL   C53222658   7.124   0.282   2.966 -0.8700  0.1932  1.1652
   24MOL   C53322659   7.245   0.256   2.880  0.4110 -0.0075  0.0471
   24MOL   C53422660   7.228   0.204   2.732 -0.0803 -0.2475 -0.2080
   24MOL   C53522661   7.360   0.199   2.658 -0.7027  0.5077  0.2894
   24MOL   C53622662   7.461   0.115   2.736  0.3547 -0.2098 -0.3727
   24MOL   C53722663   7.582   0.083   2.645 -0.3947 -0.1951 -0.1304
   24MOL   C53822664   7.690   0.011   2.725 -0.2452  0.2485  0.5171
   24MOL   C53922665   7.646   7.635   2.773 -0.5381  0.1596 -0.0406
   24MOL   C54022666   7.742   7.592   2.877 -0.3631 -0.2537 -0.0627
   24MOL   O54122667   7.735   7.650   3.007 -0.2327  0.3312 -0.0111
   24MOL   C54222668   0.065   7.723   3.063 -0.2383 -0.0034 -0.6598
   24MOL   O54322669   0.172   0.007   3.013  0.1127 -0.5110 -0.6256
   24MOL   C54422670   0.016   0.010   3.204 -0.1515  0.9600 -0.3527
   24MOL   C54522671   7.688   0.127   3.183 -0.3026  0.2743 -0.6220
   24MOL   C54622672   7.751   0.263   3.141  0.0336 -0.7546  0.5704
   24MOL   C54722673   7.642   0.363   3.123 -0.1045 -0.4965  0.4643
   24MOL   C54822674   7.703   0.499   3.150 -0.8531 -0.1902  0.4782
   24MOL   O54922675   7.731   0.531   3.265 -1.1378 -0.0924 -0.2211
   24MOL   H55022676   7.080   0.382   3.156 -1.1451 -2.6899  0.1540
   24MOL   H55122677   7.237   0.421   3.083  0.1307  0.5520  0.9625
   24MOL   H55222678   7.061   0.353   2.912  0.3665  0.6564  0.3001
   24MOL   H55322679   7.053   0.200   2.976 -2.0197  0.8839 -1.0041
   24MOL   H55422680   7.326   0.328   2.870  0.3738 -0.2611 -2.3579
   24MOL   H55522681   7.292   0.167   2.924  1.6804  0.5894 -0.0801
   24MOL   H55622682   7.159   0.268   2.677  0.8039 -0.4874 -1.5989
   24MOL   H55722683   7.175   0.109   2.740 -0.2399 -0.2546 -1.3606
   24MOL   H55822684   7.400   0.298   2.638  1.1243 -0.0670  1.0140
   24MOL   H55922685   7.343   0.144   2.566 -3.9134 -0.0983  1.1751
   24MOL   H56022686   7.415   0.025   2.776 -0.7315  0.5153  0.0449
   24MOL   H56122687   7.498   0.180   2.815 -1.8575 -0.6007  1.0252
   24MOL   H56222688   7.628   0.180   2.621 -0.9605  0.6160  1.9365
   24MOL   H56322689   7.554   0.024   2.559 -0.5983  0.2292 -0.3582
   24MOL   H56422690   7.721   0.080   2.803  1.4714 -2.0013  1.8694
   24MOL   H56522691   0.013   0.005   2.661 -0.9984  0.8198 -0.5845
   24MOL   H56622692   7.550   7.640   2.826 -0.2318 -1.9414  0.7466
   24MOL   H56722693   7.644   7.560   2.694 -0.8100 -1.8143  1.7750
   24MOL   H56822694   0.076   7.607   2.834 -0.1862  0.5646  0.6012
   24MOL   H56922695   7.736   7.487   2.906  2.7728 -0.8958 -1.5228
   24MOL   H57022696   7.725   7.692   3.248  2.0181 -0.2211  0.2384
   24MOL   H57122697   0.108   0.035   3.258  0.1663  0.1068 -0.4815
   24MOL   H57222698   7.627   0.140   3.272 -0.3658  2.5447 -0.9742
   24MOL   H57322699   7.602   0.106   3.120  1.4039 -1.0977 -2.5592
   24MOL   H57422700   0.025   0.251   3.040 -1.0125 -0.8115  0.1673
   24MOL   H57522701   0.069   0.303   3.200  1.3792 -0.2787 -1.5950
   24MOL   H57622702   7.563   0.344   3.195  0.0900  0.5622  0.9715
   24MOL   H57722703   7.602   0.358   3.022 -0.2018  2.8846  0.2709
   24MOL   O57822704   7.736   0.562   3.045  0.1282  0.1460 -0.0778
   24MOL   C57922705   0.064   0.671   3.048  0.3746 -0.0930 -0.1146
   24MOL   C58022706   0.002   0.812   3.043  0.0021  0.1978 -0.3143
   24MOL   C58122707   7.693   0.844   2.914 -0.2410 -0.5745  0.5317
   24MOL   C58222708   7.679   0.993   2.887  0.1150 -0.1414  0.5856
   24MOL   C58322709   7.620   1.021   2.746 -0.0236  0.5191 -0.1645
   24MOL   C58422710   7.473   0.988   2.730  0.1127 -0.0243 -0.4069
   24MOL   C58522711   7.428   1.057   2.591  0.7840 -0.0084 -0.1101
   24MOL   C58622712   7.287   1.046   2.549  0.7029  0.2987  0.3014
   24MOL   C58722713   7.263   1.087   2.413 -0.4650 -0.8598  0.2860
   24MOL   C58822714   7.112   1.071   2.366 -0.2112  0.6879 -0.0224
   24MOL   O58922715   7.091   1.138   2.239 -0.3723  0.0103  0.6231
   24MOL   C59022716   7.065   1.277   2.243  0.4639 -0.1271 -0.6073
   24MOL   O59122717   7.080   1.348   2.343 -0.5303  0.1713  0.1534
   24MOL   C59222718   7.029   1.345   2.109  0.0323  0.0899 -0.2465
   24MOL   C59322719   6.901   1.297   2.050 -0.0006  0.5119 -0.4168
   24MOL   C59422720   6.771   1.334   2.125 -0.8769  0.4501 -0.2934
   24MOL   C59522721   6.654   1.274   2.060  0.0999 -0.1495  0.2675
   24MOL   C59622722   6.592   1.347   1.940  0.4025  0.6023  0.3011
   24MOL   O59722723   6.471   1.367   1.938 -0.6760 -0.6637 -0.0080
   24MOL   H59822724   0.143   0.660   3.122 -0.6761  0.5066  1.1048
   24MOL   H59922725   0.119   0.650   2.956  2.4433  0.0691  1.0593
   24MOL   H60022726   0.087   0.880   3.051  1.0038 -0.5843 -3.6467
   24MOL   H60122727   7.700   0.835   3.126  0.1863  0.2702 -0.1832
   24MOL   H60222728   7.748   0.795   2.833 -1.5825 -1.7679  0.3204
   24MOL   H60322729   7.598   0.791   2.920 -1.1784  0.6481 -2.4704
   24MOL   H60422730   0.015   1.034   2.900 -0.1832  0.7060  0.2168
   24MOL   H60522731   7.621   1.045   2.963 -1.0617 -0.7116  0.0818
   24MOL   H60622732   7.680   0.966   2.674 -1.8607 -1.7985 -0.0188
   24MOL   H60722733   7.634   1.128   2.735 -0.8146  0.8948  2.0890
   24MOL   H60822734   7.412   1.041   2.803  0.2784  1.5420 -1.3551
   24MOL   H60922735   7.459   0.881   2.725  0.2979 -0.0871  0.3972
   24MOL   H61022736   7.485   1.016   2.508 -0.7664  0.0424 -1.2263
   24MOL   H61122737   7.445   1.165   2.590 -0.1534  0.1512  0.5818
   24MOL   H61222738   7.222   1.112   2.606  0.9387  0.2437  0.6333
   24MOL   H61322739   7.263   0.940   2.558  0.8156  0.3764  1.5402
   24MOL   H61422740   7.279   1.195   2.401  0.3014 -1.2176 -2.0588
   24MOL   H61522741   7.334   1.035   2.350  0.4008  1.3478 -0.6107
   24MOL   H61622742   7.041   1.090   2.446  1.1884 -1.5661  1.8175
   24MOL   H61722743   7.113   0.965   2.341  1.5326  0.7448 -0.2712
   24MOL   H61822744   7.030   1.454   2.123  4.1088  0.2706 -1.5142
   24MOL   H61922745   7.107   1.327   2.036  1.2292 -1.2324  1.3144
   24MOL   H62022746   6.903   1.189   2.037  1.3134  0.5118 -0.2159
   24MOL   H62122747   6.902   1.328   1.945  2.3278  1.6861 -0.0627
   24MOL   H62222748   6.761   1.443   2.128  0.7791  0.6230 -0.6063
   24MOL   H62322749   6.792   1.290   2.223 -0.3495  2.7024  0.6369
   24MOL   H62422750   6.572   1.279   2.132 -0.8234  1.6972 -0.8648
   24MOL   H62522751   6.666   1.172   2.025  0.8848 -0.1288  0.4613
   24MOL   O62622752   6.680   1.377   1.841 -0.2603  0.0651  0.2023
   24MOL   C62722753   6.644   1.465   1.730 -0.3064 -0.9466  0.2622
   24MOL   C62822754   6.754   1.570   1.720 -0.2737 -0.5752 -0.0735
   24MOL   C62922755   6.766   1.642   1.585 -0.3039  0.2871  0.3590
   24MOL   C63022756   6.890   1.727   1.568 -0.1005  0.3368 -0.2861
   24MOL   C63122757   6.888   1.817   1.446 -0.9524 -0.5265  0.3795
   24MOL   C63222758   7.004   1.914   1.426  0.2540 -0.7237 -0.0479
   24MOL   C63322759   7.009   1.981   1.290 -0.7453  0.0811  0.2202
   24MOL   C63422760   6.929   2.105   1.278 -0.1543 -0.0126  0.5651
   24MOL   C63522761   6.941   2.160   1.135 -0.2407 -0.1434  0.2268
   24MOL   C63622762   6.870   2.298   1.126  0.2048  0.4557 -0.3846
   24MOL   O63722763   6.852   2.325   0.990  0.1771  0.1604  0.2172
   24MOL   C63822764   6.763   2.408   0.947 -0.3981 -0.1935  0.4379
   24MOL   O63922765   6.693   2.485   1.005 -0.1740 -0.4064 -0.8445
   24MOL   C64022766   6.756   2.410   0.794 -0.0481  0.4434 -0.0519
   24MOL   C64122767   6.856   2.499   0.711  0.1837  0.1962  0.1752
   24MOL   C64222768   6.820   2.651   0.713 -0.2707  0.2401 -0.5165
   24MOL   C64322769   6.918   2.731   0.625  1.2690  0.2817  0.2277
   24MOL   C64422770   6.869   2.873   0.607  0.0296 -0.2276  0.5012
   24MOL   O64522771   6.849   2.927   0.497  0.3989 -0.6311 -0.3815
   24MOL   H64622772   6.661   1.410   1.638 -1.4926 -0.6643 -0.1380
   24MOL   H64722773   6.548   1.516   1.727 -0.2665 -0.9373 -3.0237
   24MOL   H64822774   6.852   1.531   1.745 -0.3044  0.7320  2.3419
   24MOL   H64922775   6.737   1.651   1.791  1.0276  0.0072 -0.4120
   24MOL   H65022776   6.770   1.572   1.501  3.2882  0.9627 -0.1034
   24MOL   H65122777   6.679   1.705   1.564 -0.1530  0.5576  0.5420
   24MOL   H65222778   6.974   1.658   1.567  1.0835  1.6769  1.7100
   24MOL   H65322779   6.911   1.787   1.657 -1.6042  0.9769 -0.3535
   24MOL   H65422780   6.807   1.888   1.458 -0.1098  0.4678  0.2225
   24MOL   H65522781   6.878   1.757   1.355  1.6427 -0.4973  0.0268
   24MOL   H65622782   7.094   1.853   1.437  0.4356 -0.6560 -1.0364
   24MOL   H65722783   7.017   1.991   1.502 -3.2300 -1.8121  1.7748
   24MOL   H65822784   6.975   1.906   1.219  0.9493 -0.2205 -0.3003
   24MOL   H65922785   7.113   2.003   1.267 -0.0309 -1.7671  1.5247
   24MOL   H66022786   6.978   2.181   1.340  0.6275 -1.1306  1.3543
   24MOL   H66122787   6.827   2.101   1.315 -0.2180  1.5311  0.5881
   24MOL   H66222788   7.045   2.171   1.103 -0.9477 -1.2064 -2.5245
   24MOL   H66322789   6.886   2.090   1.073 -0.4849 -1.1161  1.5210
   24MOL   H66422790   6.924   2.385   1.164  1.5710 -0.7824  0.6219
   24MOL   H66522791   6.779   2.287   1.184 -0.2132  2.3836 -0.6470
   24MOL   H66622792   6.769   2.309   0.754 -0.2965  0.7607 -0.9352
   24MOL   H66722793   6.659   2.451   0.769  0.4030  0.7195 -1.3862
   24MOL   H66822794   6.853   2.460   0.610 -0.5191  0.6465  0.0220
   24MOL   H66922795   6.955   2.485   0.757 -1.0677  2.9677  3.9999
   24MOL   H67022796   6.835   2.689   0.814  0.5096 -0.2627 -0.4463
   24MOL   H67122797   6.714   2.665   0.693 -0.5208  0.2285  0.7551
   24MOL   H67222798   6.936   2.677   0.532  0.3290 -2.5021  1.6002
   24MOL   H67322799   7.006   2.726   0.689 -0.6047  3.3442  3.2358
   24MOL   O67422800   6.844   2.938   0.722 -0.5449 -0.1096 -0.0152
   24MOL   C67522801   6.803   3.072   0.721 -0.6543 -0.3124  1.2227
   24MOL   C67622802   6.659   3.105   0.678 -0.7320 -0.3084  0.7463
   24MOL   C67722803   6.617   3.246   0.721  0.5391  0.1008 -0.3650
   24MOL   C67822804   6.483   3.291   0.669  0.2841  0.4654 -0.0933
   24MOL   C67922805   6.454   3.434   0.719  0.5619 -0.7264  0.0361
   24MOL   C68022806   6.316   3.481   0.674  0.0729  0.1978 -0.0015
   24MOL   C68122807   6.263   3.620   0.714 -0.1882  0.3067  0.1259
   24MOL   C68222808   6.351   3.727   0.645  0.3865  0.3538  0.1766
   24MOL   C68322809   6.311   3.872   0.673 -0.3150  0.1047  0.4531
   24MOL   C68422810   6.416   3.977   0.631 -0.4484  0.2864  0.4688
   24MOL   O68522811   6.400   4.017   0.494 -0.8356 -0.3174  0.7605
   24MOL   C68622812   6.496   3.988   0.405  0.5660 -0.8252 -0.6334
   24MOL   O68722813   6.607   3.942   0.427 -0.1935 -0.3281 -0.5401
   24MOL   C68822814   6.464   4.051   0.269 -0.2529 -0.8446  0.3019
   24MOL   C68922815   6.539   4.000   0.142  0.2495  0.9508  0.2874
   24MOL   C69022816   6.481   3.869   0.091  0.6124 -0.1393  0.6161
   24MOL   C69122817   6.552   3.821   7.729 -0.1161 -0.1382  0.8099
   24MOL   C69222818   6.519   3.683   7.697 -0.5900  0.8744 -0.5094
   24MOL   O69322819   6.402   3.646   7.684  0.3290 -0.2479 -0.0860
   24MOL   H69422820   6.809   3.104   0.825  3.5436 -0.2432  1.0415
   24MOL   H69522821   6.885   3.121   0.669  0.3004 -0.6215  2.4250
   24MOL   H69622822   6.586   3.038   0.723  0.4857 -1.2550  1.3336
   24MOL   H69722823   6.648   3.086   0.571  1.4205 -1.1629  0.6703
   24MOL   H69822824   6.602   3.248   0.829  1.9094 -1.5845 -0.1381
   24MOL   H69922825   6.698   3.317   0.702  1.0988  0.0853  1.8592
   24MOL   H70022826   6.409   3.236   0.728  1.0729  0.4229  0.8705
   24MOL   H70122827   6.478   3.287   0.560  1.2781  0.1755 -0.1368
   24MOL   H70222828   6.529   3.508   0.689  0.5593  0.3574  2.5853
   24MOL   H70322829   6.465   3.436   0.827 -0.7184  0.3497  0.1522
   24MOL   H70422830   6.242   3.405   0.698 -2.5020  2.2219 -1.2023
   24MOL   H70522831   6.316   3.470   0.566 -0.1189 -1.7441  0.1749
   24MOL   H70622832   6.253   3.632   0.822  0.5318 -1.9303  0.4757
   24MOL   H70722833   6.169   3.637   0.661  1.1224 -0.7195 -2.6584
   24MOL   H70822834   6.362   3.705   0.538 -0.2425  0.3666  0.1043
   24MOL   H70922835   6.456   3.724   0.673  0.4911  0.0605 -0.2366
   24MOL   H71022836   6.220   3.890   0.615  0.4094 -2.4881 -1.5873
   24MOL   H71122837   6.297   3.871   0.781  1.1776  0.6321  0.6681
   24MOL   H71222838   6.513   3.943   0.670 -1.7086 -2.3210  1.4640
   24MOL   H71322839   6.411   4.073   0.681 -1.6079  0.3553  0.2158
   24MOL   H71422840   6.357   4.035   0.258 -0.1095 -1.8572  0.2930
   24MOL   H71522841   6.471   4.160   0.266  1.6469 -0.9588 -0.7953
   24MOL   H71622842   6.646   3.991   0.161  0.9451  0.9979 -3.1853
   24MOL   H71722843   6.528   4.080   0.069  2.0467  0.9820  0.0227
   24MOL   H71822844   6.373   3.875   0.077  0.4678  0.7103  1.9076
   24MOL   H71922845   6.478   3.798   0.174 -0.8165  0.7886  1.3677
   24MOL   H72022846   6.659   3.831   7.749  0.4908 -0.1130 -2.3089
   24MOL   H72122847   6.523   3.878   7.641  0.4139 -1.2286 -0.0843
   24MOL   O72222848   6.633   3.611   7.684  0.1238  0.2297  0.3650
   24MOL   C72322849   6.621   3.474   7.652 -0.1531 -0.1607  0.1137
   24MOL   C72422850   6.668   3.441   7.514  0.5743  0.9062  1.1736
   24MOL   C72522851   6.826   3.453   7.489 -0.0235 -0.4911  0.4650
   24MOL   C72622852   6.870   3.404   7.349  0.2198  0.1488  0.2538
   24MOL   C72722853   7.020   3.397   7.350 -0.2854  0.2457  0.7967
   24MOL   C72822854   7.078   3.358   7.208 -0.4601  0.6494 -0.4395
   24MOL   C72922855   7.230   3.366   7.219  0.6257  0.0631  0.0617
   24MOL   C73022856   7.299   3.310   7.089 -0.4055 -1.2497  0.2604
   24MOL   C73122857   7.280   3.400   6.969  0.0771 -0.1768  0.8945
   24MOL   C73222858   7.366   3.352   6.856 -0.3917  0.2118  0.0832
   24MOL   O73322859   7.364   3.429   6.737  0.1559  0.2461  0.1030
   24MOL   C73422860   7.440   3.378   6.635  0.3664  0.0685  0.5566
   24MOL   O73522861   7.505   3.272   6.634  0.2287 -0.0099 -0.0676
   24MOL   C73622862   7.443   3.478   6.519 -1.0164 -0.4384  0.1584
   24MOL   C73722863   7.575   3.481   6.436  0.4113 -0.4418  0.3818
   24MOL   C73822864   7.602   3.605   6.353 -1.0172 -0.0111 -0.1340
   24MOL   C73922865   7.728   3.605   6.268  0.2761 -1.1120 -0.3622
   24MOL   C74022866   7.746   3.735   6.179 -0.1168  0.0609  0.8164
   24MOL   O74122867   7.658   3.824   6.170  0.1117 -0.5504 -0.1001
   24MOL   H74222868   6.684   3.417   7.721  0.0331 -0.3653 -0.2242
   24MOL   H74322869   6.519   3.443   7.672 -0.9771  3.2323  1.5799
   24MOL   H74422870   6.612   3.495   7.437  2.1664  0.3195 -0.4290
   24MOL   H74522871   6.660   3.334   7.495 -1.8292  0.7649  2.7642
   24MOL   H74622872   6.851   3.559   7.496  0.8538 -0.8306  3.1010
   24MOL   H74722873   6.875   3.420   7.580  1.8997 -1.7430 -0.9900
   24MOL   H74822874   6.841   3.478   7.274 -1.7741 -1.0408 -0.2001
   24MOL   H74922875   6.833   3.306   7.319  0.5180  0.1439 -0.0949
   24MOL   H75022876   7.055   3.327   7.426  0.0558 -1.2066 -0.6725
   24MOL   H75122877   7.068   3.492   7.371  3.8324 -1.2317 -1.3157
   24MOL   H75222878   7.031   3.426   7.136 -2.0223 -0.1515 -0.1942
   24MOL   H75322879   7.043   3.258   7.184  0.1218  0.2559  0.3650
   24MOL   H75422880   7.278   3.319   7.305  3.3318  2.1227 -0.2426
   24MOL   H75522881   7.253   3.469   7.250  0.7348  0.2701 -0.6944
   24MOL   H75622882   7.265   3.207   7.081 -3.1917 -0.5358  2.3864
   24MOL   H75722883   7.405   3.306   7.115 -0.3271  0.0280  0.1821
   24MOL   H75822884   7.176   3.400   6.934  0.2357 -0.6843  0.4212
   24MOL   H75922885   7.319   3.499   6.994  2.0352 -0.2867 -1.5467
   24MOL   H76022886   7.352   3.246   6.839  0.3150 -0.1399  1.5334
   24MOL   H76122887   7.469   3.367   6.890 -0.5575  0.2231  0.5827
   24MOL   H76222888   7.366   3.450   6.446 -0.1218  1.0773 -1.4093
   24MOL   H76322889   7.418   3.575   6.562  1.4654 -0.4903  1.7653
   24MOL   H76422890   7.549   3.410   6.358 -3.1500  1.6693 -0.4682
   24MOL   H76522891   7.656   3.455   6.504 -0.4632 -1.8788  0.9066
   24MOL   H76622892   7.602   3.691   6.420  0.8202 -0.0998  0.0115
   24MOL   H76722893   7.512   3.623   6.294 -0.1411  1.0572 -1.1552
   24MOL   H76822894   7.731   3.518   6.202  1.0102 -0.4639 -1.2069
   24MOL   H76922895   0.050   3.601   6.334 -0.7537  1.4329  1.1909
   24MOL   O77022896   0.094   3.736   6.117  0.4279 -0.2861 -0.6496
   24MOL   C77122897   0.145   3.855   6.066 -0.5335 -0.5682  0.5802
   24MOL   C77222898   0.250   3.819   5.963  0.2960  0.5015  0.1552
   24MOL   C77322899   0.288   3.939   5.872  0.3498  0.1971  0.3682
   24MOL   C77422900   0.372   3.901   5.754 -0.1465  0.3616 -0.6450
   24MOL   C77522901   0.302   3.840   5.631  0.0355 -0.5989 -0.1755
   24MOL   C77622902   0.387   3.821   5.501 -0.6329  0.1970 -0.1606
   24MOL   C77722903   0.300   3.769   5.388 -0.3242 -0.7707  1.3569
   24MOL   C77822904   0.379   3.738   5.262  0.3347  0.1531  0.3346
   24MOL   C77922905   0.295   3.709   5.137  0.2623  0.3530 -0.2657
   24MOL   C78022906   0.397   3.707   5.022 -0.9538 -0.1274  0.4003
   24MOL   O78122907   0.313   3.648   4.922 -0.2981 -0.2124 -0.0882
   24MOL   C78222908   0.374   3.599   4.818  0.1922 -0.1555 -0.3034
   24MOL   O78322909   0.493   3.559   4.830  0.0283 -0.6686  0.2154
   24MOL   C78422910   0.298   3.560   4.696  0.0580  0.9412  0.1145
   24MOL   C78522911   0.194   3.666   4.662 -0.3396  0.1823  0.2540
   24MOL   C78622912   0.250   3.795   4.603  0.3730  0.1611  0.3236
   24MOL   C78722913   0.131   3.901   4.597 -0.7755 -0.6051 -0.5679
   24MOL   C78822914   0.170   4.028   4.525  0.1309  0.4428  0.2468
   24MOL   O78922915   0.230   4.020   4.421  0.6887  0.7180  0.2393
   24MOL   H79022916   0.069   3.897   6.001  1.4300  2.2070 -0.0663
   24MOL   H79122917   0.184   3.931   6.134 -2.6087  0.4006  0.7121
   24MOL   H79222918   0.206   3.740   5.902 -0.2676  0.6552  0.3554
   24MOL   H79322919   0.343   3.787   6.009  0.4927 -0.2057 -0.7230
   24MOL   H79422920   0.201   4.000   5.847  2.1839  2.6726 -0.1644
   24MOL   H79522921   0.349   4.008   5.931 -0.1880  0.2507  0.8670
   24MOL   H79622922   0.450   3.834   5.791  0.8655  2.0613  0.3375
   24MOL   H79722923   0.431   3.989   5.729  0.4059  0.3457  0.5402
   24MOL   H79822924   0.225   3.913   5.607 -1.6404 -1.8644  1.2130
   24MOL   H79922925   0.256   3.746   5.660  1.1906 -0.7287  1.3277
   24MOL   H80022926   0.464   3.748   5.524  0.7404  0.5556 -3.3911
   24MOL   H80122927   0.445   3.911   5.481 -1.8774  0.8314 -1.0189
   24MOL   H80222928   0.233   3.844   5.346  2.0537  0.5680 -0.1093
   24MOL   H80322929   0.251   3.679   5.426 -0.8362 -1.6105 -1.1501
   24MOL   H80422930   0.437   3.647   5.280  0.1950 -0.0101 -0.0192
   24MOL   H80522931   0.447   3.819   5.238 -2.1410  2.4954  0.9814
   24MOL   H80622932   0.265   3.605   5.151 -0.6332  0.3263 -2.1601
   24MOL   H80722933   0.208   3.771   5.117 -0.3321 -0.0479  1.0096
   24MOL   H80822934   0.485   3.648   5.047 -2.0702 -1.6020  0.9328
   24MOL   H80922935   0.432   3.804   4.987  1.3674 -1.1262 -0.1155
   24MOL   H81022936   0.368   3.547   4.613 -1.4748 -1.0856 -0.9152
   24MOL   H81122937   0.249   3.466   4.721  0.8967 -0.0869 -1.9796
   24MOL   H81222938   0.132   3.686   4.749 -2.4207  1.4330 -1.4785
   24MOL   H81322939   0.127   3.626   4.586  0.6360 -1.1790  0.0975
   24MOL   H81422940   0.299   3.780   4.508  0.1547 -1.2439  0.4301
   24MOL   H81522941   0.332   3.820   4.671  0.5357 -1.5229  0.7517
   24MOL   H81622942   0.108   3.921   4.701  0.8330  2.2269 -0.7112
   24MOL   H81722943   0.040   3.870   4.545 -1.8533  1.0854  0.2716
   24MOL   O81822944   0.120   4.138   4.579 -0.5287  0.7445 -0.0633
   24MOL   C81922945   0.129   4.255   4.507 -0.6068  0.2331  0.1575
   24MOL   C82022946   7.750   4.296   4.464 -0.0708 -0.9401  0.8313
   24MOL   C82122947   7.694   4.203   4.356  0.1997  0.4814 -0.5990
   24MOL   C82222948   7.755   4.244   4.220  0.0326  0.3062 -0.1284
   24MOL   C82322949   7.708   4.154   4.103 -0.0978 -0.0337 -0.4958
   24MOL   C82422950   7.760   4.188   3.962 -0.1088 -0.5697 -0.3741
   24MOL   C82522951   0.144   4.184   3.937 -0.5905  0.6678 -0.3551
   24MOL   C82622952   0.179   4.180   3.786 -0.4225 -0.5624  0.4909
   24MOL   C82722953   0.323   4.143   3.766  0.6636 -0.5556  0.3629
   24MOL   C82822954   0.370   4.156   3.617  0.7564 -0.4001 -0.5497
   24MOL   O82922955   0.508   4.146   3.600  0.9401 -0.1551  0.2832
   24MOL   C83022956   0.549   4.088   3.487 -0.0663  0.0245  0.2020
   24MOL   O83122957   0.479   4.053   3.391 -0.1808 -0.0862 -0.5713
   24MOL   C83222958   0.698   4.060   3.493  1.0500  0.2880 -0.2651
   24MOL   C83322959   0.746   3.938   3.407  0.3783  1.1226 -0.1727
   24MOL   C83422960   0.867   3.864   3.459 -0.5062  0.1793 -0.1674
   24MOL   C83522961   0.908   3.748   3.371 -0.0299 -0.9396 -0.9331
   24MOL   C83622962   0.822   3.618   3.410 -0.3550 -0.0269  0.6514
   24MOL   O83722963   0.746   3.622   3.508 -0.5112 -0.3352 -0.0507
   24MOL   H83822964   0.165   4.320   4.588  0.2971  0.3677 -0.3455
   24MOL   H83922965   0.192   4.251   4.418  0.1162  0.1712  0.6626
   24MOL   H84022966   7.759   4.398   4.427  2.1805 -0.9107  1.4107
   24MOL   H84122967   7.680   4.297   4.548 -1.8195 -0.8861 -0.5866
   24MOL   H84222968   7.715   4.099   4.378 -0.6706  0.2622 -0.7820
   24MOL   H84322969   7.585   4.215   4.355  0.2430  0.9223 -0.2998
   24MOL   H84422970   0.097   4.224   4.225 -0.2066 -0.4014  3.4531
   24MOL   H84522971   7.734   4.347   4.194 -1.7803  0.2237  0.9515
   24MOL   H84622972   7.599   4.158   4.110  0.0259 -0.4490  2.0464
   24MOL   H84722973   7.732   4.049   4.118  1.4759  0.5093  0.9142
   24MOL   H84822974   7.715   4.284   3.935  0.4156 -0.0074  0.7764
   24MOL   H84922975   7.710   4.114   3.898  0.1039  1.4504 -2.9903
   24MOL   H85022976   0.182   4.094   3.987 -0.1944  0.5982 -0.7797
   24MOL   H85122977   0.199   4.271   3.974  0.4879  0.4125 -1.2995
   24MOL   H85222978   0.147   4.276   3.748 -0.3134 -2.0129 -3.4823
   24MOL   H85322979   0.111   4.108   3.739 -1.9561  1.0703  0.1521
   24MOL   H85422980   0.378   4.227   3.807  0.0564 -1.0595  2.2502
   24MOL   H85522981   0.356   4.055   3.821  3.7926 -0.2277 -0.8875
   24MOL   H85622982   0.335   4.251   3.577 -2.2911 -1.4926 -0.5949
   24MOL   H85722983   0.313   4.077   3.568 -1.0410 -0.3111  1.3101
   24MOL   H85822984   0.752   4.145   3.451  1.4257 -0.7586 -1.9389
   24MOL   H85922985   0.720   4.043   3.599  0.9624  0.5577 -0.2046
   24MOL   H86022986   0.743   3.951   3.299 -0.5678  1.4983 -0.1086
   24MOL   H86122987   0.670   3.863   3.432 -0.1190  1.6401 -0.1112
   24MOL   H86222988   0.851   3.827   3.560  2.7335  1.8074  1.0084
   24MOL   H86322989   0.955   3.927   3.472 -0.5283  0.4594 -1.3450
   24MOL   H86422990   1.010   3.718   3.393 -0.6405 -0.9144  2.2514
   24MOL   H86522991   0.901   3.785   3.269  1.0850  1.8538 -0.0587
   24MOL   O86622992   0.854   3.509   3.337 -0.1057 -0.5994  0.2260
   24MOL   C86722993   0.796   3.384   3.371  0.2581  0.1972 -0.0063
   24MOL   C86822994   0.746   3.303   3.245 -0.4385  0.0152 -0.6435
   24MOL   C86922995   0.646   3.193   3.283  0.2283  0.1017  0.1300
   24MOL   C87022996   0.595   3.117   3.157  0.2751  0.0751  0.1267
   24MOL   C87122997   0.507   3.190   3.057  0.1953  0.1778  0.5159
   24MOL   C87222998   0.441   3.087   2.952  0.3749 -0.1686 -0.5678
   24MOL   C87322999   0.355   3.123   2.841 -0.5882 -0.2322 -0.2725
   24MOL   C87423000   0.428   3.224   2.747 -0.2524 -0.4316  0.5271
   24MOL   C87523001   0.389   3.230   2.609  0.0558 -0.1032 -0.0933
   24MOL   C87623002   0.480   3.312   2.522  0.0718 -0.2435 -0.0347
   24MOL   O87723003   0.456   3.451   2.520  0.2403  0.3784  0.2668
   24MOL   C87823004   0.550   3.531   2.454  0.1532  0.2828  0.5891
   24MOL   O87923005   0.638   3.496   2.380  0.5631 -0.6009  0.1454
   24MOL   C88023006   0.520   3.680   2.468 -0.6254 -0.4349 -0.3461
   24MOL   C88123007   0.620   3.771   2.400  0.2554  0.5335  0.2186
   24MOL   C88223008   0.610   3.763   2.251 -0.0885  0.2426 -0.7726
   24MOL   C88323009   0.687   3.883   2.190 -0.5027  0.6924 -0.6712
   24MOL   C88423010   0.830   3.895   2.227 -0.5780  0.1533  0.7163
   24MOL   O88523011   0.921   3.848   2.159 -0.2452 -0.0923 -0.0951
   24MOL   H88623012   0.866   3.320   3.425  0.1604  0.9174  0.9751
   24MOL   H88723013   0.716   3.400   3.444  1.2422 -1.2460  1.4100
   24MOL   H88823014   0.829   3.253   3.195 -0.5411 -1.4007  0.5781
   24MOL   H88923015   0.703   3.377   3.178  0.6503  0.7163 -0.5890
   24MOL   H89023016   0.697   3.129   3.355  0.9511 -0.8182 -1.1683
   24MOL   H89123017   0.563   3.240   3.335 -0.6967 -1.4817  0.1282
   24MOL   H89223018   0.528   3.043   3.202 -2.6580  2.3219 -0.3594
   24MOL   H89323019   0.676   3.062   3.110  1.2944  1.2656  0.4770
   24MOL   H89423020   0.563   3.270   3.009 -1.2802  0.9116 -0.0022
   24MOL   H89523021   0.428   3.239   3.114 -0.3283 -1.4159  1.2049
   24MOL   H89623022   0.379   3.016   3.007  0.6826 -0.0494 -0.0619
   24MOL   H89723023   0.512   3.018   2.907 -1.4323 -3.1613  1.0274
   24MOL   H89823024   0.265   3.173   2.875  0.7587  3.4338 -1.8413
   24MOL   H89923025   0.315   3.033   2.794 -0.0889 -1.7182  2.0472
   24MOL   H90023026   0.535   3.205   2.749 -0.5483 -2.5504 -1.4586
   24MOL   H90123027   0.421   3.324   2.792 -0.3899  0.5839 -1.6965
   24MOL   H90223028   0.384   3.129   2.570 -0.5945  0.4041 -1.3482
   24MOL   H90323029   0.287   3.268   2.603  0.1146  0.2733  1.1496
   24MOL   H90423030   0.481   3.272   2.421  0.9231 -0.8251  0.1982
   24MOL   H90523031   0.583   3.292   2.550 -0.2738  0.9449  2.2106
   24MOL   H90623032   0.418   3.697   2.434 -0.1429  0.3353 -1.4109
   24MOL   H90723033   0.518   3.708   2.574  0.5306  1.9711 -0.9229
   24MOL   H90823034   0.721   3.734   2.422  0.9806  2.5140  0.3122
   24MOL   H90923035   0.612   3.873   2.437 -1.5196  0.2935  0.4970
   24MOL   H91023036   0.506   3.790   2.229 -0.3140  0.8646  0.9739
   24MOL   H91123037   0.633   3.670   2.198 -1.5761 -1.3023  1.1952
   24MOL   H91223038   0.646   3.974   2.233 -1.4701  0.4811 -1.1285
   24MOL   H91323039   0.664   3.874   2.083 -1.3845  1.5716 -0.5621
   24MOL   O91423040   0.846   3.956   2.349 -0.2215 -0.0151 -0.0005
   24MOL   C91523041   0.982   3.997   2.394  0.7423  1.4086 -0.0885
   24MOL   C91623042   0.966   4.104   2.498  0.6509  0.5609  0.5025
   24MOL   C91723043   0.888   4.047   2.613  0.8768  0.4243 -0.7070
   24MOL   C91823044   0.848   4.157   2.717 -0.2244 -0.2351  0.3826
   24MOL   C91923045   0.750   4.107   2.827 -0.4230 -0.4676  0.4247
   24MOL   C92023046   0.699   4.225   2.909  0.1553 -0.9480  0.1311
   24MOL   C92123047   0.644   4.174   3.043  0.3774 -0.2990  0.2927
   24MOL   C92223048   0.637   4.277   3.158 -0.4708  0.8231 -0.1076
   24MOL   C92323049   0.769   4.324   3.222 -0.5692 -0.0795 -0.3179
   24MOL   C92423050   0.734   4.428   3.336 -0.0862  0.2021  0.0244
   24MOL   O92523051   0.847   4.452   3.421 -0.1943  0.6115  0.6512
   24MOL   C92623052   0.930   4.557   3.410  0.1025 -0.1676  0.2076
   24MOL   O92723053   0.909   4.642   3.325 -0.5407 -0.5189  0.2956
   24MOL   C92823054   1.046   4.567   3.509  0.3839  0.4538  0.5472
   24MOL   C92923055   1.151   4.678   3.481 -0.9641 -0.2363  0.1159
   24MOL   C93023056   1.252   4.643   3.368  0.0459 -0.0358 -0.1395
   24MOL   C93123057   1.348   4.764   3.313 -0.4065  0.3979 -0.1561
   24MOL   C93223058   1.462   4.804   3.408 -0.6499 -0.2563  0.5399
   24MOL   O93323059   1.525   4.721   3.477  0.0609 -0.0482 -0.3170
   24MOL   H93423060   1.042   3.913   2.429 -0.0540  0.3924 -1.1232
   24MOL   H93523061   1.026   4.045   2.306  1.3615 -2.0172 -1.7012
   24MOL   H93623062   0.895   4.177   2.459 -1.0803 -2.0720 -1.3678
   24MOL   H93723063   1.060   4.152   2.527  1.7435 -0.9813 -0.3952
   24MOL   H93823064   0.798   4.007   2.566  1.3139 -1.6354  0.1456
   24MOL   H93923065   0.947   3.969   2.661  1.5769  1.2945 -0.1466
   24MOL   H94023066   0.801   4.238   2.661  0.5062 -0.6068 -0.7940
   24MOL   H94123067   0.940   4.203   2.750  0.4713 -0.0357 -1.7403
   24MOL   H94223068   0.805   4.030   2.880  2.1367  1.2078  0.2478
   24MOL   H94323069   0.667   4.049   2.786  0.0696 -0.2514 -0.9103
   24MOL   H94423070   0.617   4.264   2.849  0.8748  0.6856  0.1726
   24MOL   H94523071   0.789   4.286   2.920 -0.0354 -0.8780  1.3644
   24MOL   H94623072   0.697   4.081   3.066 -1.4939 -1.5993 -0.5195
   24MOL   H94723073   0.542   4.139   3.036  0.2876 -0.3704  1.7786
   24MOL   H94823074   0.573   4.232   3.234 -0.2974 -2.1418 -1.6434
   24MOL   H94923075   0.582   4.369   3.139  1.1495  1.6504 -0.9686
   24MOL   H95023076   0.821   4.235   3.257  0.7754  0.1800 -1.6099
   24MOL   H95123077   0.827   4.383   3.151  1.7803 -2.0699 -0.1165
   24MOL   H95223078   0.659   4.383   3.401  0.6000  2.1904  2.2816
   24MOL   H95323079   0.685   4.514   3.289 -0.2615  0.4877  0.7187
   24MOL   H95423080   0.998   4.597   3.602 -0.0497 -1.0124  0.8037
   24MOL   H95523081   1.100   4.475   3.529 -0.5846 -0.5448 -1.3650
   24MOL   H95623082   1.211   4.703   3.568 -1.5042  0.6582  0.2449
   24MOL   H95723083   1.090   4.764   3.451 -1.4082 -0.2799  0.8703
   24MOL   H95823084   1.191   4.614   3.283  2.0683  0.5321 -1.8372
   24MOL   H95923085   1.308   4.554   3.395  0.1650 -0.5287 -1.9700
   24MOL   H96023086   1.283   4.848   3.288 -1.8394 -0.7670 -0.3861
   24MOL   H96123087   1.390   4.734   3.217 -1.0117 -0.3784 -0.1808
   24MOL   H96223088   1.482   4.910   3.422 -0.0568 -0.0878 -1.3817
   25MOL     O123089   0.393   4.829   1.097  0.2895  0.1380  0.2223
   25MOL     C223090   0.319   4.708   1.131 -0.3246  0.2087  0.7204
   25MOL     C323091   0.181   4.751   1.187 -0.1907 -0.4090  0.5058
   25MOL     C423092   0.108   4.631   1.244 -0.6647  0.0132  0.4713
   25MOL     C523093   7.740   4.660   1.315 -0.2632 -0.5114 -0.5753
   25MOL     C623094   7.705   4.529   1.401  0.0077 -0.0078 -0.4044
   25MOL     C723095   7.576   4.552   1.472 -0.0797  0.8919  0.0165
   25MOL     C823096   7.533   4.435   1.560 -0.6017  0.1927  0.2115
   25MOL     C923097   7.405   4.461   1.642 -0.0007  0.7167 -0.4456
   25MOL    C1023098   7.277   4.460   1.566  0.6574  0.2972  0.4871
   25MOL    C1123099   7.148   4.514   1.644  0.1709  0.0645 -0.0279
   25MOL    O1223100   7.038   4.514   1.553 -0.1355 -0.9731  0.2964
   25MOL    C1323101   6.947   4.611   1.566  0.1731 -0.2373  0.3881
   25MOL    O1423102   6.953   4.713   1.637 -0.3973  1.0306  0.1496
   25MOL    C1523103   6.823   4.589   1.479  0.0442  0.1623 -0.5333
   25MOL    C1623104   6.767   4.448   1.496  0.7064 -0.4172  0.0163
   25MOL    C1723105   6.814   4.347   1.392 -0.4271 -0.7337 -0.8101
   25MOL    C1823106   6.729   4.216   1.380 -0.4866  0.1839  0.5016
   25MOL    C1923107   6.722   4.143   1.515 -0.7950 -0.3912  0.6948
   25MOL    O2023108   6.621   4.101   1.572 -0.3439 -0.0693 -0.2888
   25MOL    H2123109   0.303   4.641   1.047 -2.1029  1.0724  0.3511
   25MOL    H2223110   0.375   4.650   1.205 -0.3464 -1.1149 -0.2912
   25MOL    H2323111   0.121   4.796   1.108 -1.5423 -1.8483  0.6923
   25MOL    H2423112   0.204   4.824   1.264  1.8148 -1.0628  0.5640
   25MOL    H2523113   0.087   4.578   1.151  2.9089  1.2760 -1.1507
   25MOL    H2623114   0.170   4.566   1.306  1.1099  0.4270 -0.8150
   25MOL    H2723115   7.663   4.686   1.243  0.7706  1.0098 -1.1600
   25MOL    H2823116   7.748   4.743   1.386 -1.1030  0.2439 -1.3638
   25MOL    H2923117   0.010   4.510   1.483  1.6977  0.5792 -1.6560
   25MOL    H3023118   7.703   4.431   1.353 -0.0788 -0.4515  0.4885
   25MOL    H3123119   7.493   4.581   1.407 -0.1440  1.1902  0.2290
   25MOL    H3223120   7.582   4.637   1.540 -0.8288 -0.0303  1.2609
   25MOL    H3323121   7.617   4.412   1.626  0.5322 -0.4179 -1.4218
   25MOL    H3423122   7.530   4.345   1.498  0.8585 -0.4540  1.0574
   25MOL    H3523123   7.405   4.552   1.701 -1.1841  1.8819 -2.1894
   25MOL    H3623124   7.418   4.399   1.730  1.9120  1.2665 -0.3135
   25MOL    H3723125   7.301   4.513   1.474  2.6884 -1.0552  0.1968
   25MOL    H3823126   7.238   4.365   1.530 -1.9132  0.6876  2.1264
   25MOL    H3923127   7.169   4.615   1.681 -0.6590 -0.4945  2.0027
   25MOL    H4023128   7.126   4.450   1.729 -1.2957  2.2366  1.2877
   25MOL    H4123129   6.752   4.663   1.517 -0.4407  0.1207 -1.3638
   25MOL    H4223130   6.851   4.612   1.377 -1.0060  0.4557 -0.7637
   25MOL    H4323131   6.660   4.449   1.481  0.5591  0.3262  1.0659
   25MOL    H4423132   6.777   4.408   1.597 -2.3306 -2.0009 -0.2775
   25MOL    H4523133   6.922   4.337   1.399 -0.3264  0.1683 -1.0284
   25MOL    H4623134   6.810   4.393   1.293 -0.9066 -0.4739 -0.6738
   25MOL    H4723135   6.782   4.151   1.310 -0.4823 -0.6055  1.2254
   25MOL    H4823136   6.631   4.252   1.350 -0.7583 -1.3354 -0.4652
   25MOL    H4923137   0.348   4.877   1.029 -1.3276 -1.6802 -0.0741
   25MOL    O5023138   6.846   4.118   1.556  0.4298 -0.3424 -0.2873
   25MOL    C5123139   6.875   4.042   1.672  0.4267  0.1284 -0.1002
   25MOL    C5223140   7.020   4.040   1.710 -0.9672 -0.3887 -0.3947
   25MOL    C5323141   7.125   4.015   1.593 -0.7580 -0.1693 -0.5972
   25MOL    C5423142   7.265   3.999   1.648 -0.8400 -0.2716 -0.0780
   25MOL    C5523143   7.358   3.948   1.533 -0.4722 -0.5645  0.9385
   25MOL    C5623144   7.501   3.917   1.565  0.1943  0.3109  0.2238
   25MOL    C5723145   7.577   3.893   1.437 -0.3282  0.6620  0.3403
   25MOL    C5823146   7.726   3.851   1.468  0.0495 -0.4169 -0.4631
   25MOL    C5923147   0.056   3.863   1.346 -0.3083  0.6224 -0.1847
   25MOL    C6023148   0.189   3.779   1.372  1.0103 -0.0836  0.1019
   25MOL    O6123149   0.148   3.647   1.332 -0.7014 -0.1766  0.9225
   25MOL    C6223150   0.229   3.537   1.360  0.0348 -0.5609 -0.5165
   25MOL    O6323151   0.338   3.542   1.423 -0.1946 -0.3311  0.0942
   25MOL    C6423152   0.163   3.417   1.311 -0.3162 -0.1139 -0.5466
   25MOL    C6523153   0.188   3.385   1.161 -0.5508  0.6665 -0.1569
   25MOL    C6623154   0.330   3.402   1.095 -0.2938  0.2663 -0.0204
   25MOL    C6723155   0.447   3.323   1.160 -0.0535 -0.1032  0.0757
   25MOL    C6823156   0.414   3.169   1.168  0.1495  0.1640 -0.7549
   25MOL    O6923157   0.437   3.089   1.079 -0.6314 -0.0269 -0.5633
   25MOL    H7023158   6.817   4.078   1.758  0.3689 -1.9727  0.7707
   25MOL    H7123159   6.840   3.941   1.654  2.4842 -0.5655 -0.3200
   25MOL    H7223160   7.031   3.964   1.788  1.4880  0.6715  0.3545
   25MOL    H7323161   7.040   4.140   1.750  1.0082 -0.9978  0.1712
   25MOL    H7423162   7.089   3.930   1.534  0.9490 -0.7244 -0.8596
   25MOL    H7523163   7.126   4.097   1.521  0.1239  1.7501  1.5540
   25MOL    H7623164   7.267   3.929   1.732  0.7665  0.6715  0.6877
   25MOL    H7723165   7.300   4.096   1.682 -0.0019 -0.8297  0.6711
   25MOL    H7823166   7.374   4.027   1.459  0.3041 -1.7989 -0.2444
   25MOL    H7923167   7.313   3.863   1.481 -0.2982  0.6266 -1.2447
   25MOL    H8023168   7.502   3.825   1.622  0.3778 -0.4638 -1.0106
   25MOL    H8123169   7.542   4.004   1.616 -0.6583  0.1828  1.1558
   25MOL    H8223170   7.571   3.991   1.390  0.0462  1.4829  1.9645
   25MOL    H8323171   7.529   3.824   1.369 -0.5327  2.2801 -1.1951
   25MOL    H8423172   7.718   3.749   1.507  1.5580  0.0248  1.0748
   25MOL    H8523173   7.758   3.914   1.551  0.9306  0.2347 -1.2966
   25MOL    H8623174   0.012   3.818   1.257 -1.2895  0.6655  0.2750
   25MOL    H8723175   0.076   3.967   1.319  2.9636  0.6790  2.1320
   25MOL    H8823176   0.217   3.775   1.478  0.1504 -1.2003  0.2889
   25MOL    H8923177   0.272   3.812   1.310 -0.0455  2.5805  0.0515
   25MOL    H9023178   0.187   3.343   1.387  0.4195  1.0811  0.3944
   25MOL    H9123179   0.056   3.431   1.324 -0.6118 -1.8050 -0.9358
   25MOL    H9223180   0.129   3.453   1.099  2.3806  2.7862 -0.7340
   25MOL    H9323181   0.143   3.288   1.143 -0.2122  0.4791 -0.0164
   25MOL    H9423182   0.370   3.502   1.112 -3.5296  1.6416  0.0190
   25MOL    H9523183   0.324   3.368   0.992  2.5922 -0.4825  0.0234
   25MOL    H9623184   0.453   3.358   1.263  1.5276  3.0926 -1.0221
   25MOL    H9723185   0.544   3.324   1.110 -1.1062 -0.6285 -2.0081
   25MOL    O9823186   0.372   3.138   1.290 -0.3122  0.0037 -0.0559
   25MOL    C9923187   0.349   3.002   1.322  0.4346  0.1121  1.2248
   25MOL   C10023188   0.235   2.969   1.421 -0.0386  0.5715 -0.3362
   25MOL   C10123189   0.099   2.982   1.364 -0.4658  0.2444  0.1466
   25MOL   C10223190   7.759   2.909   1.442  0.1289  0.1327  0.5092
   25MOL   C10323191   7.622   2.943   1.381 -0.5842  0.4119 -0.2216
   25MOL   C10423192   7.517   2.849   1.446 -0.4474 -0.1829 -0.6784
   25MOL   C10523193   7.377   2.862   1.393  0.3843 -0.5181  0.1599
   25MOL   C10623194   7.277   2.771   1.465 -0.0141  0.0217 -0.9073
   25MOL   C10723195   7.138   2.770   1.396 -0.3789  0.0332 -0.3229
   25MOL   C10823196   7.024   2.716   1.485  0.2661  0.3395 -0.2030
   25MOL   O10923197   7.054   2.592   1.549  0.2427  0.4576  0.2366
   25MOL   C11023198   7.051   2.469   1.480 -0.1669 -1.1286  0.7809
   25MOL   O11123199   6.984   2.453   1.378 -0.3695 -0.3663  1.0151
   25MOL   C11223200   7.129   2.362   1.556 -0.6286 -0.2129  0.0009
   25MOL   C11323201   7.083   2.331   1.698  0.3424  0.4462  0.2144
   25MOL   C11423202   6.952   2.246   1.699  0.2144 -0.8318 -0.7602
   25MOL   C11523203   6.893   2.237   1.842  0.5351 -0.1522 -0.1825
   25MOL   C11623204   6.954   2.143   1.942 -0.1632 -0.2635  0.1136
   25MOL   O11723205   7.061   2.175   1.992 -0.0351  0.0011 -1.2613
   25MOL   H11823206   0.332   2.945   1.230  2.1614 -0.2103  1.0931
   25MOL   H11923207   0.446   2.969   1.358 -0.3984 -1.7406  1.8312
   25MOL   H12023208   0.242   3.032   1.509 -0.6424  0.9080 -0.5231
   25MOL   H12123209   0.254   2.869   1.460 -0.3219  0.3562 -0.7450
   25MOL   H12223210   0.072   3.084   1.338  2.8041  1.4981  1.4315
   25MOL   H12323211   0.109   2.936   1.266  2.9414  1.0514  0.0577
   25MOL   H12423212   0.001   2.944   1.545  0.4771 -1.7610  1.1435
   25MOL   H12523213   0.007   2.801   1.445 -0.4391 -0.0204 -1.9912
   25MOL   H12623214   7.610   2.928   1.274 -1.1166 -1.7191  0.0994
   25MOL   H12723215   7.603   3.048   1.401 -0.8496  0.4671 -0.7689
   25MOL   H12823216   7.510   2.847   1.555 -2.2554 -3.6435 -0.7912
   25MOL   H12923217   7.544   2.747   1.420  0.5028 -0.3889  0.9983
   25MOL   H13023218   7.373   2.831   1.288 -3.0884 -0.9209  0.3459
   25MOL   H13123219   7.360   2.969   1.405 -0.4600 -0.4963 -1.0670
   25MOL   H13223220   7.282   2.802   1.570 -0.2513  0.2509 -0.9619
   25MOL   H13323221   7.316   2.670   1.454 -0.3463 -0.1322 -0.6923
   25MOL   H13423222   7.109   2.868   1.359  1.3308  0.6247 -0.1237
   25MOL   H13523223   7.133   2.704   1.309  1.8739  1.7753 -1.8375
   25MOL   H13623224   6.926   2.707   1.439  0.1203  1.9383 -0.2437
   25MOL   H13723225   7.014   2.785   1.569  0.3168  0.0033  0.0809
   25MOL   H13823226   7.131   2.267   1.503 -1.2517 -0.0596 -0.3150
   25MOL   H13923227   7.232   2.396   1.568 -0.3461 -0.4984 -1.5609
   25MOL   H14023228   7.065   2.414   1.766  2.0682 -0.5224  1.8756
   25MOL   H14123229   7.163   2.286   1.757  0.6375 -0.7874 -1.0891
   25MOL   H14223230   6.965   2.145   1.662 -0.7404 -2.0187  1.9771
   25MOL   H14323231   6.868   2.281   1.640 -0.7352 -1.4147  0.2338
   25MOL   H14423232   6.793   2.199   1.823  0.3936  0.4403 -0.6058
   25MOL   H14523233   6.883   2.335   1.888 -1.2689 -0.3308 -0.1794
   25MOL   O14623234   6.894   2.025   1.955 -0.2717 -0.3693 -0.5951
   25MOL   C14723235   6.934   1.925   2.054 -0.1090  0.0529  0.1198
   25MOL   C14823236   6.969   1.791   1.994  0.1137  0.5226  0.9521
   25MOL   C14923237   7.110   1.784   1.925  0.7768 -0.3117  0.2878
   25MOL   C15023238   7.153   1.655   1.848 -0.1284  0.3510 -0.7521
   25MOL   C15123239   7.284   1.677   1.772  0.0717 -0.2705 -0.9438
   25MOL   C15223240   7.321   1.574   1.665 -0.1305 -0.6370 -0.2041
   25MOL   C15323241   7.455   1.611   1.622 -0.7553  0.3221 -0.5904
   25MOL   C15423242   7.500   1.550   1.495  0.1802  0.5988 -0.6107
   25MOL   C15523243   7.645   1.592   1.468  0.4930 -0.6672  0.2927
   25MOL   C15623244   7.698   1.561   1.326 -1.0599 -0.5583 -0.1511
   25MOL   O15723245   7.708   1.422   1.292  0.5847  0.0113 -0.1023
   25MOL   C15823246   0.043   1.391   1.210  0.3350 -0.9317  0.2644
   25MOL   O15923247   0.139   1.461   1.175 -0.5014  0.2160 -0.4612
   25MOL   C16023248   0.039   1.249   1.176 -0.5122 -0.1565  0.3794
   25MOL   C16123249   0.156   1.198   1.097  0.1156  0.1005 -0.5226
   25MOL   C16223250   0.295   1.200   1.161 -0.0027 -0.1433 -0.3128
   25MOL   C16323251   0.396   1.094   1.115  0.3833 -1.0534  0.3407
   25MOL   C16423252   0.424   1.091   0.963 -0.9483  0.4708 -0.7032
   25MOL   O16523253   0.362   1.013   0.882  0.2530  0.5813  0.2529
   25MOL   H16623254   7.017   1.952   2.120  0.6078  1.5702 -1.3547
   25MOL   H16723255   6.846   1.907   2.114 -0.0614  0.0801  0.1970
   25MOL   H16823256   6.884   1.766   1.931  2.7836  0.8271 -2.9767
   25MOL   H16923257   6.976   1.714   2.071 -2.1247 -0.0464  0.6173
   25MOL   H17023258   7.099   1.868   1.856  1.7573 -1.0131 -0.7501
   25MOL   H17123259   7.174   1.808   2.010 -0.2740 -2.0110  1.6008
   25MOL   H17223260   7.067   1.624   1.789 -1.2458  1.9747  0.0038
   25MOL   H17323261   7.157   1.573   1.920  0.1608  1.2788  0.2910
   25MOL   H17423262   7.366   1.694   1.842 -0.2320 -1.0214 -0.4004
   25MOL   H17523263   7.286   1.773   1.720  0.8652 -0.8819 -2.0589
   25MOL   H17623264   7.251   1.575   1.581 -0.3504  0.9000 -0.0169
   25MOL   H17723265   7.321   1.474   1.709  0.4396 -0.8712 -0.7203
   25MOL   H17823266   7.528   1.578   1.696 -0.8656 -0.3461 -0.7782
   25MOL   H17923267   7.467   1.719   1.610 -2.2902  0.9754  3.1457
   25MOL   H18023268   7.434   1.587   1.417  0.0299 -0.3129 -0.9176
   25MOL   H18123269   7.485   1.442   1.496 -1.1972  0.7831  0.2511
   25MOL   H18223270   7.651   1.699   1.486 -1.3113 -0.2679 -1.2484
   25MOL   H18323271   7.708   1.545   1.543 -1.7318 -1.4269  1.7094
   25MOL   H18423272   0.033   1.606   1.329 -0.4769 -1.9302  1.8399
   25MOL   H18523273   7.646   1.620   1.250  0.1187 -0.9146 -1.2699
   25MOL   H18623274   0.031   1.190   1.267  1.0692 -1.5855 -0.3941
   25MOL   H18723275   7.711   1.229   1.123  1.1410 -1.2026 -2.2288
   25MOL   H18823276   0.164   1.257   1.006 -1.5926 -0.0442 -0.7748
   25MOL   H18923277   0.138   1.093   1.074  0.9110 -0.8843  3.0464
   25MOL   H19023278   0.280   1.184   1.268  0.9511 -1.2568 -0.3426
   25MOL   H19123279   0.344   1.298   1.166 -1.6478  0.6777 -0.0101
   25MOL   H19223280   0.360   0.995   1.142 -0.5431 -0.5926  0.8286
   25MOL   H19323281   0.491   1.108   1.166  0.6901 -1.0784 -0.2113
   25MOL   O19423282   0.522   1.185   0.932  0.3888 -0.0080  0.5722
   25MOL   C19523283   0.534   1.229   0.799  0.5638 -0.5022  0.6589
   25MOL   C19623284   0.659   1.313   0.792 -0.0831  0.1056  0.0964
   25MOL   C19723285   0.787   1.224   0.793 -0.0344  0.0166 -0.0076
   25MOL   C19823286   0.912   1.309   0.756  0.4373 -0.5799 -0.4261
   25MOL   C19923287   1.049   1.237   0.733  0.4169 -0.0232 -0.0690
   25MOL   C20023288   1.165   1.342   0.714  0.0473 -0.2944 -0.5059
   25MOL   C20123289   1.284   1.262   0.655 -0.3173  0.3437 -0.5513
   25MOL   C20223290   1.395   1.352   0.602 -0.1267 -0.4627  0.0116
   25MOL   C20323291   1.464   1.438   0.708 -0.8936 -0.6419 -0.2480
   25MOL   C20423292   1.541   1.348   0.814  0.5630 -1.3619 -0.1588
   25MOL   O20523293   1.440   1.303   0.912 -0.3730 -0.1899 -0.9545
   25MOL   C20623294   1.464   1.198   1.002 -0.3207  0.9276  0.3225
   25MOL   O20723295   1.548   1.112   0.992  0.1960  0.2137 -0.1917
   25MOL   C20823296   1.363   1.189   1.118  0.2958 -0.1797 -0.3086
   25MOL   C20923297   1.239   1.097   1.091 -0.0150  0.0663  0.0938
   25MOL   C21023298   1.121   1.104   1.191  0.4373  0.4105  0.2940
   25MOL   C21123299   0.986   1.056   1.133  0.2110 -0.5766 -0.1899
   25MOL   C21223300   0.972   0.909   1.126 -0.2332 -0.1767 -0.0857
   25MOL   O21323301   1.070   0.835   1.102  0.4383  0.0139 -0.5569
   25MOL   H21423302   0.549   1.138   0.740 -0.8816  0.1815 -0.7952
   25MOL   H21523303   0.445   1.282   0.763  0.6647 -1.0257 -0.4084
   25MOL   H21623304   0.657   1.380   0.878  0.4518  0.7451 -0.3829
   25MOL   H21723305   0.662   1.377   0.704  2.4034  1.4302  1.0926
   25MOL   H21823306   0.794   1.163   0.883 -1.4352 -1.2190 -0.7240
   25MOL   H21923307   0.786   1.160   0.705 -0.1693 -0.5952  0.4397
   25MOL   H22023308   0.932   1.392   0.824 -2.4797 -1.0593  1.1385
   25MOL   H22123309   0.883   1.377   0.676 -1.0984  2.1515  2.3183
   25MOL   H22223310   1.049   1.160   0.656 -2.3987 -1.0798  0.9405
   25MOL   H22323311   1.064   1.187   0.829 -0.3146  1.7097  0.9758
   25MOL   H22423312   1.187   1.393   0.808  0.9514  2.2613 -2.0529
   25MOL   H22523313   1.140   1.420   0.642  1.3177  0.5600 -0.0485
   25MOL   H22623314   1.250   1.208   0.566 -1.0058  1.9492 -1.2678
   25MOL   H22723315   1.309   1.186   0.730 -1.3216 -3.1598 -3.6026
   25MOL   H22823316   1.359   1.410   0.517 -2.7803 -2.2214 -0.1200
   25MOL   H22923317   1.460   1.283   0.547 -2.2212 -0.3901 -2.6931
   25MOL   H23023318   1.526   1.521   0.674 -1.8708 -0.0065 -0.5159
   25MOL   H23123319   1.384   1.491   0.760 -0.1474 -0.4087  0.6838
   25MOL   H23223320   1.618   1.408   0.862 -0.5097  0.9885 -1.3273
   25MOL   H23323321   1.585   1.256   0.773 -0.3497 -2.3394  1.0231
   25MOL   H23423322   1.418   1.156   1.207  1.2806  0.8760 -0.5152
   25MOL   H23523323   1.327   1.291   1.127  1.5671  0.4130 -1.7687
   25MOL   H23623324   1.268   0.992   1.080 -2.0484 -0.6091  0.9207
   25MOL   H23723325   1.196   1.125   0.995 -2.5983 -0.3482  1.0778
   25MOL   H23823326   1.108   1.208   1.219 -1.9611 -0.3135  1.9844
   25MOL   H23923327   1.140   1.058   1.288 -0.5077 -0.4486  0.0812
   25MOL   H24023328   0.959   1.106   1.040  0.7660 -1.6855 -0.9532
   25MOL   H24123329   0.907   1.100   1.193 -0.7308 -3.1542  0.5075
   25MOL   O24223330   0.850   0.867   1.140  0.1902  0.2244  0.7014
   25MOL   C24323331   0.815   0.726   1.143 -0.1727 -0.5961 -0.4319
   25MOL   C24423332   0.741   0.690   1.272  0.4970  0.3589  0.6454
   25MOL   C24523333   0.739   0.540   1.286 -0.0313  0.7854 -0.6558
   25MOL   C24623334   0.640   0.488   1.394 -0.9512  0.0390 -0.3085
   25MOL   C24723335   0.646   0.333   1.390  0.1991 -0.7226 -0.0924
   25MOL   C24823336   0.560   0.265   1.496  0.0947 -0.1795  0.1646
   25MOL   C24923337   0.522   0.126   1.457 -0.2162 -0.1608 -0.3030
   25MOL   C25023338   0.449   0.037   1.560  0.1086  0.0218  0.0881
   25MOL   C25123339   0.347   7.703   1.502  0.7167  0.2344 -0.1347
   25MOL   C25223340   0.414   7.587   1.432  0.4257 -0.1864 -0.2076
   25MOL   O25323341   0.420   7.476   1.522 -0.6103 -0.1413  0.3943
   25MOL   C25423342   0.536   7.424   1.562 -0.0146  0.2483  0.4150
   25MOL   O25523343   0.646   7.468   1.521  0.1236 -0.1109  0.1171
   25MOL   C25623344   0.519   7.311   1.659  0.0379  0.1282 -0.1987
   25MOL   C25723345   0.514   7.366   1.808  0.0281 -0.0786  0.2644
   25MOL   C25823346   0.383   7.424   1.856 -0.0370 -0.2392  0.1534
   25MOL   C25923347   0.276   7.318   1.907 -0.1617  0.4843 -0.4675
   25MOL   C26023348   0.298   7.256   2.046  0.6572  0.1462 -0.4106
   25MOL   O26123349   0.287   7.337   2.140  0.1388  0.0736 -0.3466
   25MOL   H26223350   0.754   0.712   1.053 -1.7656 -0.4951  0.6226
   25MOL   H26323351   0.909   0.671   1.141 -0.4835 -1.1552  0.3333
   25MOL   H26423352   0.644   0.739   1.286  0.9851  1.1452  1.3181
   25MOL   H26523353   0.789   0.733   1.360  1.1247 -0.3202  0.6321
   25MOL   H26623354   0.687   0.501   1.199 -2.3013 -0.0230  1.0012
   25MOL   H26723355   0.840   0.507   1.309 -0.3196  0.6273  0.4085
   25MOL   H26823356   0.540   0.522   1.368 -1.8865 -1.1261  1.6735
   25MOL   H26923357   0.675   0.531   1.487 -1.7486 -1.1685  0.5571
   25MOL   H27023358   0.744   0.290   1.407  0.5341  0.5978  1.3974
   25MOL   H27123359   0.624   0.298   1.289  0.9523  3.5364 -1.8288
   25MOL   H27223360   0.475   0.330   1.517  0.3566 -0.4496  2.1263
   25MOL   H27323361   0.608   0.260   1.594  0.6587  0.0315 -0.0970
   25MOL   H27423362   0.614   0.080   1.421 -1.2219 -0.8393 -2.0788
   25MOL   H27523363   0.465   0.128   1.364 -4.3057 -0.1023  2.0818
   25MOL   H27623364   0.390   0.098   1.628 -1.7756  0.2752 -1.7130
   25MOL   H27723365   0.532   7.750   1.609 -0.0887  0.5936  1.0276
   25MOL   H27823366   0.274   7.669   1.576 -0.5043 -0.5710 -1.6865
   25MOL   H27923367   0.280   7.757   1.435  2.9830  0.6393 -2.1139
   25MOL   H28023368   0.510   7.623   1.395 -0.2885  0.4628 -1.4567
   25MOL   H28123369   0.368   7.555   1.338  4.3126  1.4234 -2.7712
   25MOL   H28223370   0.438   7.243   1.634 -1.6282  1.9129  0.1845
   25MOL   H28323371   0.612   7.261   1.632  0.1762  0.0270  0.4565
   25MOL   H28423372   0.579   7.452   1.819  1.0778 -0.8531  0.1951
   25MOL   H28523373   0.544   7.297   1.887  0.0099  1.6229  1.7812
   25MOL   H28623374   0.339   7.488   1.780 -1.8456  0.7202  1.9623
   25MOL   H28723375   0.407   7.499   1.931  0.9167  1.2884 -1.6496
   25MOL   H28823376   0.267   7.241   1.830 -3.6802  1.4177 -1.0798
   25MOL   H28923377   0.182   7.373   1.906 -1.4013 -1.5328  1.1228
   25MOL   O29023378   0.316   7.127   2.051  0.5673  0.0609  0.0215
   25MOL   C29123379   0.320   7.078   2.181 -0.8473 -0.4124 -0.7940
   25MOL   C29223380   0.466   7.084   2.231  0.1072  0.4807 -0.3106
   25MOL   C29323381   0.560   6.976   2.164  0.1159  0.7508  0.3555
   25MOL   C29423382   0.625   7.023   2.031 -0.4349  0.2902 -0.3166
   25MOL   C29523383   0.719   6.923   1.956 -0.1219 -0.4375 -0.3284
   25MOL   C29623384   0.744   6.966   1.807 -0.6212  0.2735 -0.9054
   25MOL   C29723385   0.827   7.089   1.780  0.5389  0.1074 -0.1423
   25MOL   C29823386   0.880   7.076   1.631  0.5475 -0.3407 -0.5443
   25MOL   C29923387   0.965   7.189   1.592 -0.6530 -0.6247  0.0123
   25MOL   C30023388   1.026   7.185   1.454 -0.4783  0.1755  0.1527
   25MOL   O30123389   1.097   7.061   1.435 -0.3483  0.2280 -0.4123
   25MOL   C30223390   1.227   7.063   1.461 -0.2023 -0.2274  0.3719
   25MOL   O30323391   1.304   7.153   1.487 -0.7697  0.3477  0.0974
   25MOL   C30423392   1.293   6.933   1.401 -0.3099  0.5016  0.0777
   25MOL   C30523393   1.297   6.923   1.242  0.4643  0.2669 -0.0972
   25MOL   C30623394   1.376   7.042   1.168  0.4381 -0.4594  0.5971
   25MOL   C30723395   1.382   7.031   1.015  0.5906  0.2323 -0.7756
   25MOL   C30823396   1.521   7.056   0.973  0.4257 -0.3140 -0.4261
   25MOL   O30923397   1.604   6.968   0.968 -0.0807 -0.9071 -0.0703
   25MOL   H31023398   0.247   7.132   2.242 -2.1962 -0.6608 -2.1794
   25MOL   H31123399   0.279   6.977   2.186  1.6918 -1.4137  1.3177
   25MOL   H31223400   0.456   7.076   2.339  1.5689 -2.0076 -0.3280
   25MOL   H31323401   0.513   7.183   2.226  0.3328  0.4366  0.7324
   25MOL   H31423402   0.642   6.950   2.230  0.2623 -0.6055 -0.3314
   25MOL   H31523403   0.512   6.879   2.150 -0.1090  1.2061 -2.3365
   25MOL   H31623404   0.688   7.111   2.049 -1.0840  0.5923  0.4665
   25MOL   H31723405   0.548   7.048   1.958  0.7470  1.0002 -1.3587
   25MOL   H31823406   0.663   6.830   1.955  1.1974 -1.2241 -2.4654
   25MOL   H31923407   0.814   6.922   2.009 -0.7349 -0.7328  0.8054
   25MOL   H32023408   0.647   6.976   1.758  0.1999 -1.9664 -3.0883
   25MOL   H32123409   0.790   6.878   1.762 -3.4248 -1.7576  0.0858
   25MOL   H32223410   0.913   7.085   1.847  0.0080  0.5285  0.5623
   25MOL   H32323411   0.771   7.182   1.792  1.1341  0.5342 -0.6516
   25MOL   H32423412   0.801   7.067   1.557  0.5536 -0.3269 -0.5524
   25MOL   H32523413   0.943   6.988   1.626 -1.4006 -1.8546  0.7194
   25MOL   H32623414   0.918   7.286   1.609 -0.4277 -0.5519  0.2302
   25MOL   H32723415   1.050   7.203   1.660 -1.8588  0.9836  1.2270
   25MOL   H32823416   1.092   7.268   1.429 -0.1554  0.1860  1.0182
   25MOL   H32923417   0.955   7.196   1.371  0.0900  1.1663 -0.2137
   25MOL   H33023418   1.400   6.939   1.414  0.2987 -2.0944 -2.9033
   25MOL   H33123419   1.259   6.839   1.445  0.1621  0.2023 -0.1949
   25MOL   H33223420   1.193   6.926   1.209  0.5932  3.1307 -0.3345
   25MOL   H33323421   1.341   6.828   1.212 -0.6558 -0.2167 -0.2222
   25MOL   H33423422   1.478   7.043   1.207  0.8657  3.3377 -0.4485
   25MOL   H33523423   1.326   7.136   1.193 -2.4142 -1.6934 -0.2286
   25MOL   H33623424   1.320   7.100   0.958 -0.5560  1.0435  1.3728
   25MOL   H33723425   1.347   6.933   0.983 -2.2923  1.5051 -1.6685
   25MOL   O33823426   1.541   7.185   0.931 -0.0691  0.0395 -0.1575
   25MOL   C33923427   1.674   7.218   0.885  0.2157  0.1752  0.4362
   25MOL   C34023428   1.672   7.368   0.841  0.4020  1.0436  0.0470
   25MOL   C34123429   1.562   7.415   0.734  0.1438  0.4699 -0.1633
   25MOL   C34223430   1.589   7.370   0.596 -0.3407 -0.9414 -0.1852
   25MOL   C34323431   1.489   7.428   0.496  0.1996  0.2806  0.5942
   25MOL   C34423432   1.515   7.351   0.362 -0.1517 -0.3595 -0.7423
   25MOL   C34523433   1.418   7.384   0.252  0.5805  0.8432 -0.4665
   25MOL   C34623434   1.283   7.325   0.266 -0.0285 -1.1111 -0.2242
   25MOL   C34723435   1.287   7.173   0.231  0.5885 -0.1644 -0.7497
   25MOL   C34823436   1.165   7.096   0.257 -0.9358 -0.3003  0.0285
   25MOL   O34923437   1.057   7.156   0.189  0.0273  0.7625  0.4207
   25MOL   C35023438   0.924   7.140   0.239 -0.4500 -0.1919 -0.0433
   25MOL   O35123439   0.903   7.089   0.352  0.0219  0.3201  0.2708
   25MOL   C35223440   0.816   7.180   0.145  0.2650  0.2164 -0.2337
   25MOL   C35323441   0.676   7.180   0.201 -0.0275 -0.1097 -0.0789
   25MOL   C35423442   0.647   7.297   0.292 -0.2391 -0.2165 -0.6735
   25MOL   C35523443   0.492   7.328   0.288 -0.3051 -1.1379 -0.0644
   25MOL   C35623444   0.460   7.440   0.386 -0.2873  0.0776 -0.2790
   25MOL   O35723445   0.388   7.420   0.488  0.3224  0.2428  0.1867
   25MOL   H35823446   1.736   7.213   0.975  1.2513 -1.3066 -0.3416
   25MOL   H35923447   1.722   7.156   0.810 -0.4132  1.5628 -1.1451
   25MOL   H36023448   1.771   7.409   0.821  0.9318  0.5307  1.6131
   25MOL   H36123449   1.648   7.424   0.931  3.0660 -1.3774  2.3376
   25MOL   H36223450   1.464   7.378   0.765 -0.1067  2.0417  0.9804
   25MOL   H36323451   1.556   7.524   0.736 -0.2568  0.4268  2.3165
   25MOL   H36423452   1.585   7.262   0.580  1.9036 -0.7838 -1.9814
   25MOL   H36523453   1.689   7.407   0.576 -0.2224 -0.1273  1.8166
   25MOL   H36623454   1.503   7.536   0.486  0.3203  0.2029 -0.1043
   25MOL   H36723455   1.385   7.418   0.528  0.1986 -2.0844 -0.0959
   25MOL   H36823456   1.504   7.243   0.364  1.4242 -0.5392 -0.7925
   25MOL   H36923457   1.616   7.367   0.323  0.0102  0.6032  0.0609
   25MOL   H37023458   1.463   7.356   0.157  1.4057 -2.3884  0.8127
   25MOL   H37123459   1.406   7.492   0.247  1.2401  1.0046  1.2104
   25MOL   H37223460   1.204   7.371   0.205 -0.7533 -2.4783 -0.3377
   25MOL   H37323461   1.252   7.339   0.369 -0.3400  0.3840 -0.5040
   25MOL   H37423462   1.321   7.169   0.128  0.0236  1.5239 -1.0170
   25MOL   H37523463   1.362   7.127   0.295 -0.3891  1.7236  1.8368
   25MOL   H37623464   1.153   7.118   0.363  1.6964  0.0274  0.2950
   25MOL   H37723465   1.172   6.989   0.239 -0.4889 -0.4253  0.9502
   25MOL   H37823466   0.835   7.265   0.079 -1.1866  0.8982  0.2130
   25MOL   H37923467   0.831   7.101   0.072 -1.7396 -0.9563  0.5871
   25MOL   H38023468   0.652   7.086   0.252 -1.8929  0.8228  0.8125
   25MOL   H38123469   0.602   7.178   0.121  0.2298  2.0421 -0.4048
   25MOL   H38223470   0.697   7.386   0.255 -1.5004  0.7252 -0.1496
   25MOL   H38323471   0.679   7.281   0.395  1.8966  0.6014 -1.1910
   25MOL   H38423472   0.429   7.240   0.301  0.9365 -1.9003  0.7789
   25MOL   H38523473   0.458   7.380   0.198 -0.5272 -0.7045  0.2684
   25MOL   O38623474   0.505   7.558   0.333 -0.2937  0.4020 -0.2368
   25MOL   C38723475   0.498   7.670   0.406 -0.8206 -0.0920  0.2223
   25MOL   C38823476   0.638   7.728   0.437  0.1292 -0.4493  0.1285
   25MOL   C38923477   0.724   7.633   0.520 -0.6309 -0.4930  0.3423
   25MOL   C39023478   0.875   7.671   0.538  0.4729 -0.4981  0.5724
   25MOL   C39123479   0.889   0.025   0.625 -0.0299 -0.0841 -0.1449
   25MOL   C39223480   1.032   0.066   0.652  0.0255  0.3726 -0.6909
   25MOL   C39323481   1.134   7.735   0.727  0.3612 -0.0566  0.4574
   25MOL   C39423482   1.254   0.053   0.759  0.5051 -0.4385 -0.2108
   25MOL   C39523483   1.354   7.736   0.838  0.0147 -0.2416 -0.3062
   25MOL   C39623484   1.495   0.029   0.839 -0.4452 -0.6601  0.0821
   25MOL   O39723485   1.503   0.150   0.908 -0.0114  0.2006  0.2611
   25MOL   C39823486   1.528   0.147   1.050  0.1227  0.0388  0.5633
   25MOL   O39923487   1.541   0.056   1.124  0.0987 -0.1681 -0.5332
   25MOL   C40023488   1.528   0.283   1.108 -0.0755 -0.7102  0.1964
   25MOL   C40123489   1.383   0.347   1.104  0.2828  0.0610 -0.2473
   25MOL   C40223490   1.300   0.288   1.218  0.6614  0.2766 -0.4449
   25MOL   C40323491   1.150   0.323   1.229  0.1353 -0.0098  0.6780
   25MOL   C40423492   1.062   0.280   1.111 -0.1710 -0.0606 -0.4217
   25MOL   O40523493   1.092   0.197   1.024 -0.2079  0.4249  0.2240
   25MOL   H40623494   0.440   7.747   0.355  0.8936 -0.2778 -2.0696
   25MOL   H40723495   0.453   7.650   0.503 -0.2061 -0.6871  0.3895
   25MOL   H40823496   0.631   0.052   0.500  3.2874 -1.8658  2.5930
   25MOL   H40923497   0.702   7.747   0.350 -0.4073  0.5322 -0.0588
   25MOL   H41023498   0.673   7.609   0.613 -1.0775 -1.8196 -0.2464
   25MOL   H41123499   0.733   7.535   0.474  1.0716  0.5440 -1.6926
   25MOL   H41223500   0.924   7.687   0.442 -1.3232  1.3819 -0.0681
   25MOL   H41323501   0.937   7.598   0.590  2.1599  2.0666  2.2316
   25MOL   H41423502   0.835   0.010   0.718 -0.4377 -0.9277 -0.5153
   25MOL   H41523503   0.835   0.110   0.583 -1.0492 -1.1234 -0.9648
   25MOL   H41623504   1.029   0.159   0.708  3.4241 -0.4960  1.0932
   25MOL   H41723505   1.068   0.083   0.550 -1.9263  0.5457 -1.3574
   25MOL   H41823506   1.167   7.667   0.649  2.4932  3.8218 -2.1930
   25MOL   H41923507   1.091   7.690   0.817  1.0120  0.6531  1.1315
   25MOL   H42023508   1.216   0.140   0.813  2.0404  0.1604 -0.0661
   25MOL   H42123509   1.295   0.107   0.673  1.4364  0.8735  1.0350
   25MOL   H42223510   1.313   7.737   0.939  1.4772 -0.7953  0.3065
   25MOL   H42323511   1.341   7.635   0.799 -0.4892  0.1080 -1.0620
   25MOL   H42423512   1.524   0.057   0.738  1.7918 -0.7874  0.6514
   25MOL   H42523513   1.568   7.729   0.889  0.6378 -0.5444 -1.3295
   25MOL   H42623514   1.573   0.263   1.206  0.8383  3.3454  0.6933
   25MOL   H42723515   1.587   0.349   1.044 -1.9147  1.8418  1.0557
   25MOL   H42823516   1.333   0.338   1.007 -0.5324  2.0310 -0.0362
   25MOL   H42923517   1.385   0.456   1.111 -0.1287  0.2399 -2.5064
   25MOL   H43023518   1.345   0.331   1.308  1.2461 -0.5588 -0.3293
   25MOL   H43123519   1.320   0.182   1.233  0.0510  0.5418  2.7077
   25MOL   H43223520   1.141   0.431   1.237 -0.1575 -0.0101  0.3512
   25MOL   H43323521   1.110   0.282   1.321  0.3811  0.0528  0.8152
   25MOL   O43423522   0.945   0.332   1.127 -0.3646  0.1655  0.1341
   25MOL   C43523523   0.836   0.290   1.043 -1.0230  0.1028 -0.0348
   25MOL   C43623524   0.836   0.382   0.922 -0.1179  0.9426 -0.3514
   25MOL   C43723525   0.727   0.335   0.817 -0.1294  0.0478 -0.3386
   25MOL   C43823526   0.713   0.424   0.695 -0.2150 -0.0494 -0.1055
   25MOL   C43923527   0.580   0.391   0.628 -0.4666 -0.3268  0.4840
   25MOL   C44023528   0.569   0.475   0.505 -0.2512 -0.0319  0.1457
   25MOL   C44123529   0.430   0.489   0.436 -0.1883 -0.1177  0.4613
   25MOL   C44223530   0.403   0.355   0.362 -0.1947 -0.3908 -0.3169
   25MOL   C44323531   0.273   0.355   0.281 -0.3348  0.0691  0.4710
   25MOL   C44423532   0.254   0.215   0.217 -0.5413  0.3180 -0.3134
   25MOL   O44523533   0.348   0.190   0.116  0.0451 -0.1597 -0.1643
   25MOL   C44623534   0.384   0.070   0.078  0.0538  0.3390 -0.2718
   25MOL   O44723535   0.343   7.728   0.123 -0.4806 -0.0643  0.2719
   25MOL   C44823536   0.482   0.088   7.724  0.3719  0.4712 -0.2170
   25MOL   C44923537   0.507   7.732   7.632  0.0797  0.1974  1.2438
   25MOL   C45023538   0.542   7.594   7.697  0.4405  0.6091 -0.2148
   25MOL   C45123539   0.665   7.611   0.033 -0.2707  0.2716 -0.1372
   25MOL   C45223540   0.798   7.641   7.739 -0.5339 -0.8496 -0.4404
   25MOL   O45323541   0.816   7.739   7.664 -0.1119 -0.9894  0.3587
   25MOL   H45423542   0.844   0.182   1.030  1.1477  0.1147  0.9741
   25MOL   H45523543   0.743   0.295   1.098  0.0674  1.6040  1.7002
   25MOL   H45623544   0.936   0.401   0.881  0.0566 -0.1446 -0.4327
   25MOL   H45723545   0.808   0.482   0.954 -1.5216  0.6606 -0.6560
   25MOL   H45823546   0.747   0.238   0.772  2.2098  0.7270 -0.8069
   25MOL   H45923547   0.631   0.316   0.866 -0.0992 -0.0352 -0.3118
   25MOL   H46023548   0.794   0.427   0.621  0.8801 -0.0244  1.0770
   25MOL   H46123549   0.707   0.522   0.742 -2.1207 -0.7904  1.2366
   25MOL   H46223550   0.492   0.405   0.692  0.2662  0.1602  1.3903
   25MOL   H46323551   0.585   0.289   0.591  0.0984  0.6148 -2.1057
   25MOL   H46423552   0.642   0.431   0.437 -1.0162 -0.7167 -0.2345
   25MOL   H46523553   0.616   0.572   0.522  0.2741 -0.5444  1.7780
   25MOL   H46623554   0.437   0.566   0.359  0.4337 -0.2140  0.4203
   25MOL   H46723555   0.358   0.518   0.513 -0.2012  1.4163 -0.1172
   25MOL   H46823556   0.394   0.274   0.433  0.5600 -1.7535 -1.7533
   25MOL   H46923557   0.482   0.327   0.291  1.5386 -0.5400  1.6320
   25MOL   H47023558   0.195   0.365   0.356 -0.8025 -0.8497  0.1183
   25MOL   H47123559   0.264   0.442   0.217 -2.3617 -0.6675 -0.2862
   25MOL   H47223560   0.149   0.217   0.186 -0.2029  1.4793 -1.4406
   25MOL   H47323561   0.268   0.137   0.291  2.3850  0.7855 -0.3274
   25MOL   H47423562   0.435   0.165   7.664 -2.4689 -1.2023 -0.2653
   25MOL   H47523563   0.585   0.109   7.754  0.1941  0.1494  0.6353
   25MOL   H47623564   0.589   7.764   7.567 -1.7436 -0.1523 -1.2913
   25MOL   H47723565   0.426   7.727   7.559 -1.5469  0.8150  2.9896
   25MOL   H47823566   0.562   7.519   7.620  0.8210  0.7727 -0.2736
   25MOL   H47923567   0.459   7.556   7.758  3.4119 -2.7156  1.9756
   25MOL   H48023568   0.664   7.515   0.086 -0.4732 -0.1115 -0.8287
   25MOL   H48123569   0.643   7.695   0.098 -0.0388  0.7403 -0.6543
   25MOL   O48223570   0.888   7.564   0.017  0.4212  0.1202 -0.3300
   25MOL   C48323571   1.022   7.583   7.734 -0.2524 -0.6813  0.1293
   25MOL   C48423572   1.057   7.451   7.678 -0.3464 -0.2453 -0.0811
   25MOL   C48523573   1.210   7.440   7.647  0.1307 -0.0029 -0.5558
   25MOL   C48623574   1.250   7.295   7.595  0.4292 -0.7568  0.4704
   25MOL   C48723575   1.402   7.273   7.584  0.3009  0.8322 -0.2558
   25MOL   C48823576   1.474   7.339   7.475 -0.1075  0.2092 -0.4206
   25MOL   C48923577   1.628   7.310   7.470 -0.1626 -0.6350  0.4599
   25MOL   C49023578   1.696   7.386   7.352 -0.8318  0.4239  0.0611
   25MOL   C49123579   1.838   7.335   7.320  0.5289  1.1938  0.2151
   25MOL   C49223580   1.945   7.363   7.428 -0.5217  0.3453 -0.1715
   25MOL   O49323581   2.055   7.270   7.444 -0.1423 -0.0094 -0.6211
   25MOL   C49423582   2.035   7.151   7.498 -0.4176  0.3133  0.2606
   25MOL   O49523583   1.926   7.099   7.525  1.3352  0.8045  0.1534
   25MOL   C49623584   2.170   7.080   7.525 -0.1005 -0.7625  0.1767
   25MOL   C49723585   2.236   7.126   7.658 -0.7685  0.3697 -1.0501
   25MOL   C49823586   2.257   7.273   7.680  0.1243 -0.1722 -1.2575
   25MOL   C49923587   2.308   7.312   0.056  0.0731  1.0195  0.8208
   25MOL   C50023588   2.466   7.320   0.056 -0.3268  0.0795 -0.1977
   25MOL   O50123589   2.542   7.240   0.114 -0.8158  0.2847  0.1132
   25MOL   H50223590   1.028   7.660   7.657 -1.0252 -0.0320  0.7072
   25MOL   H50323591   1.099   7.590   0.045 -0.1547  2.1770 -0.1934
   25MOL   H50423592   0.987   7.423   7.600 -0.2583 -0.1473 -0.1945
   25MOL   H50523593   1.035   7.371   7.749 -3.8557 -0.9561 -1.8532
   25MOL   H50623594   1.234   7.512   7.568 -4.5807 -1.0272 -3.1415
   25MOL   H50723595   1.272   7.469   7.732 -0.9467 -0.3033  0.3398
   25MOL   H50823596   1.207   7.289   7.495  0.2926 -0.3174  0.4982
   25MOL   H50923597   1.199   7.228   7.665  0.4038 -1.7946 -0.5306
   25MOL   H51023598   1.415   7.165   7.575 -1.5137  0.7699 -2.5831
   25MOL   H51123599   1.445   7.293   7.682 -0.4465 -1.2802  0.5199
   25MOL   H51223600   1.457   7.445   7.493  1.0814 -0.1523  3.0784
   25MOL   H51323601   1.425   7.323   7.378 -0.3862 -1.6911  0.0144
   25MOL   H51423602   1.646   7.204   7.453  0.2280 -0.0942 -2.9366
   25MOL   H51523603   1.685   7.339   7.558  0.7252  1.4266 -0.7549
   25MOL   H51623604   1.700   7.493   7.370 -1.2107  0.0731  2.4079
   25MOL   H51723605   1.645   7.365   7.258 -1.3807  2.4876 -0.1206
   25MOL   H51823606   1.826   7.229   7.297  0.4085  1.2278  0.1238
   25MOL   H51923607   1.868   7.373   7.223  2.4505 -0.3221  0.1781
   25MOL   H52023608   1.898   7.355   7.526 -2.7197  1.0790 -1.1306
   25MOL   H52123609   1.970   7.469   7.421 -2.5499  0.7384 -2.4921
   25MOL   H52223610   2.152   6.972   7.530 -1.6029 -0.5595 -0.4687
   25MOL   H52323611   2.236   7.100   7.441 -1.3897 -0.8340 -0.8644
   25MOL   H52423612   2.326   7.065   7.670  0.0195  1.3263 -1.9770
   25MOL   H52523613   2.175   7.105   7.746  0.2902  1.0954 -0.1293
   25MOL   H52623614   2.161   7.325   7.668 -1.5857 -2.5271  1.5276
   25MOL   H52723615   2.328   7.306   7.603  0.0714  0.8820 -0.8643
   25MOL   H52823616   2.276   7.240   0.131  4.2833 -2.5684 -0.6567
   25MOL   H52923617   2.263   7.404   0.093 -0.5260  0.3416  1.8023
   25MOL   O53023618   2.502   7.428   7.743 -0.4275 -0.1989 -0.0129
   25MOL   C53123619   2.639   7.449   7.707  0.0874 -0.0974  0.5992
   25MOL   C53223620   2.654   7.600   7.661 -0.6647  0.2787 -0.0320
   25MOL   C53323621   2.590   7.625   7.525  0.2514  0.6686  0.4368
   25MOL   C53423622   2.606   0.016   7.492  0.0606  0.3100  0.3406
   25MOL   C53523623   2.546   0.030   7.351  0.0927 -0.6661  0.2891
   25MOL   C53623624   2.553   0.167   7.296 -0.4897  0.3787 -0.0483
   25MOL   C53723625   2.509   0.186   7.151  0.1444 -0.1224 -0.2039
   25MOL   C53823626   2.479   0.334   7.117 -0.5169 -0.0636 -0.3485
   25MOL   C53923627   2.433   0.355   6.972  1.0505 -0.2398 -0.2065
   25MOL   C54023628   2.404   0.503   6.934  0.5994 -0.2090  0.0946
   25MOL   O54123629   2.356   0.502   6.803 -0.0571  0.1428  0.8918
   25MOL   C54223630   2.299   0.610   6.756  0.1733  0.0438 -0.9642
   25MOL   O54323631   2.309   0.713   6.825  0.1752 -0.6087 -0.2533
   25MOL   C54423632   2.232   0.601   6.617 -0.4860 -0.2193 -0.1630
   25MOL   C54523633   2.113   0.501   6.619 -1.0377 -0.3469 -0.4151
   25MOL   C54623634   2.067   0.465   6.475  0.3797 -0.0941 -0.2637
   25MOL   C54723635   2.023   0.587   6.387  0.8093 -0.5104  0.0706
   25MOL   C54823636   1.936   0.550   6.269  1.1801 -0.2925  0.5444
   25MOL   O54923637   1.844   0.622   6.230 -0.1595  0.2851  0.1413
   25MOL   H55023638   2.704   7.432   0.028  1.2768  0.6747 -0.1346
   25MOL   H55123639   2.665   7.378   7.628  0.8253 -0.3460  1.0650
   25MOL   H55223640   2.761   7.617   7.646 -0.7882  0.1899 -1.0696
   25MOL   H55323641   2.616   7.667   7.738  1.1560  0.0349  1.1195
   25MOL   H55423642   2.638   7.568   7.446  0.4516  0.4815  0.6904
   25MOL   H55523643   2.484   7.603   7.536  0.2439  0.2186 -0.4854
   25MOL   H55623644   2.709   0.051   7.497 -0.4170  1.6184  1.3319
   25MOL   H55723645   2.548   0.072   7.565  0.5584  1.3453 -0.0518
   25MOL   H55823646   2.443   7.760   7.346 -0.0545 -0.3742  1.2657
   25MOL   H55923647   2.596   7.716   7.294  0.1901 -0.2029 -0.2657
   25MOL   H56023648   2.646   0.214   7.328 -0.7020  1.3374 -0.7946
   25MOL   H56123649   2.485   0.222   7.362 -0.2872 -0.9023  1.2573
   25MOL   H56223650   2.419   0.126   7.140 -1.3702  2.0385  0.1873
   25MOL   H56323651   2.582   0.139   7.085 -0.7691  0.0967 -1.3828
   25MOL   H56423652   2.570   0.385   7.148 -1.0184  0.1460  0.8173
   25MOL   H56523653   2.397   0.373   7.179  1.3001  1.3653  1.2177
   25MOL   H56623654   2.510   0.312   6.908 -0.8872 -0.9521 -2.1223
   25MOL   H56723655   2.343   0.295   6.960  1.4845 -0.5688 -2.0949
   25MOL   H56823656   2.501   0.548   6.950  0.8672 -0.0099 -1.8956
   25MOL   H56923657   2.323   0.540   6.997  0.4109 -1.4056  0.5790
   25MOL   H57023658   2.196   0.696   6.577  2.7806 -0.0476 -2.8978
   25MOL   H57123659   2.307   0.568   6.544  0.6799 -0.4007  1.1023
   25MOL   H57223660   2.021   0.539   6.664 -1.1046 -1.4108  0.3903
   25MOL   H57323661   2.140   0.409   6.671 -1.2663 -0.1667  0.0325
   25MOL   H57423662   1.980   0.402   6.493 -0.6791  1.4659  0.1809
   25MOL   H57523663   2.130   0.389   6.428  2.7100 -0.0283  2.6131
   25MOL   H57623664   2.112   0.640   6.354  0.8923 -0.1392  0.8751
   25MOL   H57723665   1.970   0.659   6.450  2.0142 -0.2167  0.7618
   25MOL   O57823666   1.978   0.436   6.205 -0.4152 -0.9138 -0.5525
   25MOL   C57923667   1.909   0.398   6.083 -0.4140  1.2438  0.8791
   25MOL   C58023668   1.829   0.275   6.130 -0.1427  0.4184  0.4172
   25MOL   C58123669   1.904   0.141   6.118 -0.0789  1.1380  0.0299
   25MOL   C58223670   2.009   0.116   6.227 -0.2465  0.2044  0.4060
   25MOL   C58323671   1.943   0.112   6.371 -0.5553  0.0923  0.1245
   25MOL   C58423672   2.053   0.063   6.466 -0.1550 -0.6250  0.2703
   25MOL   C58523673   2.021   0.091   6.614 -0.4986 -0.1398 -0.8523
   25MOL   C58623674   2.116   0.034   6.721  0.1393 -0.1601  0.0110
   25MOL   C58723675   2.249   0.092   6.711 -0.8453  0.0360 -0.1123
   25MOL   C58823676   2.343   0.047   6.826 -0.1568  0.3116 -0.1552
   25MOL   O58923677   2.382   7.675   6.807  0.3639 -0.3292 -0.4782
   25MOL   C59023678   2.479   7.645   6.719 -0.1831 -0.4476 -0.2110
   25MOL   O59123679   2.548   7.728   6.649 -0.0083  0.0945  0.4986
   25MOL   C59223680   2.498   7.491   6.699 -0.2225 -0.5877  0.1596
   25MOL   C59323681   2.647   7.448   6.685  0.5771 -0.5837 -0.1366
   25MOL   C59423682   2.702   7.396   6.816  0.7497 -0.2416 -0.0719
   25MOL   C59523683   2.625   7.279   6.874  0.2593 -0.9057  0.3899
   25MOL   C59623684   2.704   7.187   6.967  0.0497  0.3126 -0.2709
   25MOL   O59723685   2.814   7.207   7.011  0.1071  0.1561 -0.8380
   25MOL   H59823686   1.852   0.478   6.036 -0.8859  0.8160  0.7237
   25MOL   H59923687   1.978   0.373   6.002 -1.2493  0.8390  0.2905
   25MOL   H60023688   1.741   0.261   6.068  0.5430 -1.1950 -0.2169
   25MOL   H60123689   1.781   0.297   6.226 -1.9049  2.2451 -0.8526
   25MOL   H60223690   1.826   0.064   6.120 -0.4329  1.5042  0.3060
   25MOL   H60323691   1.958   0.140   6.023  0.7473  1.6838  0.4915
   25MOL   H60423692   2.088   0.191   6.227  1.0071 -1.0868 -0.2789
   25MOL   H60523693   2.060   0.024   6.200  0.9585  1.6865 -2.6330
   25MOL   H60623694   1.867   0.034   6.373 -1.3726  0.8950  1.2977
   25MOL   H60723695   1.908   0.209   6.405  2.1085  1.0358  0.3178
   25MOL   H60823696   2.151   0.105   6.443 -0.6546 -0.9477 -2.7335
   25MOL   H60923697   2.065   7.720   6.457  1.7794 -0.4465  0.4477
   25MOL   H61023698   1.925   0.042   6.629 -0.3809 -0.2051 -0.2933
   25MOL   H61123699   1.995   0.195   6.631  1.6186  0.3981 -0.7351
   25MOL   H61223700   2.117   7.690   6.712  0.8361 -0.2997  1.6431
   25MOL   H61323701   2.069   0.050   6.818 -2.0238 -2.8059 -0.5421
   25MOL   H61423702   2.304   0.069   6.620  0.8946 -2.5427  1.5534
   25MOL   H61523703   2.245   0.201   6.714  2.9367  0.3103 -1.9466
   25MOL   H61623704   2.295   0.042   6.924 -2.3618  0.8026 -1.1723
   25MOL   H61723705   2.424   0.115   6.851  0.7146 -0.2401 -1.4317
   25MOL   H61823706   2.452   7.430   6.777 -1.4917  0.1816  0.0174
   25MOL   H61923707   2.456   7.478   6.600 -1.4653 -0.0819  0.6193
   25MOL   H62023708   2.704   7.531   6.643 -0.2558 -0.0044 -0.1208
   25MOL   H62123709   2.660   7.365   6.616 -0.4484 -0.5070 -0.4198
   25MOL   H62223710   2.702   7.472   6.894 -2.5484 -0.2585  0.0163
   25MOL   H62323711   2.807   7.369   6.808  1.2617  1.7190 -0.2849
   25MOL   H62423712   2.589   7.210   6.798 -1.4755 -2.9905  3.0349
   25MOL   H62523713   2.540   7.315   6.932 -1.2909 -0.9071 -1.8216
   25MOL   O62623714   2.631   7.081   6.994  0.2224  0.1840  0.3824
   25MOL   C62723715   2.682   6.979   7.078 -0.3971  1.1882  0.3036
   25MOL   C62823716   2.575   6.871   7.083  0.0543  0.2270  0.4202
   25MOL   C62923717   2.444   6.904   7.150  0.0735  0.5250  0.1386
   25MOL   C63023718   2.341   6.787   7.139  0.6204  0.0863 -0.8824
   25MOL   C63123719   2.215   6.807   7.236 -0.6592  0.4192  0.5131
   25MOL   C63223720   2.104   6.705   7.215 -0.4528  0.4311  0.0202
   25MOL   C63323721   2.012   6.706   7.339  0.4571  0.0912 -0.5672
   25MOL   C63423722   2.067   6.624   7.457  0.6636 -0.1341 -0.1415
   25MOL   C63523723   1.969   6.582   7.566 -0.2512 -0.1694  0.4312
   25MOL   C63623724   2.024   6.488   7.664  0.6475 -0.1166  0.1249
   25MOL   O63723725   2.066   6.373   7.603  0.3123 -0.2603  0.3226
   25MOL   C63823726   2.166   6.307   7.652  0.3003 -0.0797 -0.8411
   25MOL   O63923727   2.237   6.339   7.743 -0.1014 -0.0044 -0.2547
   25MOL   C64023728   2.178   6.172   7.577 -0.1750 -0.0215  0.0765
   25MOL   C64123729   2.284   6.183   7.461  0.8524 -0.4475 -0.3243
   25MOL   C64223730   2.236   6.253   7.339 -0.5240  0.3776  0.6239
   25MOL   C64323731   2.159   6.175   7.229 -0.0081 -0.8783  0.6457
   25MOL   C64423732   2.009   6.179   7.237  0.6434 -0.0618 -0.0604
   25MOL   O64523733   1.941   6.082   7.278 -0.3181 -0.4893  0.0498
   25MOL   H64623734   2.774   6.945   7.031 -0.4926  0.0234  0.9405
   25MOL   H64723735   2.706   7.026   7.174  0.4116 -1.0593  1.2403
   25MOL   H64823736   2.619   6.788   7.138  0.8479 -0.6953 -1.5618
   25MOL   H64923737   2.560   6.844   6.978  0.8647  4.3377 -0.8584
   25MOL   H65023738   2.462   6.924   7.255  0.6916  0.8309 -0.0210
   25MOL   H65123739   2.395   6.990   7.104 -0.0815  0.7441  0.7145
   25MOL   H65223740   2.392   6.697   7.172  2.3017  1.1607 -0.4606
   25MOL   H65323741   2.309   6.782   7.034  0.5549 -2.6208 -0.7463
   25MOL   H65423742   2.180   6.910   7.228 -0.2279  0.5411  0.2033
   25MOL   H65523743   2.260   6.797   7.335  0.6622 -0.0670 -0.1279
   25MOL   H65623744   2.143   6.605   7.195 -1.5068  0.0635 -0.2087
   25MOL   H65723745   2.044   6.722   7.126 -0.1307  0.7201 -0.1459
   25MOL   H65823746   1.921   6.657   7.303  1.3091 -1.7346 -0.3291
   25MOL   H65923747   1.987   6.809   7.365 -2.2415 -1.0805  1.7854
   25MOL   H66023748   2.158   6.665   7.500 -0.4646  1.6724  0.5643
   25MOL   H66123749   2.106   6.529   7.419  0.4991 -0.8298  1.3768
   25MOL   H66223750   1.959   6.676   7.620  0.7152  0.5602 -0.6623
   25MOL   H66323751   1.871   6.556   7.524  0.9299 -0.6234 -2.1022
   25MOL   H66423752   1.940   6.461   7.727 -1.0994 -1.6294 -2.7136
   25MOL   H66523753   2.101   6.529   7.730  1.2974  0.4868 -0.9803
   25MOL   H66623754   2.217   6.102   7.650 -0.2659 -1.6046 -1.3609
   25MOL   H66723755   2.076   6.140   7.555  0.3578 -0.5693 -1.6570
   25MOL   H66823756   2.316   6.084   7.427  1.0955 -1.2194  2.0822
   25MOL   H66923757   2.378   6.226   7.494  1.0068 -2.1295  1.5327
   25MOL   H67023758   2.326   6.282   7.285 -1.0585  0.1844 -0.3616
   25MOL   H67123759   2.193   6.351   7.359 -0.9754  0.8009 -2.2490
   25MOL   H67223760   2.198   6.074   7.229  1.6349 -0.2626 -0.7406
   25MOL   H67323761   2.186   6.219   7.133  0.1983 -0.7352  0.7683
   25MOL   O67423762   1.955   6.297   7.202  0.5547 -0.2150 -0.0691
   25MOL   C67523763   1.812   6.315   7.212  0.5496  0.1361 -0.1375
   25MOL   C67623764   1.734   6.286   7.080  0.4106  0.0958  0.6025
   25MOL   C67723765   1.580   6.319   7.078  0.2874 -0.8005  0.5427
   25MOL   C67823766   1.507   6.273   6.951  0.0423 -0.2313 -0.1628
   25MOL   C67923767   1.352   6.298   6.963  0.4557  0.2448  0.6479
   25MOL   C68023768   1.305   6.446   6.971 -0.0920  0.0193  0.4280
   25MOL   C68123769   1.148   6.457   6.996  0.2921  0.1905  0.4105
   25MOL   C68223770   1.068   6.446   6.871 -0.2883  0.5198 -0.0692
   25MOL   C68323771   0.919   6.442   6.897 -0.5548 -0.2224  0.0859
   25MOL   C68423772   0.832   6.414   6.772  1.8688 -0.7158  0.4172
   25MOL   O68523773   0.701   6.421   6.822 -0.1880  0.2077  0.3568
   25MOL   C68623774   0.594   6.384   6.737  0.2595  0.4349  0.4065
   25MOL   O68723775   0.604   6.350   6.624 -0.2229  0.1135  0.2565
   25MOL   C68823776   0.465   6.372   6.811 -0.0263 -0.4394  0.0851
   25MOL   C68923777   0.451   6.238   6.875  0.3472 -0.1088  0.0693
   25MOL   C69023778   0.323   6.226   6.955 -0.2584  0.2050 -0.4141
   25MOL   C69123779   0.188   6.240   6.874 -0.1709  0.1519 -0.0927
   25MOL   C69223780   0.169   6.160   6.744  1.0145  0.0418  0.1719
   25MOL   O69323781   0.137   6.219   6.643 -0.5425 -0.4787 -0.3828
   25MOL   H69423782   1.760   6.264   7.293 -2.0464  1.9902 -0.5716
   25MOL   H69523783   1.805   6.421   7.234  2.4936 -0.1992  2.2007
   25MOL   H69623784   1.730   6.177   7.070  0.7400  0.2657 -1.5643
   25MOL   H69723785   1.787   6.336   6.999  1.0381 -1.8433 -0.2336
   25MOL   H69823786   1.532   6.281   7.168 -1.8512  0.0668 -0.2190
   25MOL   H69923787   1.572   6.428   7.077 -0.3057 -0.8544 -0.8113
   25MOL   H70023788   1.532   6.167   6.940 -0.7406 -0.3607 -0.7092
   25MOL   H70123789   1.548   6.329   6.867 -0.7618  1.8522  0.7806
   25MOL   H70223790   1.316   6.241   7.049  2.1085  1.9197  2.5167
   25MOL   H70323791   1.313   6.247   6.875  0.3676  2.0745 -0.3987
   25MOL   H70423792   1.352   6.510   6.896  1.4354 -0.5216  0.9043
   25MOL   H70523793   1.352   6.479   7.064 -2.7892 -0.3659  1.9738
   25MOL   H70623794   1.118   6.543   7.056 -2.3088  0.3153 -0.9575
   25MOL   H70723795   1.116   6.375   7.060 -0.6813  1.2291  1.2832
   25MOL   H70823796   1.089   6.344   6.839 -0.6622 -0.2421  2.0417
   25MOL   H70923797   1.088   6.526   6.800 -0.3959  0.3088 -0.3373
   25MOL   H71023798   0.915   6.354   6.961  0.4229 -0.4398 -0.1533
   25MOL   H71123799   0.891   6.530   6.955  2.5098  0.5949  0.3845
   25MOL   H71223800   0.853   6.319   6.723  1.9639  0.0434 -1.0377
   25MOL   H71323801   0.854   6.499   6.707  0.0814 -0.0072  0.7131
   25MOL   H71423802   0.466   6.450   6.888 -0.0650  0.4847 -0.8490
   25MOL   H71523803   0.383   6.390   6.742  0.6021  1.1142 -0.2811
   25MOL   H71623804   0.539   6.206   6.930  0.7975 -1.5848 -1.5025
   25MOL   H71723805   0.464   6.159   6.801  1.4925  1.0354 -0.9797
   25MOL   H71823806   0.329   6.300   7.034 -2.6169  1.7132 -1.5829
   25MOL   H71923807   0.327   6.137   7.017  1.6051  2.1580  2.4002
   25MOL   H72023808   0.174   6.344   6.845  1.4156  0.4356  0.1400
   25MOL   H72123809   0.104   6.207   6.935  1.5868 -2.6694  0.9024
   25MOL   O72223810   0.173   6.020   6.759  0.5525  0.4671  0.7906
   25MOL   C72323811   0.149   5.938   6.643 -0.0465 -0.4543  1.0470
   25MOL   C72423812   0.276   5.930   6.565 -0.5151  0.4814  0.1489
   25MOL   C72523813   0.370   5.811   6.598 -0.1471 -0.7987  0.2840
   25MOL   C72623814   0.412   5.797   6.743 -0.3970  0.8642  0.2695
   25MOL   C72723815   0.502   5.678   6.758 -0.2295 -0.2278 -0.5835
   25MOL   C72823816   0.539   5.646   6.903  0.3614 -0.1895 -0.1332
   25MOL   C72923817   0.663   5.563   6.926  0.0966  0.6294 -0.8969
   25MOL   C73023818   0.679   5.513   7.073  0.4277  0.4475  0.1993
   25MOL   C73123819   0.740   5.624   7.160  0.1099  0.8962  0.5130
   25MOL   C73223820   0.698   5.603   7.306 -0.1119  0.0474  0.0500
   25MOL   O73323821   0.564   5.657   7.324 -0.3100  0.1670 -0.1138
   25MOL   C73423822   0.538   5.789   7.357  0.3338  0.3723  0.0777
   25MOL   O73523823   0.621   5.874   7.378 -0.5715 -0.1072 -0.0746
   25MOL   C73623824   0.390   5.825   7.353 -0.0713  0.4033 -0.0111
   25MOL   C73723825   0.337   5.835   7.207 -0.6217  0.3146  0.0674
   25MOL   C73823826   0.186   5.791   7.194 -0.0067 -0.7678 -0.1201
   25MOL   C73923827   0.127   5.850   7.059 -0.9205 -0.3032 -0.0099
   25MOL   C74023828   7.743   5.826   7.034 -0.0858  0.0863  0.3037
   25MOL   O74123829   7.675   5.773   7.117  0.0400  0.1168  0.4252
   25MOL   H74223830   0.119   5.840   6.679  0.1743 -0.3165  1.6148
   25MOL   H74323831   0.065   5.981   6.587 -0.9982 -0.1977  2.6527
   25MOL   H74423832   0.332   6.020   6.589  0.0815 -0.3733  2.0571
   25MOL   H74523833   0.254   5.938   6.458  2.3293  1.3221 -0.4109
   25MOL   H74623834   0.332   5.716   6.559  3.7856 -1.8988 -1.1691
   25MOL   H74723835   0.463   5.822   6.541 -0.9614 -0.5617 -1.0172
   25MOL   H74823836   0.327   5.791   6.810 -0.3744 -0.0082  0.2223
   25MOL   H74923837   0.468   5.884   6.779  2.8753  0.2730 -3.0678
   25MOL   H75023838   0.597   5.704   6.711 -0.9697 -0.0898 -2.0385
   25MOL   H75123839   0.470   5.590   6.703  0.8709 -0.6459 -0.5483
   25MOL   H75223840   0.448   5.600   6.943  0.8866 -0.9043  0.2418
   25MOL   H75323841   0.558   5.739   6.957 -0.6633 -0.6716  1.0862
   25MOL   H75423842   0.755   5.615   6.900  1.0907 -0.4392  0.4375
   25MOL   H75523843   0.661   5.473   6.864 -1.3996  0.2828 -0.3651
   25MOL   H75623844   0.756   5.438   7.060 -0.5419 -0.7802  1.2710
   25MOL   H75723845   0.593   5.463   7.120  1.7374  0.4586  2.7282
   25MOL   H75823846   0.847   5.607   7.153 -0.0965 -0.8519  1.3525
   25MOL   H75923847   0.718   5.726   7.126 -1.2703  0.7378  0.8796
   25MOL   H76023848   0.767   5.648   7.378 -0.5582 -2.0137  1.8085
   25MOL   H76123849   0.704   5.497   7.330  0.6551  0.3949  1.4563
   25MOL   H76223850   0.326   5.754   7.405  0.7654 -1.1029 -0.9940
   25MOL   H76323851   0.364   5.915   7.408 -1.2826  0.1343 -0.1151
   25MOL   H76423852   0.406   5.793   7.134 -0.1630  0.1507  0.5932
   25MOL   H76523853   0.346   5.940   7.178 -0.9353  0.5648  0.8620
   25MOL   H76623854   0.131   5.836   7.277  0.1024 -2.7600  1.0716
   25MOL   H76723855   0.178   5.683   7.191  1.0007 -0.8926  1.1033
   25MOL   H76823856   0.191   5.815   6.978  0.1846  1.6128  0.0129
   25MOL   H76923857   0.119   5.958   7.075  0.7406  0.0318 -1.3277
   25MOL   O77023858   7.699   5.887   6.918 -0.3988 -0.0671 -0.3716
   25MOL   C77123859   7.560   5.889   6.884 -0.0291 -0.1653 -0.3707
   25MOL   C77223860   7.496   5.762   6.818 -0.2856  0.9493  0.0467
   25MOL   C77323861   7.568   5.724   6.690 -0.1174 -0.4517  0.7309
   25MOL   C77423862   7.522   5.581   6.630 -0.4963  0.4146 -0.4276
   25MOL   C77523863   7.618   5.531   6.516  0.1132 -0.4288 -0.1386
   25MOL   C77623864   7.729   5.437   6.567 -0.2033 -0.0752 -0.3930
   25MOL   C77723865   0.069   5.398   6.458 -0.0121 -0.0094  0.6179
   25MOL   C77823866   0.170   5.507   6.423  0.8085 -0.1780  0.2505
   25MOL   C77923867   0.270   5.459   6.315  0.2329  0.4346  0.1304
   25MOL   C78023868   0.399   5.542   6.292 -0.2004 -0.0030  0.2654
   25MOL   O78123869   0.506   5.494   6.372  0.1768 -0.3158 -0.3337
   25MOL   C78223870   0.604   5.581   6.413  0.5430  0.0799 -0.1911
   25MOL   O78323871   0.622   5.697   6.375  0.5458 -0.1056 -0.1567
   25MOL   C78423872   0.702   5.521   6.511  0.2669  0.7520 -0.6797
   25MOL   C78523873   0.785   5.394   6.448 -0.1900 -0.1671  0.2614
   25MOL   C78623874   0.877   5.433   6.335 -0.0527  0.0189 -0.1866
   25MOL   C78723875   0.961   5.312   6.285 -0.1500 -0.6072 -0.2795
   25MOL   C78823876   0.876   5.224   6.195 -0.0716 -0.0066 -0.6801
   25MOL   O78923877   0.885   5.214   6.077 -0.3125 -0.2370 -0.5665
   25MOL   H79023878   7.494   5.942   6.953  0.7334  2.0051 -1.2354
   25MOL   H79123879   7.563   5.960   6.801 -2.0264  0.5628  0.1453
   25MOL   H79223880   7.390   5.786   6.808 -0.4750  0.3937  0.7328
   25MOL   H79323881   7.493   5.687   6.896  1.4963 -0.1226 -0.8727
   25MOL   H79423882   7.539   5.805   6.623  1.9829 -0.2308  0.0481
   25MOL   H79523883   7.676   5.719   6.703 -0.2879 -1.3431  1.8793
   25MOL   H79623884   7.419   5.592   6.598 -1.3859 -0.9774  1.8315
   25MOL   H79723885   7.515   5.503   6.706  1.5441 -0.3047 -0.9541
   25MOL   H79823886   7.664   5.617   6.467 -0.7823  0.3917  0.4445
   25MOL   H79923887   7.554   5.489   6.438 -1.1695 -0.4091  0.8886
   25MOL   H80023888   7.684   5.349   6.614  0.4276  0.1607  0.6809
   25MOL   H80123889   0.017   5.486   6.650  0.5454 -0.5742 -0.5714
   25MOL   H80223890   0.015   5.375   6.366  1.2321 -0.0699 -0.1015
   25MOL   H80323891   0.136   5.317   6.486 -1.0312 -0.6389  1.2795
   25MOL   H80423892   0.215   5.544   6.516  0.3685  4.9455 -1.4299
   25MOL   H80523893   0.113   5.584   6.372 -0.1512 -0.9616  0.1269
   25MOL   H80623894   0.300   5.356   6.337 -0.5522 -0.1338 -1.3164
   25MOL   H80723895   0.216   5.446   6.221  0.7895 -1.3405  0.0387
   25MOL   H80823896   0.378   5.641   6.331  1.7610  0.0442  1.2481
   25MOL   H80923897   0.421   5.557   6.186 -0.6709 -1.9321 -0.1387
   25MOL   H81023898   0.760   5.607   6.546 -1.0366  0.6971  1.6875
   25MOL   H81123899   0.653   5.487   6.602 -1.4906  1.0424 -1.5076
   25MOL   H81223900   0.716   5.319   6.412 -1.5978  0.9523  0.5943
   25MOL   H81323901   0.844   5.347   6.528 -0.2491  1.2800  1.1861
   25MOL   H81423902   0.941   5.520   6.353  0.3882 -0.3997  0.2643
   25MOL   H81523903   0.819   5.461   6.247 -0.7134 -1.5002 -0.2464
   25MOL   H81623904   0.994   5.258   6.374 -1.6034 -2.0814 -0.6131
   25MOL   H81723905   1.047   5.350   6.230 -1.2767  1.8826 -0.3621
   25MOL   O81823906   0.791   5.150   6.267  0.0587 -0.1171 -0.0295
   25MOL   C81923907   0.692   5.072   6.199  0.8957  0.0838  0.0773
   25MOL   C82023908   0.684   4.927   6.255  0.5533  0.3448 -0.0459
   25MOL   C82123909   0.824   4.860   6.263  0.1601  0.0455 -0.3567
   25MOL   C82223910   0.875   4.830   6.127  0.1752  0.4520  0.7935
   25MOL   C82323911   0.989   4.726   6.121  0.5047 -0.5387  0.3422
   25MOL   C82423912   1.125   4.793   6.118  0.4439  0.0135  0.2794
   25MOL   C82523913   1.240   4.700   6.148  0.1793 -0.0935 -0.3038
   25MOL   C82623914   1.277   4.690   6.299  0.5671  0.5197 -0.3368
   25MOL   C82723915   1.398   4.602   6.332 -0.1677 -0.3659 -0.1019
   25MOL   C82823916   1.530   4.661   6.280 -0.2423 -0.2382 -0.4143
   25MOL   O82923917   1.637   4.570   6.299  0.3029  0.1307  0.5362
   25MOL   C83023918   1.762   4.606   6.253  0.2154  0.1517 -0.2788
   25MOL   O83123919   1.815   4.718   6.224 -0.3419  0.7255 -0.6491
   25MOL   C83223920   1.847   4.481   6.234 -0.1153 -0.8017 -0.0153
   25MOL   C83323921   1.821   4.417   6.096  0.3461 -0.1129 -0.0511
   25MOL   C83423922   1.875   4.499   5.976 -0.4118 -0.0396  0.5398
   25MOL   C83523923   2.027   4.482   5.959 -0.3630  0.5354 -0.3887
   25MOL   C83623924   2.088   4.551   5.842 -0.9568  0.0083 -0.3783
   25MOL   O83723925   2.020   4.634   5.782 -0.4929 -0.3747  0.5510
   25MOL   H83823926   0.594   5.115   6.219 -0.9126 -3.3070 -1.1041
   25MOL   H83923927   0.716   5.072   6.092  1.4749 -1.1359  0.1947
   25MOL   H84023928   0.610   4.866   6.202 -0.6772 -0.5195  2.6113
   25MOL   H84123929   0.649   4.942   6.357  2.3892  0.5619  0.5730
   25MOL   H84223930   0.883   4.920   6.332  0.6472  0.6331 -1.2730
   25MOL   H84323931   0.813   4.761   6.307 -0.1756 -0.6254 -1.8863
   25MOL   H84423932   0.898   4.921   6.072 -1.0145 -0.2498 -0.9096
   25MOL   H84523933   0.791   4.785   6.073 -2.6109  3.4738  2.4372
   25MOL   H84623934   0.976   4.682   6.022  1.0151 -1.3266  0.6204
   25MOL   H84723935   0.979   4.650   6.198 -2.1931  0.6256  1.2017
   25MOL   H84823936   1.131   4.878   6.186 -2.5929 -1.0398  1.9487
   25MOL   H84923937   1.134   4.841   6.021 -1.8276 -0.2567 -0.0850
   25MOL   H85023938   1.326   4.740   6.094 -0.9416 -0.0764 -2.0957
   25MOL   H85123939   1.204   4.607   6.104 -0.2606 -1.2037  2.3141
   25MOL   H85223940   1.201   4.639   6.358  1.7636 -0.2352  0.5842
   25MOL   H85323941   1.287   4.787   6.349  0.9332 -0.8378  2.3237
   25MOL   H85423942   1.399   4.571   6.437 -2.6510 -2.4295 -0.6352
   25MOL   H85523943   1.381   4.507   6.281  2.3133  0.8168 -3.2655
   25MOL   H85623944   1.557   4.742   6.348 -2.3070  0.4008 -0.3353
   25MOL   H85723945   1.511   4.693   6.177 -0.6769 -1.8211 -0.8412
   25MOL   H85823946   1.954   4.499   6.225  0.0795 -1.7803  0.3143
   25MOL   H85923947   1.821   4.401   6.303  3.3134 -2.7002 -0.8034
   25MOL   H86023948   1.713   4.412   6.087  0.2703  0.8371  0.1978
   25MOL   H86123949   1.855   4.314   6.100  0.1780 -0.1993 -0.8501
   25MOL   H86223950   1.849   4.605   5.981  1.5254  0.5424 -0.8374
   25MOL   H86323951   1.830   4.475   5.880 -2.8730  2.1488  1.0861
   25MOL   H86423952   2.063   4.381   5.940  0.9188  0.8799  0.1233
   25MOL   H86523953   2.095   4.524   6.033 -0.4315  0.5561 -0.3389
   25MOL   O86623954   2.217   4.539   5.832 -0.1889  0.6423  0.1123
   25MOL   C86723955   2.278   4.617   5.734  0.4194  0.3171 -0.0792
   25MOL   C86823956   2.333   4.740   5.805 -0.3339 -0.9296  0.1859
   25MOL   C86923957   2.434   4.811   5.709  0.1768  0.4720 -0.1747
   25MOL   C87023958   2.450   4.962   5.727  0.2675  0.0900 -0.2796
   25MOL   C87123959   2.563   5.011   5.627  0.6173 -0.4763 -0.2851
   25MOL   C87223960   2.570   5.162   5.638 -0.7215  0.1839  0.0663
   25MOL   C87323961   2.691   5.213   5.556 -0.7860  0.3210  0.2779
   25MOL   C87423962   2.709   5.361   5.578 -0.1909 -0.0182 -0.6600
   25MOL   C87523963   2.835   5.422   5.515  0.0428  0.7491 -0.3918
   25MOL   C87623964   2.855   5.558   5.573 -0.1657 -0.0022 -0.3705
   25MOL   O87723965   2.918   5.557   5.694 -0.0255  0.1808  0.0856
   25MOL   C87823966   2.859   5.602   5.804  0.4307  0.1195  0.6456
   25MOL   O87923967   2.761   5.667   5.816 -0.3180  0.5215  0.5136
   25MOL   C88023968   2.941   5.589   5.925 -0.0090  0.0263 -0.7438
   25MOL   C88123969   2.989   5.443   5.947 -0.5187 -0.9937 -0.2307
   25MOL   C88223970   2.873   5.355   5.982  0.6935 -0.1186 -0.7727
   25MOL   C88323971   2.910   5.201   5.974 -0.7006  0.2401 -0.0780
   25MOL   C88423972   2.778   5.119   6.010 -0.3523  0.4958  0.8111
   25MOL   O88523973   2.731   5.037   5.931 -0.3408  1.0623 -0.2271
   25MOL   H88623974   2.371   4.573   5.696  1.6435  2.2223  0.6147
   25MOL   H88723975   2.217   4.654   5.652  0.9445  3.4577  0.8797
   25MOL   H88823976   2.378   4.730   5.904 -0.8721  1.0265  0.6665
   25MOL   H88923977   2.248   4.804   5.829 -1.5951 -2.2040 -0.8312
   25MOL   H89023978   2.532   4.764   5.720 -0.7150 -1.9388 -2.0328
   25MOL   H89123979   2.408   4.785   5.607 -3.4368  1.2809  0.4475
   25MOL   H89223980   2.470   4.980   5.833  1.9900  3.7353 -1.1664
   25MOL   H89323981   2.356   5.014   5.710  1.0871  1.9152  0.5784
   25MOL   H89423982   2.522   4.978   5.532  1.3524  0.5006 -0.9471
   25MOL   H89523983   2.660   4.968   5.652 -0.3274 -2.5240 -0.0361
   25MOL   H89623984   2.579   5.206   5.738 -0.1732  2.7269 -1.0741
   25MOL   H89723985   2.478   5.200   5.594 -1.1631  0.0741  0.8819
   25MOL   H89823986   2.691   5.180   5.452  2.8664 -0.7993  0.5504
   25MOL   H89923987   2.782   5.165   5.593 -0.4054  0.3261 -0.6268
   25MOL   H90023988   2.715   5.369   5.687  0.2226  0.1190 -0.6915
   25MOL   H90123989   2.623   5.423   5.556  0.4227  1.8566  1.9583
   25MOL   H90223990   2.917   5.354   5.536 -1.3333 -0.6610  0.5544
   25MOL   H90323991   2.837   5.440   5.408 -1.5151 -0.6526 -0.6684
   25MOL   H90423992   2.760   5.610   5.564 -0.3176  0.0637  1.4883
   25MOL   H90523993   2.920   5.608   5.501  0.4573 -0.9595 -0.4898
   25MOL   H90623994   3.025   5.659   5.920 -0.6107  0.9046  1.1062
   25MOL   H90723995   2.895   5.626   6.016 -1.3558  0.5526 -1.6221
   25MOL   H90823996   3.061   5.445   6.029 -0.8352 -1.4256  0.0538
   25MOL   H90923997   3.028   5.409   5.852 -3.9906 -1.3575 -1.5893
   25MOL   H91023998   2.791   5.371   5.912  0.3214  0.0699 -0.2951
   25MOL   H91123999   2.840   5.380   6.083 -1.5331 -0.2453 -1.4478
   25MOL   H91224000   2.977   5.167   6.053 -0.1660 -2.0353 -1.4926
   25MOL   H91324001   2.951   5.186   5.874  0.8793 -2.0781  0.8743
   25MOL   O91424002   2.732   5.152   6.126 -0.0410 -0.1185  0.0477
   25MOL   C91524003   2.620   5.084   6.184 -0.1518 -0.2795 -0.3719
   25MOL   C91624004   2.489   5.172   6.161  0.4862 -0.1325  0.2099
   25MOL   C91724005   2.365   5.125   6.238 -0.6084  0.1472  0.4427
   25MOL   C91824006   2.228   5.196   6.206 -0.8516 -0.2416  0.0967
   25MOL   C91924007   2.117   5.132   6.285 -0.1371  0.0800 -0.7296
   25MOL   C92024008   1.985   5.160   6.229  0.2872 -0.4883 -0.1032
   25MOL   C92124009   1.876   5.132   6.330 -0.1383 -0.0391 -0.8091
   25MOL   C92224010   1.741   5.119   6.262 -0.5545  0.2218  0.5405
   25MOL   C92324011   1.629   5.063   6.349  0.3374  0.0349  0.1805
   25MOL   C92424012   1.498   5.037   6.266 -0.5252  0.0812  0.2053
   25MOL   O92524013   1.384   5.026   6.348 -0.0665  0.4191 -0.1345
   25MOL   C92624014   1.278   5.095   6.321 -0.1277  0.3946  0.5295
   25MOL   O92724015   1.263   5.171   6.223 -0.3066  0.1539 -0.6715
   25MOL   C92824016   1.172   5.077   6.436 -0.3944  0.0257 -0.9316
   25MOL   C92924017   1.187   5.190   6.546 -0.4382 -0.0356 -0.0272
   25MOL   C93024018   1.321   5.198   6.617 -0.2506  0.3822  0.0264
   25MOL   C93124019   1.303   5.259   6.762  0.0343  0.3243 -1.0098
   25MOL   C93224020   1.432   5.248   6.835 -0.4564 -0.1212  0.0461
   25MOL   O93324021   1.480   5.140   6.865 -0.1314 -0.6235  0.1777
   25MOL   H93424022   2.603   4.989   6.134 -0.8421  0.5423 -1.7170
   25MOL   H93524023   2.633   5.060   6.290 -1.2759 -2.8402 -0.7888
   25MOL   H93624024   2.464   5.168   6.055 -0.9731 -1.0531  0.5766
   25MOL   H93724025   2.503   5.278   6.180 -1.3374  0.6665 -2.7030
   25MOL   H93824026   2.352   5.017   6.227  0.6135 -0.0169  0.5800
   25MOL   H93924027   2.371   5.140   6.346 -0.2594  1.6515  0.2118
   25MOL   H94024028   2.221   5.182   6.098  1.2263 -0.9750  0.0236
   25MOL   H94124029   2.240   5.301   6.234 -0.5292  0.0195 -0.9881
   25MOL   H94224030   2.121   5.184   6.381 -0.7470 -1.1100 -0.0384
   25MOL   H94324031   2.129   5.025   6.306  0.2651  0.0314 -1.1898
   25MOL   H94424032   1.958   5.099   6.143 -1.8943  0.0922  0.1415
   25MOL   H94524033   1.979   5.267   6.208  0.7212 -0.0344  2.0573
   25MOL   H94624034   1.871   5.200   6.415  1.5657  1.1330 -1.6286
   25MOL   H94724035   1.912   5.050   6.393 -0.2760  0.2344 -0.3729
   25MOL   H94824036   1.753   5.052   6.178 -0.3424 -0.6698  1.2829
   25MOL   H94924037   1.717   5.216   6.218 -0.6388  0.3262  0.8119
   25MOL   H95024038   1.655   4.966   6.392 -0.9586  0.5938  2.3082
   25MOL   H95124039   1.614   5.137   6.427  2.2725 -0.3655  0.9579
   25MOL   H95224040   1.511   4.944   6.212 -2.3494 -0.5151  0.7821
   25MOL   H95324041   1.485   5.114   6.190 -0.8690 -1.0357 -0.8835
   25MOL   H95424042   1.069   5.083   6.400 -1.4627 -0.7431  1.8388
   25MOL   H95524043   1.181   4.982   6.489 -1.8747 -1.0850 -2.6160
   25MOL   H95624044   1.114   5.186   6.627 -0.1270 -2.4458  0.1511
   25MOL   H95724045   1.154   5.283   6.500 -0.8000  0.5431  1.3598
   25MOL   H95824046   1.382   5.246   6.540 -0.5375  1.1415  0.2751
   25MOL   H95924047   1.367   5.099   6.620  2.7790  1.7381  0.0997
   25MOL   H96024048   1.231   5.198   6.817  0.5085  0.8347  0.1927
   25MOL   H96124049   1.268   5.362   6.759 -1.4753  0.1082  4.3896
   25MOL   H96224050   1.486   5.340   6.857 -1.1084  0.3369 -0.2463
   26MOL     O124051   0.288   7.443   0.821 -0.0738  0.2936  0.5487
   26MOL     C224052   0.269   7.303   0.797 -0.1530 -0.4887  0.3075
   26MOL     C324053   0.277   7.237   0.928 -0.4583  0.0438 -0.1065
   26MOL     C424054   0.211   7.098   0.915 -0.0614 -0.2673 -1.2714
   26MOL     C524055   0.207   7.030   1.051  0.1962 -0.1121  0.0093
   26MOL     C624056   0.124   6.901   1.027 -0.4378 -0.3717 -0.6905
   26MOL     C724057   0.101   6.824   1.153  0.4780  0.4304  0.1285
   26MOL     C824058   0.146   6.675   1.145 -0.0624  0.5309  0.0578
   26MOL     C924059   0.129   6.596   1.274 -1.2316 -0.7611  0.1025
   26MOL    C1024060   0.173   6.448   1.254 -0.7966 -0.0539  0.1700
   26MOL    C1124061   0.139   6.360   1.375  0.0138  0.0520  0.1824
   26MOL    O1224062   0.176   6.226   1.355  0.4191  0.2750 -0.2990
   26MOL    C1324063   0.175   6.143   1.456 -0.4117 -0.1268  0.3980
   26MOL    O1424064   0.129   6.164   1.568 -0.4927 -0.2814  0.1787
   26MOL    C1524065   0.223   6.003   1.428 -0.1849  0.0479 -0.2586
   26MOL    C1624066   0.326   5.954   1.529 -0.5104 -0.2764 -0.1425
   26MOL    C1724067   0.376   5.807   1.505 -0.4475  0.3298  0.4555
   26MOL    C1824068   0.472   5.745   1.602 -0.2867  0.0693  0.5670
   26MOL    C1924069   0.407   5.695   1.729 -0.1275 -0.0347 -0.9445
   26MOL    O2024070   0.366   5.769   1.818 -0.3713  0.2169 -0.4291
   26MOL    H2124071   0.171   7.306   0.749 -0.0376 -1.0483  0.0366
   26MOL    H2224072   0.339   7.260   0.725 -1.8275  0.2035 -1.7813
   26MOL    H2324073   0.223   7.292   1.006  1.9543  0.1872  1.5250
   26MOL    H2424074   0.379   7.222   0.964 -0.7628 -1.9697 -0.0681
   26MOL    H2524075   0.107   7.113   0.886 -0.0173  1.1440 -0.6877
   26MOL    H2624076   0.265   7.032   0.847  0.7863 -0.1506 -0.7212
   26MOL    H2724077   0.147   7.087   1.122  0.8470  1.8465 -0.9729
   26MOL    H2824078   0.305   7.011   1.095 -0.2751  1.1965  1.6762
   26MOL    H2924079   0.168   6.832   0.954 -0.2757 -0.3143 -0.6477
   26MOL    H3024080   0.029   6.937   0.987 -1.2378 -0.3184  1.2166
   26MOL    H3124081   7.759   6.837   1.172  0.0152 -0.1601 -1.8767
   26MOL    H3224082   0.149   6.872   1.238  0.3499  1.2595 -0.2551
   26MOL    H3324083   0.253   6.684   1.125 -0.3471 -0.0249 -1.7992
   26MOL    H3424084   0.103   6.614   1.066 -1.3354  0.0563  1.0950
   26MOL    H3524085   0.023   6.593   1.297 -1.0106  0.5249  1.2820
   26MOL    H3624086   0.186   6.648   1.351 -0.6650  2.3873 -2.3688
   26MOL    H3724087   0.132   6.400   1.164  0.6504 -0.8496 -0.0792
   26MOL    H3824088   0.281   6.440   1.254 -0.8805 -1.3928  0.2484
   26MOL    H3924089   0.034   6.370   1.400  0.5387  1.4218  1.9683
   26MOL    H4024090   0.195   6.399   1.460  1.0418  1.4831 -1.1236
   26MOL    H4124091   0.136   5.938   1.437  1.3253 -1.8524  1.2276
   26MOL    H4224092   0.251   6.004   1.323  0.7795 -0.9888 -0.0201
   26MOL    H4324093   0.282   5.962   1.628  2.1404  1.4760  0.9340
   26MOL    H4424094   0.409   6.022   1.508  0.8888 -1.7762  0.4213
   26MOL    H4524095   0.415   5.809   1.403  1.7973  0.2890  1.2799
   26MOL    H4624096   0.283   5.750   1.498  0.0378 -0.5949  1.4467
   26MOL    H4724097   0.546   5.821   1.628  0.0229  0.0098 -0.1532
   26MOL    H4824098   0.512   5.657   1.554 -0.5277  0.1224  0.2637
   26MOL    H4924099   0.317   7.485   0.742 -0.8205 -1.8768 -0.9406
   26MOL    O5024100   0.380   5.561   1.725 -0.9011 -0.2760 -0.0398
   26MOL    C5124101   0.296   5.503   1.823 -0.3338 -0.5067 -0.0295
   26MOL    C5224102   0.283   5.352   1.815 -0.5018  0.2586 -0.4891
   26MOL    C5324103   0.210   5.304   1.692 -0.1944  0.0154  0.0492
   26MOL    C5424104   0.200   5.148   1.694 -0.7371  0.5118  0.6733
   26MOL    C5524105   0.133   5.076   1.580  0.0395  0.1012  0.4254
   26MOL    C5624106   0.142   4.918   1.589 -0.4543  0.5261 -0.5463
   26MOL    C5724107   0.285   4.869   1.557 -0.6451 -0.0448 -0.3055
   26MOL    C5824108   0.302   4.711   1.551  0.2484 -0.3096  0.2537
   26MOL    C5924109   0.439   4.678   1.499  0.1539 -0.2408 -1.0125
   26MOL    C6024110   0.474   4.528   1.507  0.0525 -0.0986 -0.6555
   26MOL    O6124111   0.505   4.488   1.639  0.1270 -0.1381  0.2498
   26MOL    C6224112   0.630   4.450   1.678  0.5621  0.0231 -0.0062
   26MOL    O6324113   0.729   4.464   1.603  0.9110  0.5664  0.0814
   26MOL    C6424114   0.624   4.363   1.803 -0.0502  0.5064 -0.2761
   26MOL    C6524115   0.756   4.369   1.870 -0.1032  0.4365 -0.6824
   26MOL    C6624116   0.770   4.254   1.980 -0.3276  0.3038 -0.2284
   26MOL    C6724117   0.909   4.245   2.044 -0.0859 -0.0399  0.3174
   26MOL    C6824118   0.932   4.356   2.150  0.2225 -0.0891 -0.6905
   26MOL    O6924119   0.955   4.322   2.259  0.4748 -0.1009  0.0835
   26MOL    H7024120   0.351   5.518   1.916 -0.8962  0.2822  0.1819
   26MOL    H7124121   0.199   5.551   1.820  0.0749  0.2662 -1.0056
   26MOL    H7224122   0.221   5.321   1.899 -1.1791 -0.4394 -1.2416
   26MOL    H7324123   0.378   5.299   1.827 -0.5675  0.4479  1.0235
   26MOL    H7424124   0.108   5.340   1.702 -0.5728 -1.5151  2.0783
   26MOL    H7524125   0.261   5.338   1.602  0.6956  0.3040  0.6510
   26MOL    H7624126   0.163   5.109   1.789  1.2401 -0.6843  0.9942
   26MOL    H7724127   0.301   5.107   1.686 -0.5324  0.9925  0.7700
   26MOL    H7824128   0.179   5.104   1.485  2.2600 -2.2355  0.7419
   26MOL    H7924129   0.026   5.090   1.589 -0.0814  0.0632 -0.8849
   26MOL    H8024130   0.073   4.867   1.522  1.6487 -2.7055 -0.4169
   26MOL    H8124131   0.120   4.888   1.691  0.3320  0.8633 -0.2696
   26MOL    H8224132   0.349   4.896   1.641 -1.3929 -0.1541  0.2989
   26MOL    H8324133   0.320   4.906   1.460 -1.3041  2.2853  0.3090
   26MOL    H8424134   0.226   4.674   1.483  0.1880  0.7948 -0.2960
   26MOL    H8524135   0.258   4.658   1.635  0.9344 -0.7547  0.3384
   26MOL    H8624136   0.442   4.720   1.398 -3.0500 -1.5474 -1.6902
   26MOL    H8724137   0.513   4.732   1.558  0.2183  0.2751 -1.5551
   26MOL    H8824138   0.549   4.505   1.431 -0.6232  1.0021 -1.6817
   26MOL    H8924139   0.388   4.467   1.480 -0.4166 -0.3127  1.2703
   26MOL    H9024140   0.551   4.398   1.876 -0.7388  2.3493 -1.7979
   26MOL    H9124141   0.610   4.255   1.790 -1.3680  0.6881 -0.3884
   26MOL    H9224142   0.774   4.469   1.909 -0.5748  0.9488 -1.7560
   26MOL    H9324143   0.836   4.344   1.800 -0.4710 -1.0631 -0.5819
   26MOL    H9424144   0.743   4.154   1.947  0.3787 -0.5296  1.6348
   26MOL    H9524145   0.696   4.276   2.056  1.3635  0.0301  1.5412
   26MOL    H9624146   0.989   4.224   1.974 -1.5054 -2.4957 -0.6183
   26MOL    H9724147   0.904   4.158   2.110  2.3500 -1.3572 -1.1854
   26MOL    O9824148   0.935   4.477   2.094  0.1586 -0.8210  0.2210
   26MOL    C9924149   0.956   4.589   2.185  0.2051 -0.2882 -0.0986
   26MOL   C10024150   0.973   4.717   2.106  0.0569 -0.5214 -0.6312
   26MOL   C10124151   0.870   4.728   1.988 -0.3809 -0.7150 -0.6749
   26MOL   C10224152   0.862   4.867   1.923 -0.5448 -0.7264  0.4178
   26MOL   C10324153   0.769   4.868   1.802 -0.1108  0.1128 -0.3826
   26MOL   C10424154   0.783   4.987   1.708 -0.6474 -0.0726 -0.6234
   26MOL   C10524155   0.663   4.997   1.607 -0.2647 -0.2221  0.1870
   26MOL   C10624156   0.676   5.097   1.492  0.4189 -0.0817 -0.4449
   26MOL   C10724157   0.550   5.101   1.396  0.4006  0.4217 -0.0203
   26MOL   C10824158   0.562   5.179   1.262  0.4291 -0.5766 -0.2731
   26MOL   O10924159   0.568   5.320   1.281 -0.4678  0.2903 -0.2797
   26MOL   C11024160   0.546   5.407   1.192  0.3532 -0.8154  0.0066
   26MOL   O11124161   0.524   5.378   1.075  0.2237 -0.2394  0.5495
   26MOL   C11224162   0.552   5.545   1.240 -0.1278  0.2500  0.7655
   26MOL   C11324163   0.691   5.605   1.244  0.3237 -0.1649 -0.3841
   26MOL   C11424164   0.715   5.715   1.351  0.0484  0.2596  0.3193
   26MOL   C11524165   0.853   5.778   1.347  0.2674 -0.1370 -0.1560
   26MOL   C11624166   0.957   5.746   1.451 -0.3980 -0.1763 -0.3952
   26MOL   O11724167   0.943   5.654   1.528  0.2801 -0.3892  0.3016
   26MOL   H11824168   0.862   4.592   2.240 -0.5108 -0.1438 -1.3226
   26MOL   H11924169   1.036   4.571   2.257  0.0164 -1.1664 -0.0975
   26MOL   H12024170   1.068   4.713   2.054  0.4355  2.8120 -0.2479
   26MOL   H12124171   0.954   4.804   2.168  0.8584 -1.1249  0.4789
   26MOL   H12224172   0.885   4.652   1.912  1.1554 -0.4000 -0.7030
   26MOL   H12324173   0.768   4.704   2.017 -0.9420  1.3522 -0.8492
   26MOL   H12424174   0.965   4.884   1.891 -1.6312 -0.0480 -2.9201
   26MOL   H12524175   0.836   4.948   1.991 -1.3078 -0.2478 -0.4333
   26MOL   H12624176   0.665   4.866   1.836 -0.5831  1.6165 -1.6359
   26MOL   H12724177   0.793   4.775   1.752  1.9533  0.7988 -0.7386
   26MOL   H12824178   0.882   4.984   1.663 -0.6557 -0.3722 -0.6214
   26MOL   H12924179   0.781   5.085   1.756 -0.0424  0.6713 -2.0834
   26MOL   H13024180   0.576   5.019   1.668 -0.4760 -2.6829  0.8237
   26MOL   H13124181   0.643   4.900   1.561 -1.0369  0.0348 -0.0160
   26MOL   H13224182   0.759   5.052   1.437  0.4535 -1.5963  0.7810
   26MOL   H13324183   0.715   5.196   1.517  1.6330 -0.5956 -0.2482
   26MOL   H13424184   0.515   5.004   1.361 -1.0275  0.1111  2.2237
   26MOL   H13524185   0.460   5.129   1.450 -0.0756 -0.1502 -0.5058
   26MOL   H13624186   0.487   5.149   1.190  0.2256 -1.8666  0.4649
   26MOL   H13724187   0.659   5.149   1.223 -0.0859 -0.8616 -1.3382
   26MOL   H13824188   0.487   5.604   1.176  0.5566  1.4870  1.2072
   26MOL   H13924189   0.504   5.549   1.338  0.5162 -0.1256  1.1046
   26MOL   H14024190   0.712   5.651   1.148  0.0575  1.0825  0.1478
   26MOL   H14124191   0.760   5.521   1.258  0.4303  0.1452  1.0579
   26MOL   H14224192   0.702   5.662   1.446  2.4379 -2.8035 -0.9640
   26MOL   H14324193   0.649   5.798   1.328  1.2216  0.5874 -2.0656
   26MOL   H14424194   0.823   5.883   1.343 -0.9025 -0.4912 -1.2371
   26MOL   H14524195   0.892   5.764   1.246 -2.8843 -0.3481 -1.3876
   26MOL   O14624196   1.071   5.820   1.434 -0.1669 -0.3174 -0.0194
   26MOL   C14724197   1.189   5.789   1.511  0.6209  1.0122  0.2420
   26MOL   C14824198   1.212   5.864   1.649  0.1306 -0.0216  0.0705
   26MOL   C14924199   1.312   5.787   1.732  0.2490 -0.1263 -0.8536
   26MOL   C15024200   1.319   5.844   1.880  0.0761  0.6986  0.0950
   26MOL   C15124201   1.365   5.737   1.978  0.3499 -0.3043  0.6067
   26MOL   C15224202   1.270   5.620   2.007 -0.0244  0.1313  0.3565
   26MOL   C15324203   1.342   5.505   2.076  0.4249  0.4954  0.2249
   26MOL   C15424204   1.256   5.369   2.090  0.3654 -0.0965  0.1196
   26MOL   C15524205   1.332   5.249   2.152 -1.2428  0.1124 -0.3414
   26MOL   C15624206   1.241   5.141   2.212  0.1407 -0.5400 -0.9607
   26MOL   O15724207   1.319   5.020   2.228  0.3392 -0.3922  0.3245
   26MOL   C15824208   1.258   4.914   2.262 -0.1516 -0.2479 -0.5782
   26MOL   O15924209   1.139   4.901   2.292 -0.4006  0.4073 -0.0932
   26MOL   C16024210   1.353   4.801   2.259 -1.0344 -0.0540  0.5458
   26MOL   C16124211   1.299   4.662   2.315 -0.3638  0.2736  0.3292
   26MOL   C16224212   1.411   4.577   2.375  0.3639 -0.1297  0.0320
   26MOL   C16324213   1.370   4.434   2.410  0.2757 -0.6799 -0.2778
   26MOL   C16424214   1.351   4.407   2.558  0.6181 -0.9295 -0.6350
   26MOL   O16524215   1.384   4.491   2.645  0.1849  0.2220  0.3532
   26MOL   H16624216   1.197   5.683   1.535 -0.4814  0.8799  0.0502
   26MOL   H16724217   1.280   5.801   1.452  0.0892 -1.3199 -1.0965
   26MOL   H16824218   1.117   5.849   1.701  1.1846  0.7550  2.2814
   26MOL   H16924219   1.238   5.969   1.635 -1.7533  0.1248 -2.8705
   26MOL   H17024220   1.282   5.683   1.742 -0.6950  0.1470 -0.7485
   26MOL   H17124221   1.407   5.773   1.680  1.0466  0.2945  0.4480
   26MOL   H17224222   1.224   5.884   1.916 -0.6733 -0.3598 -0.6751
   26MOL   H17324223   1.382   5.932   1.893  0.3742  0.4578  0.2826
   26MOL   H17424224   1.391   5.788   2.071 -0.7427  1.3794  0.0059
   26MOL   H17524225   1.461   5.698   1.943 -0.7568  1.4807 -4.8401
   26MOL   H17624226   1.222   5.582   1.917  1.7520  0.1545 -0.6178
   26MOL   H17724227   1.178   5.653   2.056 -0.1367  0.4001 -0.0350
   26MOL   H17824228   1.364   5.531   2.179 -1.6738  0.7460  0.6402
   26MOL   H17924229   1.433   5.478   2.023  0.2587  0.0921  0.1455
   26MOL   H18024230   1.217   5.343   1.992  0.9412 -0.1531 -0.0959
   26MOL   H18124231   1.174   5.396   2.157 -1.1903 -1.3100 -1.2529
   26MOL   H18224232   1.394   5.200   2.077 -0.7526  0.2349 -0.0195
   26MOL   H18324233   1.398   5.292   2.228 -1.5261  0.2659 -0.1819
   26MOL   H18424234   1.163   5.125   2.138  0.1638  0.3581 -1.1874
   26MOL   H18524235   1.197   5.176   2.305  3.6503 -0.0907  0.6102
   26MOL   H18624236   1.397   4.793   2.159  2.0169  4.1615  1.3679
   26MOL   H18724237   1.436   4.826   2.325 -0.9258 -1.2491  0.8603
   26MOL   H18824238   1.254   4.604   2.235 -1.5798  0.2264  1.0466
   26MOL   H18924239   1.220   4.679   2.387  2.2255  0.9404  3.1171
   26MOL   H19024240   1.460   4.628   2.457  0.0666  0.6261 -0.2567
   26MOL   H19124241   1.489   4.573   2.299  0.2392  0.3230 -0.1198
   26MOL   H19224242   1.448   4.368   2.372 -1.1516 -1.4676 -1.9129
   26MOL   H19324243   1.282   4.417   2.348  0.1987 -0.0173 -0.3499
   26MOL   O19424244   1.287   4.291   2.584  0.2037 -0.8079 -0.0870
   26MOL   C19524245   1.274   4.253   2.723  1.1977  0.8933 -0.0525
   26MOL   C19624246   1.357   4.122   2.753  0.8032  0.9158  0.3643
   26MOL   C19724247   1.296   4.005   2.675 -0.1045 -0.8641  0.0424
   26MOL   C19824248   1.356   3.878   2.715  0.0581  0.2068  0.6177
   26MOL   C19924249   1.342   3.759   2.622  0.3603  0.0649  0.1148
   26MOL   C20024250   1.191   3.722   2.618  0.6982 -0.7176  0.1101
   26MOL   C20124251   1.155   3.610   2.529  0.3182  0.5629  0.0485
   26MOL   C20224252   1.180   3.639   2.380 -0.0162  0.2346  0.1211
   26MOL   C20324253   1.072   3.573   2.287  1.1137 -0.7548  0.0007
   26MOL   C20424254   1.102   3.421   2.254  0.1758  0.2299  0.2517
   26MOL   O20524255   1.213   3.432   2.165 -0.0856 -0.2086  0.1899
   26MOL   C20624256   1.238   3.333   2.071  0.1376 -0.1296  0.6098
   26MOL   O20724257   1.193   3.215   2.077  0.1543 -0.2218  0.1772
   26MOL   C20824258   1.322   3.390   1.956 -0.4678  0.2841 -0.0573
   26MOL   C20924259   1.474   3.414   1.980 -0.0451  0.4566  0.1712
   26MOL   C21024260   1.505   3.533   2.069 -0.0700 -1.1180  0.0953
   26MOL   C21124261   1.656   3.574   2.077  0.0928 -0.6032  0.1658
   26MOL   C21224262   1.719   3.633   1.959 -0.0863 -0.0571 -0.6026
   26MOL   O21324263   1.827   3.592   1.915  0.0466  0.1982  0.8230
   26MOL   H21424264   1.302   4.325   2.800 -2.6190  3.1820 -0.6380
   26MOL   H21524265   1.167   4.238   2.739  1.1930 -0.2724 -1.0690
   26MOL   H21624266   1.349   4.097   2.859  1.3569 -2.0697 -0.2645
   26MOL   H21724267   1.464   4.134   2.738  1.1558 -1.5729  0.6916
   26MOL   H21824268   1.189   4.004   2.691 -0.1663  1.5358  0.0145
   26MOL   H21924269   1.297   4.027   2.568 -1.5275 -0.0117  0.1880
   26MOL   H22024270   1.324   3.852   2.816  0.2973  1.1319  0.9376
   26MOL   H22124271   1.462   3.903   2.721  0.4335 -0.6956 -1.5141
   26MOL   H22224272   1.413   3.679   2.641  0.4103  0.0412 -0.1711
   26MOL   H22324273   1.376   3.794   2.524  1.1979 -0.4521  0.2149
   26MOL   H22424274   1.140   3.812   2.584 -0.1097  0.0861  3.2447
   26MOL   H22524275   1.152   3.699   2.717 -0.3276 -1.1330 -0.3937
   26MOL   H22624276   1.049   3.588   2.537  0.4453  0.2278  0.8683
   26MOL   H22724277   1.204   3.517   2.559 -0.3100  0.4525  0.7259
   26MOL   H22824278   1.280   3.610   2.347  0.2580 -1.8537  2.5952
   26MOL   H22924279   1.166   3.745   2.362 -2.1123 -0.1598 -0.6827
   26MOL   H23024280   0.975   3.584   2.337  0.5539  0.3891 -1.2894
   26MOL   H23124281   1.060   3.636   2.199  0.9132  0.0140  0.5681
   26MOL   H23224282   1.013   3.377   2.210  0.8821 -0.4998 -0.4822
   26MOL   H23324283   1.124   3.349   2.333  0.0188 -0.1967 -0.0928
   26MOL   H23424284   1.317   3.308   1.884 -0.4891  0.4616 -0.2568
   26MOL   H23524285   1.284   3.479   1.907  2.3193  1.9542  0.7265
   26MOL   H23624286   1.535   3.426   1.891  2.3999 -0.2796  1.7192
   26MOL   H23724287   1.502   3.326   2.038 -1.2513  0.7372  1.2199
   26MOL   H23824288   1.474   3.519   2.173  0.6686 -1.6518  0.2465
   26MOL   H23924289   1.452   3.619   2.029  1.3381 -1.0191 -1.6154
   26MOL   H24024290   1.708   3.486   2.116  3.0241  1.4849  1.1321
   26MOL   H24124291   1.668   3.644   2.160 -3.2519  1.7792 -1.2719
   26MOL   O24224292   1.643   3.736   1.911  0.5232  0.0450 -0.0013
   26MOL   C24324293   1.708   3.828   1.828 -0.7127 -0.1796 -0.2678
   26MOL   C24424294   1.654   3.969   1.845  0.0206  0.3449  0.5381
   26MOL   C24524295   1.743   4.081   1.782 -0.0553 -0.4512  0.3661
   26MOL   C24624296   1.683   4.228   1.794 -0.1216  0.4234 -0.5951
   26MOL   C24724297   1.720   4.324   1.679 -0.3409 -0.0023  0.0955
   26MOL   C24824298   1.671   4.470   1.704 -0.2249  0.1732  0.0852
   26MOL   C24924299   1.680   4.563   1.588  0.1550  0.2714 -0.0402
   26MOL   C25024300   1.666   4.711   1.642 -0.0589 -0.0925 -0.0481
   26MOL   C25124301   1.653   4.817   1.529 -0.8563 -0.1715 -0.4855
   26MOL   C25224302   1.663   4.965   1.563 -0.0004  0.1606 -0.5871
   26MOL   O25324303   1.672   5.061   1.454 -0.2916 -0.4983 -0.5604
   26MOL   C25424304   1.649   5.188   1.481 -0.3621  0.1650  0.7150
   26MOL   O25524305   1.628   5.235   1.595 -0.3518  0.6823  0.5186
   26MOL   C25624306   1.640   5.285   1.358 -0.2234 -0.4796 -0.4165
   26MOL   C25724307   1.729   5.257   1.240  0.4908  0.1067 -1.1489
   26MOL   C25824308   1.676   5.311   1.099 -0.4204 -0.1310  0.5281
   26MOL   C25924309   1.759   5.292   0.967  0.3393  0.0655  0.3301
   26MOL   C26024310   1.905   5.347   0.967 -0.0693  0.4447 -0.0615
   26MOL   O26124311   1.977   5.336   1.067  0.1340 -0.2057  0.0048
   26MOL   H26224312   1.817   3.826   1.839 -0.7259 -0.4975 -0.2078
   26MOL   H26324313   1.690   3.794   1.726 -0.0822 -0.2075 -0.3766
   26MOL   H26424314   1.633   3.986   1.951 -0.2720 -1.2308  0.7481
   26MOL   H26524315   1.556   3.978   1.798  0.2155  0.9130  0.2379
   26MOL   H26624316   1.846   4.083   1.817 -0.5210  0.9415  1.7281
   26MOL   H26724317   1.752   4.069   1.675 -3.1710 -2.0724  0.2474
   26MOL   H26824318   1.719   4.268   1.889 -1.6243 -1.3695  0.7517
   26MOL   H26924319   1.574   4.225   1.792 -0.0433 -1.6105 -2.8750
   26MOL   H27024320   1.671   4.287   1.589 -0.6184  0.6886 -0.0385
   26MOL   H27124321   1.827   4.316   1.663 -0.4927 -2.2888  0.0466
   26MOL   H27224322   1.734   4.510   1.784 -0.3730  2.4048 -0.8791
   26MOL   H27324323   1.571   4.483   1.744  0.0298  2.5092  0.0420
   26MOL   H27424324   1.609   4.541   1.508  1.3104  0.5262 -1.1636
   26MOL   H27524325   1.771   4.554   1.528  0.7355  1.6424  0.6025
   26MOL   H27624326   1.760   4.729   1.694  1.6697 -4.1832 -1.5077
   26MOL   H27724327   1.578   4.723   1.706 -0.0242 -0.5875  0.1002
   26MOL   H27824328   1.723   4.796   1.449  0.6005 -0.7858  0.9376
   26MOL   H27924329   1.556   4.798   1.481 -0.7866  2.8701 -1.9365
   26MOL   H28024330   1.748   4.972   1.631  0.2086 -0.3007 -0.8009
   26MOL   H28124331   1.574   4.996   1.617  1.8779 -0.1858  2.8504
   26MOL   H28224332   1.538   5.297   1.320 -0.3892  1.5915  0.6396
   26MOL   H28324333   1.657   5.386   1.394  2.1006 -0.8368 -0.4866
   26MOL   H28424334   1.753   5.151   1.234 -2.1681 -0.6470  0.6550
   26MOL   H28524335   1.824   5.309   1.250 -0.5627  2.2458 -1.9572
   26MOL   H28624336   1.664   5.418   1.109  2.1615  0.4123 -1.6506
   26MOL   H28724337   1.571   5.283   1.087 -0.9290  1.6302  0.7534
   26MOL   H28824338   1.711   5.335   0.879 -0.0905 -0.7146  0.1816
   26MOL   H28924339   1.756   5.186   0.944 -3.0193  0.4051 -1.0600
   26MOL   O29024340   1.943   5.375   0.843 -0.0122 -0.2516 -0.2099
   26MOL   C29124341   2.062   5.444   0.823 -1.1418  0.4141  0.7461
   26MOL   C29224342   2.049   5.545   0.711  0.8194 -0.0800  0.5043
   26MOL   C29324343   2.191   5.577   0.661 -0.2861 -0.2707  0.1276
   26MOL   C29424344   2.201   5.672   0.539  0.2215  0.0509  0.6590
   26MOL   C29524345   2.339   5.722   0.503 -0.7748 -0.3192  0.5876
   26MOL   C29624346   2.400   5.812   0.609  0.5355  0.0930 -0.0860
   26MOL   C29724347   2.531   5.869   0.562 -0.8137  0.3627 -0.1666
   26MOL   C29824348   2.599   5.967   0.648 -0.1889  0.4501  0.1495
   26MOL   C29924349   2.724   6.020   0.582  0.1224  0.2275 -0.0838
   26MOL   C30024350   2.812   6.094   0.678  0.5062  0.5246  0.2156
   26MOL   O30124351   2.923   6.151   0.615  0.4527  0.1341 -0.0045
   26MOL   C30224352   3.037   6.169   0.683 -0.6038 -0.6617 -0.3179
   26MOL   O30324353   3.047   6.148   0.801  0.3670  0.1396 -0.3280
   26MOL   C30424354   3.157   6.205   0.589  0.0159 -0.8128  0.3542
   26MOL   C30524355   3.295   6.200   0.651  0.3070  0.4833  0.1137
   26MOL   C30624356   3.403   6.242   0.553 -0.6091  0.4250  0.0954
   26MOL   C30724357   3.531   6.195   0.608 -0.0661  0.2521  0.0485
   26MOL   C30824358   3.641   6.218   0.511 -0.1517  0.5879 -0.3025
   26MOL   O30924359   3.709   6.122   0.476 -0.5078  0.4580 -0.0776
   26MOL   H31024360   2.095   5.493   0.915  2.2093 -0.7849  0.2430
   26MOL   H31124361   2.143   5.377   0.795 -0.3133  0.7567  2.2279
   26MOL   H31224362   2.006   5.631   0.763 -0.8572  0.2873 -1.4032
   26MOL   H31324363   1.992   5.494   0.633  1.4535  0.5422 -0.3737
   26MOL   H31424364   2.247   5.620   0.744 -0.4932  1.7683 -0.7597
   26MOL   H31524365   2.244   5.484   0.643  1.6146  0.2655  2.7398
   26MOL   H31624366   2.147   5.764   0.562  0.4097  0.3570 -0.1168
   26MOL   H31724367   2.151   5.629   0.452  2.0163 -1.2609  0.2410
   26MOL   H31824368   2.339   5.776   0.408 -1.9427  0.4512  1.0205
   26MOL   H31924369   2.401   5.638   0.472 -0.0085 -0.1760  1.6925
   26MOL   H32024370   2.408   5.758   0.703  2.6273 -0.5370 -0.5987
   26MOL   H32124371   2.330   5.895   0.619 -0.1298 -0.4567 -0.1910
   26MOL   H32224372   2.517   5.911   0.463 -0.4328 -0.1211 -0.4255
   26MOL   H32324373   2.599   5.784   0.558 -2.0626 -0.6506  0.0291
   26MOL   H32424374   2.622   5.923   0.746  0.3235 -1.8049 -0.9596
   26MOL   H32524375   2.535   6.051   0.677 -0.3547  0.3051  0.2040
   26MOL   H32624376   2.788   5.943   0.540 -1.4839 -1.5688  0.6637
   26MOL   H32724377   2.709   6.074   0.488 -1.5511 -2.8882 -1.6969
   26MOL   H32824378   2.837   6.025   0.758 -3.1459 -0.0143  0.9822
   26MOL   H32924379   2.754   6.175   0.723  0.3850  2.0523 -2.5459
   26MOL   H33024380   3.154   6.122   0.518  0.0582  1.6096 -2.5430
   26MOL   H33124381   3.139   6.297   0.534  5.2662 -1.4109 -2.6791
   26MOL   H33224382   3.310   6.103   0.698 -1.8254  1.3224  2.6323
   26MOL   H33324383   3.305   6.273   0.731 -2.3999 -0.6515  1.5531
   26MOL   H33424384   3.397   6.350   0.543 -2.0366  0.1479 -2.2863
   26MOL   H33524385   3.378   6.203   0.455 -4.3374  1.7560  0.4456
   26MOL   H33624386   3.533   6.091   0.639 -0.7833 -0.0630 -0.9373
   26MOL   H33724387   3.559   6.250   0.698 -1.8485 -1.0256  1.4254
   26MOL   O33824388   3.653   6.344   0.470 -0.3740 -0.8561 -0.0237
   26MOL   C33924389   3.743   6.385   0.369 -0.6133 -0.2684 -0.4572
   26MOL   C34024390   3.878   6.420   0.425 -0.6876 -0.5399 -0.2916
   26MOL   C34124391   3.987   6.445   0.318  0.4326  0.6081  0.4719
   26MOL   C34224392   4.125   6.492   0.369  0.2643  0.4006  0.2499
   26MOL   C34324393   4.240   6.503   0.273  0.1589  0.5747 -0.4954
   26MOL   C34424394   4.250   6.638   0.189  0.0591  0.0388 -0.2196
   26MOL   C34524395   4.378   6.655   0.100 -0.4469 -0.2080 -0.2592
   26MOL   C34624396   4.374   6.570   7.738 -0.2399  0.0004  0.5647
   26MOL   C34724397   4.502   6.580   7.649 -0.6010 -0.2697 -0.0719
   26MOL   C34824398   4.486   6.502   7.517 -0.5496  0.5957  0.6120
   26MOL   O34924399   4.607   6.508   7.446 -0.5723 -0.0134 -0.3758
   26MOL   C35024400   4.620   6.440   7.336 -0.0255 -0.3657  0.3586
   26MOL   O35124401   4.540   6.371   7.278  0.1661  0.1223  0.1174
   26MOL   C35224402   4.759   6.457   7.273 -0.3032 -0.4012 -0.4396
   26MOL   C35324403   4.765   6.580   7.185  0.1035 -0.8718 -0.9332
   26MOL   C35424404   4.856   6.575   7.066 -0.1678 -0.7023 -1.2542
   26MOL   C35524405   5.013   6.555   7.092 -0.0924  0.5212 -0.2511
   26MOL   C35624406   5.085   6.674   7.166  0.3721 -0.1926 -0.1952
   26MOL   O35724407   5.127   6.654   7.281  0.1643 -0.5865  0.7628
   26MOL   H35824408   3.763   6.321   0.283 -0.0364 -1.1232  0.3167
   26MOL   H35924409   3.689   6.463   0.315 -1.7145 -0.7027  0.0117
   26MOL   H36024410   3.909   6.335   0.486 -3.5217 -0.2562  1.6561
   26MOL   H36124411   3.867   6.510   0.486 -1.4818 -0.0623 -1.1286
   26MOL   H36224412   4.013   6.360   0.255 -0.3850  1.1585 -0.6362
   26MOL   H36324413   3.942   6.520   0.252  1.5091  2.1390  1.4593
   26MOL   H36424414   4.138   6.422   0.451  0.0805 -0.0495 -0.0976
   26MOL   H36524415   4.109   6.589   0.415  0.1671  0.1976  0.6484
   26MOL   H36624416   4.221   6.418   0.207  1.2968  0.4882 -0.7166
   26MOL   H36724417   4.335   6.480   0.322  1.0925 -1.3954 -3.1129
   26MOL   H36824418   4.242   6.724   0.255 -0.4562 -0.4675  0.3927
   26MOL   H36924419   4.164   6.656   0.123 -0.5157  1.0949  0.7994
   26MOL   H37024420   4.464   6.620   0.156 -1.3268 -1.0859  0.5640
   26MOL   H37124421   4.373   6.761   0.075 -0.9018  0.1520  1.2966
   26MOL   H37224422   4.285   6.584   7.676 -0.9475  0.2437  1.6313
   26MOL   H37324423   4.366   6.465   0.004 -1.6127 -0.2375 -0.5348
   26MOL   H37424424   4.500   6.686   7.627  0.3110 -0.0137  1.0066
   26MOL   H37524425   4.601   6.559   7.690  0.5834 -1.8998 -3.5642
   26MOL   H37624426   4.408   6.553   7.459  0.3730  0.6508 -0.5874
   26MOL   H37724427   4.475   6.395   7.535  0.6082  0.0280 -1.8657
   26MOL   H37824428   4.829   6.488   7.351  0.5072  0.0794 -1.3355
   26MOL   H37924429   4.814   6.382   7.216  1.9227 -1.5932  3.1038
   26MOL   H38024430   4.806   6.658   7.248 -2.3866 -1.5175  1.5725
   26MOL   H38124431   4.666   6.607   7.146 -2.0799 -1.7049  3.7322
   26MOL   H38224432   4.841   6.660   7.000 -1.6327 -1.8156 -2.3916
   26MOL   H38324433   4.827   6.488   7.006 -2.6449 -1.2313  0.6466
   26MOL   H38424434   5.065   6.514   7.005  0.9295 -1.5878  1.3051
   26MOL   H38524435   5.030   6.475   7.164  1.5554  1.3279  0.2758
   26MOL   O38624436   5.091   6.787   7.094 -0.7088  0.3218  0.4985
   26MOL   C38724437   5.164   6.897   7.145  0.2956  0.1389  0.2708
   26MOL   C38824438   5.142   7.011   7.050 -0.0825 -0.7032  0.2772
   26MOL   C38924439   5.210   7.142   7.102  0.6137 -0.7905  0.3734
   26MOL   C39024440   5.210   7.267   7.003  0.6581  0.0588 -0.1137
   26MOL   C39124441   5.089   7.289   6.919 -0.2303 -0.7461 -0.1542
   26MOL   C39224442   4.976   7.348   7.000 -0.2336 -0.1322  0.0319
   26MOL   C39324443   4.845   7.353   6.919  0.3932  0.6230 -1.1411
   26MOL   C39424444   4.742   7.445   6.998 -0.1497  0.0923 -0.1972
   26MOL   C39524445   4.592   7.439   6.941 -0.3973 -0.7509 -0.4689
   26MOL   C39624446   4.511   7.559   6.972  0.0161  0.3500 -0.4224
   26MOL   O39724447   4.480   7.560   7.114 -0.8896 -0.6804 -0.2745
   26MOL   C39824448   4.544   7.650   7.187  0.0490  0.5331 -0.3571
   26MOL   O39924449   4.627   7.741   7.156  0.5601  0.0998  0.2997
   26MOL   C40024450   4.515   7.629   7.331 -0.3010 -0.0556 -0.2378
   26MOL   C40124451   4.367   7.614   7.366  0.0343 -0.1360  0.1577
   26MOL   C40224452   4.347   7.523   7.486  0.6243 -0.3004  0.3637
   26MOL   C40324453   4.349   7.613   7.612  0.0736 -0.4574 -0.3749
   26MOL   C40424454   4.316   7.539   7.743 -0.7699  0.0813  0.4066
   26MOL   O40524455   4.308   7.419   7.750  0.0468  0.3086  0.4567
   26MOL   H40624456   5.127   6.934   7.241  0.0599 -2.1684  1.0849
   26MOL   H40724457   5.266   6.859   7.158  1.2047  1.9742 -1.2313
   26MOL   H40824458   5.042   7.027   7.010 -1.1959 -4.1125  1.5912
   26MOL   H40924459   5.190   6.987   6.955  0.9323  0.4285  0.4789
   26MOL   H41024460   5.162   7.177   7.193  1.6780  0.4911  0.4577
   26MOL   H41124461   5.315   7.139   7.131  0.5493  2.1142  1.0817
   26MOL   H41224462   5.299   7.257   6.941  1.0168 -0.4556  0.4756
   26MOL   H41324463   5.233   7.362   7.050  0.7006 -0.7286  1.5044
   26MOL   H41424464   5.044   7.202   6.871  1.3533 -1.6194 -0.0812
   26MOL   H41524465   5.125   7.350   6.836 -0.8700  0.6208  0.5572
   26MOL   H41624466   5.016   7.446   7.024  0.0862 -0.0464 -0.8509
   26MOL   H41724467   4.972   7.294   7.095  0.8614  0.0115  0.1595
   26MOL   H41824468   4.818   7.249   6.903 -1.0998  0.8636 -0.2812
   26MOL   H41924469   4.863   7.399   6.822  1.6558 -1.1961 -1.7963
   26MOL   H42024470   4.788   7.544   6.998  2.0338 -0.8875  0.5747
   26MOL   H42124471   4.738   7.414   7.102  0.3587 -0.2515 -0.2776
   26MOL   H42224472   4.589   7.428   6.833 -0.0348 -1.0347 -0.4522
   26MOL   H42324473   4.538   7.345   6.955  1.3024 -1.7888 -0.6623
   26MOL   H42424474   4.414   7.565   6.923  0.6340  2.0235 -1.4760
   26MOL   H42524475   4.565   7.644   6.932  0.0072  1.3273  1.5866
   26MOL   H42624476   4.563   7.538   7.367 -0.3267  0.4268  1.0740
   26MOL   H42724477   4.558   7.708   7.393  2.3063 -2.2938  0.9383
   26MOL   H42824478   4.301   7.570   7.291 -1.3091 -1.5763  2.1398
   26MOL   H42924479   4.325   7.710   7.394 -2.1627 -1.4796  1.5720
   26MOL   H43024480   4.417   7.440   7.489  1.0343  0.0257 -0.2005
   26MOL   H43124481   4.253   7.468   7.477  1.2337 -1.1620 -0.8804
   26MOL   H43224482   4.290   7.702   7.593 -0.1039 -0.8096 -1.5373
   26MOL   H43324483   4.450   7.651   7.628  0.2489 -1.0177 -0.1270
   26MOL   O43424484   4.303   7.622   0.087 -0.2108 -0.2204  1.2842
   26MOL   C43524485   4.266   7.561   0.211 -0.3134  0.5046  0.3520
   26MOL   C43624486   4.224   7.676   0.309 -0.7402  0.0497 -0.0993
   26MOL   C43724487   4.329   0.028   0.296 -0.4074  0.1523  0.3879
   26MOL   C43824488   4.313   0.133   0.408  0.2287 -0.6563 -0.1659
   26MOL   C43924489   4.439   0.208   0.443 -0.4773  0.5322  0.3838
   26MOL   C44024490   4.430   0.304   0.564  0.0781 -0.1316 -0.3180
   26MOL   C44124491   4.399   0.228   0.697 -0.4039  0.6740 -0.2120
   26MOL   C44224492   4.387   0.320   0.820  0.2594  0.3449 -0.0440
   26MOL   C44324493   4.510   0.402   0.854 -0.2357 -0.0740 -0.4615
   26MOL   C44424494   4.499   0.480   0.990  0.1951 -0.0105  0.3035
   26MOL   O44524495   4.398   0.582   0.976  0.4864 -0.1266 -0.3190
   26MOL   C44624496   4.336   0.633   1.094 -0.2431 -0.4155 -0.3417
   26MOL   O44724497   4.360   0.599   1.209 -0.8110 -0.2201  0.9557
   26MOL   C44824498   4.239   0.748   1.058 -0.3897 -0.3745 -0.9215
   26MOL   C44924499   4.211   0.847   1.177  0.9781  0.1712  0.1918
   26MOL   C45024500   4.328   0.941   1.216 -0.1740 -0.5112 -0.1717
   26MOL   C45124501   4.280   1.031   1.332  0.2986 -0.6273 -0.4164
   26MOL   C45224502   4.391   1.140   1.359 -0.3149  0.3199  0.0671
   26MOL   O45324503   4.464   1.194   1.269  0.3334 -0.6226 -0.3283
   26MOL   H45424504   4.179   7.496   0.201  0.4146 -0.4029 -0.2525
   26MOL   H45524505   4.355   7.508   0.245  0.0873  0.6024 -0.5335
   26MOL   H45624506   4.224   7.642   0.412  1.5712  1.4414  0.3981
   26MOL   H45724507   4.125   7.712   0.282 -0.5982  0.1444 -0.5096
   26MOL   H45824508   4.426   7.743   0.304  0.2351  1.3592  0.2720
   26MOL   H45924509   4.315   0.075   0.199  0.9100 -0.6826 -0.2108
   26MOL   H46024510   4.279   0.086   0.500 -0.5573  1.0794  0.4467
   26MOL   H46124511   4.236   0.207   0.384  1.1648  0.1047 -0.8829
   26MOL   H46224512   4.482   0.264   0.360 -1.5202 -0.7882 -1.0919
   26MOL   H46324513   4.507   0.129   0.474 -0.3672  0.4558 -0.0487
   26MOL   H46424514   4.357   0.384   0.551  0.2819 -0.0999 -1.4001
   26MOL   H46524515   4.525   0.357   0.576  0.4653 -1.0270  0.5686
   26MOL   H46624516   4.469   0.146   0.715  2.0577  3.3460  3.0662
   26MOL   H46724517   4.304   0.175   0.687 -0.5794  0.8544  0.4464
   26MOL   H46824518   4.345   0.264   0.904  2.6922 -1.0561  0.2640
   26MOL   H46924519   4.305   0.388   0.795  1.2865  1.4910 -0.3085
   26MOL   H47024520   4.600   0.341   0.856  0.0562  0.4168  1.9724
   26MOL   H47124521   4.532   0.467   0.769  0.1885 -0.3164 -0.5351
   26MOL   H47224522   4.600   0.509   1.022 -0.1699 -0.0971  1.5789
   26MOL   H47324523   4.472   0.403   1.062  1.2022  0.7199  1.4802
   26MOL   H47424524   4.258   0.802   0.966  0.0034 -1.5169 -1.5261
   26MOL   H47524525   4.140   0.702   1.057 -0.0190 -1.2069 -0.4513
   26MOL   H47624526   4.180   0.788   1.264 -0.0181 -0.2081 -0.4080
   26MOL   H47724527   4.123   0.902   1.141 -0.2934 -2.2685 -0.5738
   26MOL   H47824528   4.342   1.009   1.132  1.6893  0.5825  0.9917
   26MOL   H47924529   4.420   0.886   1.235  0.5849  0.6771 -0.3935
   26MOL   H48024530   4.258   0.966   1.417 -1.9396  0.6104 -0.0258
   26MOL   H48124531   4.186   1.078   1.303 -0.1718 -1.5396 -0.4037
   26MOL   O48224532   4.412   1.152   1.494 -0.0727 -0.8297 -0.4548
   26MOL   C48324533   4.523   1.225   1.553 -0.0877  0.6141  0.0382
   26MOL   C48424534   4.653   1.138   1.554 -0.3271 -0.5720  0.1151
   26MOL   C48524535   4.694   1.062   1.430  0.0836  0.1763 -0.1180
   26MOL   C48624536   4.836   1.001   1.428 -0.2882 -1.2705 -0.0468
   26MOL   C48724537   4.957   1.104   1.390 -0.0160 -0.0071  0.3399
   26MOL   C48824538   5.091   1.044   1.438 -0.9364 -0.2015  0.0901
   26MOL   C48924539   5.118   0.909   1.370  0.6930  0.0210 -0.4548
   26MOL   C49024540   5.250   0.851   1.401 -0.4156  0.0751 -0.1627
   26MOL   C49124541   5.285   0.749   1.284  0.0033 -0.1680 -0.7224
   26MOL   C49224542   5.439   0.726   1.276  0.4379 -0.3031 -0.1658
   26MOL   O49324543   5.491   0.635   1.181  0.1111  0.0287 -0.0006
   26MOL   C49424544   5.525   0.514   1.231  0.1897  0.6016  0.6805
   26MOL   O49524545   5.536   0.480   1.348 -0.4803 -0.3488  0.0994
   26MOL   C49624546   5.549   0.419   1.113  0.1454  0.0604 -0.2475
   26MOL   C49724547   5.414   0.390   1.029  0.4325  0.7476 -0.1441
   26MOL   C49824548   5.293   0.324   1.098 -0.2497  0.0906 -0.4365
   26MOL   C49924549   5.345   0.200   1.175  0.1804  0.4855 -0.5585
   26MOL   C50024550   5.238   0.124   1.254  0.2915 -0.2683 -1.1519
   26MOL   O50124551   5.268   0.051   1.347  0.2062  0.3763 -0.3630
   26MOL   H50224552   4.535   1.321   1.502 -3.3896  0.8521 -0.4263
   26MOL   H50324553   4.494   1.256   1.653  0.8415  1.9184 -0.0818
   26MOL   H50424554   4.634   1.060   1.628  0.8324 -0.8851  0.0929
   26MOL   H50524555   4.732   1.199   1.597 -1.1882  1.6834 -1.4431
   26MOL   H50624556   4.624   0.982   1.406 -0.1243  0.3640 -0.1336
   26MOL   H50724557   4.691   1.142   1.356 -0.0423  1.1578  0.9426
   26MOL   H50824558   4.837   0.923   1.352  1.2380 -0.8249 -0.4897
   26MOL   H50924559   4.855   0.953   1.524  1.3295 -0.5277  0.0204
   26MOL   H51024560   4.936   1.195   1.445 -0.6759  0.0849 -0.0640
   26MOL   H51124561   4.964   1.130   1.285  0.4980 -0.3132  0.2954
   26MOL   H51224562   5.106   1.025   1.544  1.1421  1.9599  0.2218
   26MOL   H51324563   5.170   1.117   1.418 -1.3749  0.3842  0.4654
   26MOL   H51424564   5.112   0.923   1.263 -2.5430 -0.8960 -0.4659
   26MOL   H51524565   5.036   0.840   1.393 -0.8211  1.7330 -0.6744
   26MOL   H51624566   5.264   0.806   1.499  2.5119 -0.6951 -0.8956
   26MOL   H51724567   5.317   0.937   1.401  0.7242 -0.8053 -0.2750
   26MOL   H51824568   5.234   0.655   1.301 -0.7231  0.1001 -1.4069
   26MOL   H51924569   5.258   0.779   1.183  3.0811 -0.1301 -1.5964
   26MOL   H52024570   5.475   0.709   1.377 -2.8532  1.9531  1.4801
   26MOL   H52124571   5.485   0.822   1.254  0.9182 -0.5588 -0.2831
   26MOL   H52224572   5.626   0.459   1.047  0.3049 -0.7810 -0.5814
   26MOL   H52324573   5.592   0.334   1.166  1.6309  2.1930  2.0456
   26MOL   H52424574   5.438   0.329   0.942 -1.2531  2.1604 -1.6338
   26MOL   H52524575   5.388   0.484   0.981 -0.8104  1.4287  1.7846
   26MOL   H52624576   5.226   0.303   1.015  1.0282  0.1784 -1.5124
   26MOL   H52724577   5.235   0.388   1.165 -1.0669 -2.3250  1.2015
   26MOL   H52824578   5.418   0.228   1.250 -1.1597  0.0123  0.9564
   26MOL   H52924579   5.394   0.125   1.113 -0.0643  1.5103 -2.0436
   26MOL   O53024580   5.114   0.158   1.221 -0.2882  0.0025  0.1396
   26MOL   C53124581   5.003   0.097   1.278  0.3430  0.2017 -0.5667
   26MOL   C53224582   4.875   0.115   1.192 -0.0486 -0.3430 -0.4814
   26MOL   C53324583   4.894   0.081   1.044 -0.5979  0.4251  0.1354
   26MOL   C53424584   4.787   0.137   0.956 -0.1703  0.4014  0.0462
   26MOL   C53524585   4.795   0.109   0.802  0.3453  0.9367 -0.3820
   26MOL   C53624586   4.882   0.215   0.724 -0.5172  0.4052  0.0436
   26MOL   C53724587   4.936   0.175   0.581 -0.1248  0.4837 -0.6832
   26MOL   C53824588   4.819   0.176   0.486  0.0532 -0.0203  0.1353
   26MOL   C53924589   4.872   0.144   0.347 -0.2065 -0.1500 -0.0398
   26MOL   C54024590   4.763   0.184   0.242  0.2746 -0.0528 -0.8647
   26MOL   O54124591   4.808   0.175   0.106 -0.2114  1.0524  0.0205
   26MOL   C54224592   4.798   0.063   0.032 -1.0477  0.0335  1.0832
   26MOL   O54324593   4.705   7.737   0.049 -0.6128  0.1278  0.4050
   26MOL   C54424594   4.893   0.066   7.684 -0.0008 -0.4555  0.8205
   26MOL   C54524595   5.039   0.058   7.716  0.3763 -0.2238  0.9933
   26MOL   C54624596   5.076   7.700   0.030 -0.0603  0.0659 -0.0045
   26MOL   C54724597   5.226   7.691   0.047 -0.1686 -0.4343 -0.2624
   26MOL   C54824598   5.281   7.762   0.175 -0.3011 -0.1873  0.3864
   26MOL   O54924599   5.215   0.065   0.253  1.1317 -0.2959 -0.5405
   26MOL   H55024600   5.020   7.754   1.291  2.5354  0.7052  1.0915
   26MOL   H55124601   4.990   0.148   1.374  1.7507 -0.2157 -0.1391
   26MOL   H55224602   4.835   0.216   1.200  0.8034 -0.0402  0.0947
   26MOL   H55324603   4.799   0.045   1.229 -0.1913  0.8269  1.5522
   26MOL   H55424604   4.986   0.126   1.008  0.1612  0.1244  1.6468
   26MOL   H55524605   4.894   7.737   1.038 -1.0311  0.4846 -0.9935
   26MOL   H55624606   4.794   0.244   0.977 -0.4367  0.0022  2.3024
   26MOL   H55724607   4.688   0.112   0.994  1.4560 -2.0175  2.9193
   26MOL   H55824608   4.695   0.106   0.759  0.3375  1.2905 -0.3899
   26MOL   H55924609   4.839   0.011   0.789 -2.6416 -1.0527  3.4737
   26MOL   H56024610   4.965   0.239   0.790 -1.2292  2.5335  0.2204
   26MOL   H56124611   4.827   0.306   0.698 -1.9158 -1.0730 -2.3438
   26MOL   H56224612   4.973   0.072   0.583 -0.2940  0.4115 -1.2839
   26MOL   H56324613   5.024   0.232   0.553  0.0885 -0.4673 -1.9676
   26MOL   H56424614   4.783   0.279   0.491 -1.3579 -0.5776  1.6692
   26MOL   H56524615   4.738   0.110   0.514  0.4005 -1.1748 -1.4982
   26MOL   H56624616   4.968   0.194   0.334 -0.0988 -0.6579 -1.2733
   26MOL   H56724617   4.900   0.040   0.333  0.1750 -0.0018 -0.4009
   26MOL   H56824618   4.734   0.287   0.262 -1.5983 -0.5076 -1.1956
   26MOL   H56924619   4.668   0.133   0.252 -0.4169  1.4032  0.1926
   26MOL   H57024620   4.865   7.750   7.617  1.4172 -0.3429  0.0765
   26MOL   H57124621   4.871   0.152   7.620 -0.6231 -2.1074 -1.2360
   26MOL   H57224622   5.075   0.139   0.016  2.6121 -1.1549  0.9599
   26MOL   H57324623   5.101   0.062   7.627  0.5085 -0.6197  1.0668
   26MOL   H57424624   5.050   7.622   7.723 -1.1303  0.7794 -0.4031
   26MOL   H57524625   5.023   7.682   0.123  0.7699 -0.8319  0.2972
   26MOL   H57624626   5.271   7.744   7.728 -0.1140  1.2112  0.7899
   26MOL   H57724627   5.260   7.587   0.046 -0.9138 -0.8164  3.6570
   26MOL   O57824628   5.417   7.739   0.183 -0.2496 -0.2284 -0.5624
   26MOL   C57924629   5.479   0.025   0.298  0.0938 -0.8596 -0.3835
   26MOL   C58024630   5.621   7.735   0.323 -0.0320  0.1123  0.1957
   26MOL   C58124631   5.621   7.581   0.355  0.7621 -0.4341 -0.1347
   26MOL   C58224632   5.754   7.507   0.376 -0.2232  0.0822  0.0615
   26MOL   C58324633   5.821   7.476   0.237 -0.3560 -0.3262 -0.1655
   26MOL   C58424634   5.951   7.388   0.245 -0.0212 -0.7127  0.4731
   26MOL   C58524635   5.914   7.242   0.294 -0.0943 -0.5505  0.1821
   26MOL   C58624636   6.042   7.153   0.310 -0.3653  0.5044 -0.1614
   26MOL   C58724637   6.008   6.997   0.317  0.5863 -0.0977 -0.3815
   26MOL   C58824638   5.926   6.956   0.437 -0.4996 -0.7317  0.6697
   26MOL   O58924639   5.909   6.813   0.425  0.1843 -0.2195  0.0714
   26MOL   C59024640   5.784   6.755   0.445  0.1575 -0.1765 -0.8635
   26MOL   O59124641   5.684   6.803   0.505  0.1080 -0.2578 -0.6491
   26MOL   C59224642   5.770   6.614   0.388  0.2656 -0.4527  0.2832
   26MOL   C59324643   5.643   6.585   0.305  0.4920  0.4017  0.4278
   26MOL   C59424644   5.630   6.652   0.168  0.0347 -0.5114  0.2596
   26MOL   C59524645   5.494   6.621   0.100  0.1284  0.1304 -0.5583
   26MOL   C59624646   5.382   6.710   0.155  0.6040 -0.3141 -0.0935
   26MOL   O59724647   5.309   6.766   0.071  0.6634 -0.0165  0.0977
   26MOL   H59824648   5.472   0.132   0.279  1.8716 -0.9536 -1.6100
   26MOL   H59924649   5.422   0.007   0.390  0.8647  2.0839  0.7164
   26MOL   H60024650   5.670   0.007   0.413  0.0386 -3.8244  1.8420
   26MOL   H60124651   5.691   7.751   0.242  1.1556 -1.4297  0.9063
   26MOL   H60224652   5.575   7.561   0.452  0.1248  2.9468  0.3106
   26MOL   H60324653   5.566   7.526   0.279  1.4684 -0.1872 -0.8204
   26MOL   H60424654   5.738   7.419   0.438  1.1188 -0.6518 -0.6076
   26MOL   H60524655   5.823   7.574   0.427  0.1814 -0.4501  0.2250
   26MOL   H60624656   5.841   7.570   0.184  1.9654 -1.6167 -1.6543
   26MOL   H60724657   5.745   7.422   0.179 -1.8251  1.9570 -0.4529
   26MOL   H60824658   6.024   7.434   0.311 -0.7380  1.7548 -0.4107
   26MOL   H60924659   6.008   7.380   0.153 -0.5932 -0.1143  0.0559
   26MOL   H61024660   5.847   7.191   0.226  3.4830 -2.3573 -2.1360
   26MOL   H61124661   5.869   7.252   0.393 -0.9790 -2.1783 -0.0480
   26MOL   H61224662   6.110   7.175   0.393 -2.5937 -0.8522  2.0769
   26MOL   H61324663   6.109   7.177   0.227 -2.3337  0.7012 -1.7091
   26MOL   H61424664   5.949   6.964   0.232 -1.0980  2.0455 -0.0946
   26MOL   H61524665   6.104   6.946   0.326  1.9806  2.2861 -1.0025
   26MOL   H61624666   5.828   7.004   0.435 -0.5207 -0.8306 -1.5277
   26MOL   H61724667   5.971   6.976   0.534 -4.3379  0.0114  2.3809
   26MOL   H61824668   5.865   6.584   0.342 -0.4374 -0.3520 -1.2877
   26MOL   H61924669   5.773   6.554   0.478 -0.3645  0.7862  1.1477
   26MOL   H62024670   5.564   6.609   0.376  0.6869  0.4853  0.6169
   26MOL   H62124671   5.628   6.478   0.287 -1.2043  0.7923 -0.6104
   26MOL   H62224672   5.702   6.601   0.104 -0.9402  0.6145 -1.8013
   26MOL   H62324673   5.659   6.754   0.190 -0.0494 -0.8990  2.2679
   26MOL   H62424674   5.467   6.516   0.103  0.8310 -0.0370  0.1249
   26MOL   H62524675   5.505   6.642   7.758 -1.4855 -0.5314 -0.8547
   26MOL   O62624676   5.370   6.721   0.290 -0.5839  0.1079  0.0845
   26MOL   C62724677   5.275   6.801   0.353  0.1821  0.4880 -0.5678
   26MOL   C62824678   5.277   6.773   0.509 -0.8094 -0.3891 -0.3280
   26MOL   C62924679   5.153   6.831   0.575  0.3081  0.4453 -0.1437
   26MOL   C63024680   5.133   6.985   0.572 -0.2321  0.1236 -0.4175
   26MOL   C63124681   5.242   7.076   0.633  0.1101 -0.1985  0.4070
   26MOL   C63224682   5.257   7.061   0.789  0.6494  0.1714  0.2338
   26MOL   C63324683   5.386   7.088   0.848 -0.4304 -0.7043 -0.4215
   26MOL   C63424684   5.400   7.078   1.005  0.0501  0.4476 -0.3303
   26MOL   C63524685   5.550   7.114   1.047 -0.5678  0.2343 -0.2987
   26MOL   C63624686   5.590   7.063   1.184 -0.6012 -1.3067  0.0982
   26MOL   O63724687   5.588   6.916   1.212 -0.2362  0.4508  0.7936
   26MOL   C63824688   5.496   6.868   1.297 -0.0557 -0.2737 -0.1864
   26MOL   O63924689   5.419   6.931   1.362  0.5302 -0.6306 -0.1020
   26MOL   C64024690   5.503   6.717   1.308  0.0136 -0.5893  0.2098
   26MOL   C64124691   5.376   6.650   1.254 -0.1171  0.6550  0.3113
   26MOL   C64224692   5.376   6.503   1.313  0.2439  0.5356  0.1747
   26MOL   C64324693   5.240   6.432   1.306  0.7863  0.9891  0.8302
   26MOL   C64424694   5.211   6.328   1.411  0.1497 -0.6582  0.5699
   26MOL   O64524695   5.281   6.232   1.418 -0.0745  0.2642 -0.4152
   26MOL   H64624696   5.289   6.907   0.332 -0.2584  1.0480  1.8509
   26MOL   H64724697   5.176   6.778   0.312 -0.8140  1.8540  1.0025
   26MOL   H64824698   5.369   6.813   0.550 -0.4036 -0.0853 -1.5114
   26MOL   H64924699   5.278   6.667   0.531 -2.5417  0.1175  2.4500
   26MOL   H65024700   5.062   6.779   0.547 -0.8819  3.0894 -1.4477
   26MOL   H65124701   5.159   6.796   0.678  1.5524 -0.2982 -0.4541
   26MOL   H65224702   5.039   7.017   0.617 -0.3757 -1.9043  0.7632
   26MOL   H65324703   5.120   7.007   0.466  1.5004 -4.1165 -1.5970
   26MOL   H65424704   5.208   7.177   0.612  0.9038  0.0341  0.2346
   26MOL   H65524705   5.338   7.061   0.584  0.5618  2.3456  0.4623
   26MOL   H65624706   5.223   6.964   0.825  0.2905 -0.9185 -2.9761
   26MOL   H65724707   5.186   7.137   0.822 -1.0165 -1.1969 -0.1432
   26MOL   H65824708   5.425   7.187   0.827  3.1902 -1.7932  0.7687
   26MOL   H65924709   5.454   7.012   0.810  0.7971  0.7714 -1.1776
   26MOL   H66024710   5.373   6.977   1.036  0.7131  0.3852  0.0386
   26MOL   H66124711   5.327   7.143   1.054 -0.3244 -0.2175  0.0013
   26MOL   H66224712   5.611   7.078   0.964 -0.9790 -0.9433 -0.0996
   26MOL   H66324713   5.560   7.222   1.041 -0.0334  0.1939 -0.1777
   26MOL   H66424714   5.521   7.117   1.250  1.4173 -0.0369  1.2298
   26MOL   H66524715   5.692   7.086   1.213 -0.4933 -1.4191 -0.1873
   26MOL   H66624716   5.582   6.676   1.245  1.2183  0.5716  0.9265
   26MOL   H66724717   5.514   6.696   1.415 -0.6120  2.7158  0.9677
   26MOL   H66824718   5.386   6.659   1.146 -1.2860 -2.3225 -0.0978
   26MOL   H66924719   5.285   6.698   1.289 -0.6747 -0.6320  0.6544
   26MOL   H67024720   5.409   6.511   1.416 -0.8876  0.7796  0.5199
   26MOL   H67124721   5.449   6.441   1.261 -0.0656  2.1785 -2.2838
   26MOL   H67224722   5.212   6.404   1.204  0.4724  1.2604  0.8417
   26MOL   H67324723   5.160   6.503   1.326 -0.8616 -1.1375  2.1207
   26MOL   O67424724   5.097   6.358   1.476  0.3901 -0.2823 -0.2373
   26MOL   C67524725   5.056   6.288   1.591  0.4848 -0.0758 -0.7239
   26MOL   C67624726   4.970   6.169   1.550  0.2208  0.4737 -0.2441
   26MOL   C67724727   4.915   6.095   1.668  0.0420  1.0505 -0.7907
   26MOL   C67824728   4.825   5.985   1.633  0.3376 -0.0954 -0.1061
   26MOL   C67924729   4.768   5.898   1.746 -0.6381  0.4813  0.1028
   26MOL   C68024730   4.659   5.967   1.828  0.4328 -0.2176 -0.2271
   26MOL   C68124731   4.583   5.865   1.916 -0.2157 -0.4350  0.3323
   26MOL   C68224732   4.475   5.920   2.006  0.5876  0.5280 -0.9537
   26MOL   C68324733   4.413   5.807   2.082  0.4141  0.0217 -0.8947
   26MOL   C68424734   4.330   5.856   2.201  0.3314  0.1307  0.0390
   26MOL   O68524735   4.223   5.942   2.163  0.1008  0.1071  0.0605
   26MOL   C68624736   4.105   5.916   2.220 -0.7422  0.8430  0.1111
   26MOL   O68724737   4.079   5.818   2.294  0.0456  0.4606 -0.3619
   26MOL   C68824738   4.001   6.021   2.181  0.7082 -0.5553  0.1834
   26MOL   C68924739   3.861   5.969   2.177 -0.1486  0.0223 -0.4816
   26MOL   C69024740   3.844   5.875   2.060  0.3094 -0.0600  0.2578
   26MOL   C69124741   3.703   5.828   2.037  0.2110  0.0649  0.1254
   26MOL   C69224742   3.693   5.737   1.919  0.1236  0.3017 -0.3936
   26MOL   O69324743   3.680   5.613   1.928 -0.2158  0.5074 -0.0562
   26MOL   H69424744   5.141   6.252   1.648  0.6179 -0.6102 -1.2539
   26MOL   H69524745   4.996   6.356   1.651  0.1602  0.0623 -1.2060
   26MOL   H69624746   5.025   6.104   1.482 -1.0075 -1.7114  0.7943
   26MOL   H69724747   4.894   6.213   1.485  1.2301  0.9670 -1.1158
   26MOL   H69824748   5.002   6.060   1.723 -0.6836 -0.9457 -0.8718
   26MOL   H69924749   4.866   6.168   1.734 -0.1822  0.8436 -0.7278
   26MOL   H70024750   4.878   5.916   1.568 -0.3911  0.7055 -1.5542
   26MOL   H70124751   4.743   6.025   1.574  0.9131 -0.5073 -1.2012
   26MOL   H70224752   4.857   5.867   1.802  0.1595  2.2916 -0.1253
   26MOL   H70324753   4.729   5.805   1.704  1.3104  0.4981 -1.8369
   26MOL   H70424754   4.586   6.007   1.758  0.0095  0.6390  0.6962
   26MOL   H70524755   4.687   6.056   1.884 -1.4255  0.6760 -0.6765
   26MOL   H70624756   4.661   5.816   1.974  0.2694  0.0941  0.1303
   26MOL   H70724757   4.544   5.782   1.857  0.5092  0.3665 -1.2708
   26MOL   H70824758   4.399   5.973   1.949 -0.5521  0.2522  0.2932
   26MOL   H70924759   4.511   5.992   2.080 -1.6648  0.2124  0.5122
   26MOL   H71024760   4.346   5.753   2.015  0.0242 -0.2644 -0.2760
   26MOL   H71124761   4.483   5.728   2.109  0.7107 -0.0523 -1.8477
   26MOL   H71224762   4.380   5.918   2.276 -2.2516  2.5743 -0.1540
   26MOL   H71324763   4.310   5.773   2.269 -1.0487 -0.2743 -0.8638
   26MOL   H71424764   3.995   6.090   2.265 -0.2688  1.1171 -1.2081
   26MOL   H71524765   4.039   6.071   2.092 -2.5963 -2.2851 -2.2924
   26MOL   H71624766   3.803   6.060   2.175 -0.1413  0.0700  1.0034
   26MOL   H71724767   3.837   5.925   2.274  0.9984  1.1828  0.3454
   26MOL   H71824768   3.908   5.787   2.072  1.2372  0.7701  1.5565
   26MOL   H71924769   3.879   5.928   1.971  1.4958 -4.1662 -1.8455
   26MOL   H72024770   3.623   5.902   2.028  1.4899  1.4607  0.0677
   26MOL   H72124771   3.686   5.773   2.129  0.7377  0.5077  0.4905
   26MOL   O72224772   3.698   5.812   1.810  0.0288  0.2988 -0.2872
   26MOL   C72324773   3.695   5.747   1.684  0.4546  0.0100 -0.0926
   26MOL   C72424774   3.802   5.812   1.595  0.1075  0.4291 -0.0065
   26MOL   C72524775   3.789   5.748   1.452  0.2522 -0.2662  0.1051
   26MOL   C72624776   3.893   5.788   1.344 -0.1940 -0.5695 -0.8039
   26MOL   C72724777   3.857   5.717   1.211  0.1728 -0.5580  0.3213
   26MOL   C72824778   3.927   5.760   1.084 -0.2013  0.2652  0.5112
   26MOL   C72924779   3.917   5.903   1.044  0.4463 -0.4924 -0.3677
   26MOL   C73024780   3.962   5.940   0.900 -0.9227  0.5156  0.1808
   26MOL   C73124781   3.940   6.088   0.877 -0.7172 -0.1294  0.1017
   26MOL   C73224782   4.015   6.136   0.746 -0.6999  0.0550 -0.1923
   26MOL   O73324783   3.965   6.072   0.635  0.0534  0.5274 -0.0050
   26MOL   C73424784   4.041   6.094   0.514  0.5963  0.3707 -0.1368
   26MOL   O73524785   4.130   6.174   0.499  0.6217 -0.5305  0.0555
   26MOL   C73624786   3.991   6.012   0.395 -0.4451 -0.4562 -0.5846
   26MOL   C73724787   4.101   5.918   0.345  0.0801 -0.1057 -0.7132
   26MOL   C73824788   4.148   5.811   0.454  0.5355 -0.2794 -0.2335
   26MOL   C73924789   4.038   5.712   0.489 -0.7843 -0.1057 -0.8343
   26MOL   C74024790   3.981   5.634   0.371  0.4218 -0.4471 -0.1347
   26MOL   O74124791   3.855   5.629   0.346 -0.1223  0.6080 -0.1272
   26MOL   H74224792   3.723   5.643   1.700  1.0361  0.1814  0.0058
   26MOL   H74324793   3.601   5.728   1.632  0.4514  0.1644 -0.1425
   26MOL   H74424794   3.896   5.796   1.648 -0.6198  0.1211  1.2033
   26MOL   H74524795   3.770   5.916   1.591 -0.8688  0.1142 -0.4759
   26MOL   H74624796   3.812   5.642   1.459 -0.9222 -0.5791 -0.6862
   26MOL   H74724797   3.687   5.755   1.414 -1.1536 -2.0598  3.3684
   26MOL   H74824798   3.996   5.776   1.375  0.5596 -1.6431 -3.5929
   26MOL   H74924799   3.888   5.897   1.339 -1.8956 -0.5642  0.3932
   26MOL   H75024800   3.751   5.731   1.192 -0.0930 -0.6104  1.6672
   26MOL   H75124801   3.865   5.609   1.217 -0.5242 -0.6600 -0.4640
   26MOL   H75224802   3.896   5.684   1.011 -1.0837 -0.5505  1.7220
   26MOL   H75324803   4.035   5.741   1.087  0.0711  1.6012 -0.5820
   26MOL   H75424804   3.980   5.968   1.105  1.3487 -4.1549  2.7992
   26MOL   H75524805   3.813   5.936   1.040  0.3029 -1.1703 -3.3343
   26MOL   H75624806   3.899   5.879   0.836 -0.4346  1.4176 -1.1760
   26MOL   H75724807   4.063   5.905   0.877 -0.9095  1.2734 -0.9280
   26MOL   H75824808   3.835   6.111   0.863 -0.3559  0.8182 -1.1770
   26MOL   H75924809   3.978   6.146   0.961  1.2549 -0.9133 -0.2192
   26MOL   H76024810   4.110   6.092   0.774 -0.2652  1.2157  0.2096
   26MOL   H76124811   4.025   6.243   0.728  0.6291  0.0702  0.6299
   26MOL   H76224812   3.891   5.973   0.415 -0.8614  0.1303 -1.5090
   26MOL   H76324813   3.971   6.088   0.320 -0.2257  0.1232 -0.0618
   26MOL   H76424814   4.185   5.982   0.318 -0.5013  0.2874 -1.5932
   26MOL   H76524815   4.075   5.871   0.251  2.3346 -0.1267 -1.3607
   26MOL   H76624816   4.182   5.858   0.547  0.1591 -0.0725 -0.1995
   26MOL   H76724817   4.234   5.761   0.410  1.2924 -0.9154  1.8940
   26MOL   H76824818   3.952   5.764   0.531 -0.3786 -0.5873  0.6260
   26MOL   H76924819   4.063   5.635   0.563 -1.9534 -0.7719 -1.1192
   26MOL   O77024820   4.073   5.580   0.294 -0.3775 -0.7167  0.4095
   26MOL   C77124821   4.036   5.465   0.207  0.2872  0.3986  0.0040
   26MOL   C77224822   4.129   5.338   0.226  0.3037 -0.7670  0.5117
   26MOL   C77324823   4.254   5.346   0.138 -0.1791 -0.3879 -0.2468
   26MOL   C77424824   4.330   5.213   0.131 -0.4606  0.6633 -0.6744
   26MOL   C77524825   4.459   5.219   0.045 -0.1593 -0.3024 -0.1167
   26MOL   C77624826   4.556   5.106   0.075 -0.4826 -0.8037  0.7287
   26MOL   C77724827   4.663   5.081   7.740  0.5663  0.6981  0.1653
   26MOL   C77824828   4.778   5.181   7.725 -0.1058 -0.2463  0.5472
   26MOL   C77924829   4.895   5.149   7.629 -0.5333  0.1743  0.3821
   26MOL   C78024830   5.003   5.255   7.655 -0.6015  0.3956 -0.2808
   26MOL   O78124831   5.112   5.242   7.567  0.6463 -0.0996  0.0223
   26MOL   C78224832   5.226   5.307   7.600 -0.8167 -0.1370 -0.0959
   26MOL   O78324833   5.238   5.390   7.692  0.5328 -0.0367 -0.5341
   26MOL   C78424834   5.335   5.252   7.515 -0.0450  0.5435 -0.0216
   26MOL   C78524835   5.476   5.297   7.549 -0.3648  0.9797  0.0598
   26MOL   C78624836   5.571   5.191   7.613  0.2517  0.8531 -0.5860
   26MOL   C78724837   5.717   5.256   7.626  0.3771 -0.6618 -0.1992
   26MOL   C78824838   5.743   5.376   7.729  0.4205  0.0422  0.3980
   26MOL   O78924839   5.818   5.470   7.699 -0.2506  0.0854 -0.5055
   26MOL   H79024840   3.940   5.431   0.246  0.9177 -1.2824  0.1294
   26MOL   H79124841   4.026   5.485   0.101  1.0245  1.9545  0.2202
   26MOL   H79224842   4.078   5.242   0.221  1.8105 -1.5885  0.6176
   26MOL   H79324843   4.172   5.329   0.325  0.8088  0.6905  0.4415
   26MOL   H79424844   4.238   5.382   0.037 -1.9326 -0.2261  0.0738
   26MOL   H79524845   4.325   5.412   0.187 -0.9344  0.2616 -0.0215
   26MOL   H79624846   4.268   5.128   0.104 -1.0330  0.9794 -0.3530
   26MOL   H79724847   4.360   5.195   0.234 -0.3433 -1.8270 -1.1184
   26MOL   H79824848   4.505   5.318   0.057 -0.2978 -0.2045 -0.3866
   26MOL   H79924849   4.433   5.212   7.704  0.4959  0.2534 -0.3236
   26MOL   H80024850   4.500   5.013   0.081 -1.8615  0.0509  1.2575
   26MOL   H80124851   4.611   5.122   0.168  4.0156  0.1975 -1.9205
   26MOL   H80224852   4.614   5.062   7.644 -0.3453  0.2595  0.7154
   26MOL   H80324853   4.704   4.983   7.764  2.1264  1.0940 -0.7867
   26MOL   H80424854   4.815   5.200   0.061 -3.4991  1.5698  1.5250
   26MOL   H80524855   4.739   5.275   7.688 -1.2392 -1.1525 -0.6143
   26MOL   H80624856   4.931   5.046   7.642  1.6564  0.4319 -3.1679
   26MOL   H80724857   4.874   5.163   7.523  0.0428 -1.7028 -0.0043
   26MOL   H80824858   5.027   5.246   7.761 -1.1980 -0.4319 -0.2055
   26MOL   H80924859   4.959   5.354   7.642  1.5009  1.7262  2.4962
   26MOL   H81024860   5.337   5.144   7.507  1.2408  0.6239 -0.9684
   26MOL   H81124861   5.324   5.296   7.415 -1.6334 -1.8659 -0.9406
   26MOL   H81224862   5.481   5.395   7.596 -2.8707  0.3665  1.6929
   26MOL   H81324863   5.521   5.327   7.454  0.8298  3.0791  1.2550
   26MOL   H81424864   5.590   5.106   7.548 -0.6153  1.8296 -2.1345
   26MOL   H81524865   5.545   5.153   7.711  2.2941  2.5188  0.6663
   26MOL   H81624866   5.741   5.296   7.527 -0.2923 -0.0849 -0.1354
   26MOL   H81724867   5.791   5.179   7.646  0.5601 -0.5511 -0.4377
   26MOL   O81824868   5.665   5.378   0.082 -0.3493 -0.2035 -0.3998
   26MOL   C81924869   5.675   5.486   0.172  0.5154 -0.1033  0.0108
   26MOL   C82024870   5.575   5.449   0.277 -0.0231  0.1090  0.1900
   26MOL   C82124871   5.582   5.314   0.347  0.3474 -0.1639  0.1255
   26MOL   C82224872   5.474   5.300   0.454  0.0274  0.2929  0.2798
   26MOL   C82324873   5.507   5.193   0.563 -0.4323  0.7403 -0.2031
   26MOL   C82424874   5.399   5.174   0.670 -0.1150 -0.0224 -0.1703
   26MOL   C82524875   5.286   5.091   0.611 -0.3860 -0.1814  0.3418
   26MOL   C82624876   5.175   5.063   0.715  0.2735  0.1841  0.4476
   26MOL   C82724877   5.084   4.940   0.671  0.2504 -0.3564 -0.6295
   26MOL   C82824878   4.975   4.913   0.768  0.0300 -0.4060 -0.0280
   26MOL   O82924879   5.041   4.878   0.890 -0.6602  0.3063  0.1429
   26MOL   C83024880   5.075   4.753   0.910  0.3696  0.4585  0.4979
   26MOL   O83124881   5.027   4.663   0.840 -0.5984  0.2226  0.4541
   26MOL   C83224882   5.148   4.727   1.041  0.2026  0.3106 -0.0322
   26MOL   C83324883   5.256   4.827   1.085  0.3606 -0.5084  0.5609
   26MOL   C83424884   5.386   4.797   1.007 -0.2071 -0.0244 -0.0357
   26MOL   C83524885   5.493   4.894   1.063 -0.5131 -0.0503 -0.2816
   26MOL   C83624886   5.613   4.898   0.969 -0.0118 -0.2614 -0.2813
   26MOL   O83724887   5.709   4.826   0.994 -0.3531 -0.1219 -0.2851
   26MOL   H83824888   5.777   5.495   0.208  1.6214 -0.0833 -2.9583
   26MOL   H83924889   5.648   5.578   0.120  1.7701  0.3804  0.2147
   26MOL   H84024890   5.473   5.456   0.239  0.7006  1.4920 -1.5553
   26MOL   H84124891   5.579   5.530   0.351 -0.0658  0.4093 -0.1369
   26MOL   H84224892   5.562   5.245   0.264  2.6846  0.4533 -0.9775
   26MOL   H84324893   5.675   5.305   0.403 -0.6782  0.5671  2.0014
   26MOL   H84424894   5.376   5.285   0.409 -0.0692 -1.1068  0.9298
   26MOL   H84524895   5.449   5.391   0.509 -0.6695  1.5492 -2.0688
   26MOL   H84624896   5.593   5.236   0.616  1.0417 -2.5837  0.2586
   26MOL   H84724897   5.521   5.096   0.516 -2.8647  1.3541 -2.2548
   26MOL   H84824898   5.366   5.273   0.700  2.0476  0.2309  1.4406
   26MOL   H84924899   5.441   5.132   0.761 -0.7588  0.5185  0.3803
   26MOL   H85024900   5.330   4.999   0.574 -0.0439 -0.3992  1.2634
   26MOL   H85124901   5.245   5.141   0.523 -1.2292 -0.1723  0.7373
   26MOL   H85224902   5.109   5.149   0.725 -0.5497 -0.4060  0.1358
   26MOL   H85324903   5.227   5.045   0.809 -1.3191  0.5912  1.4085
   26MOL   H85424904   5.042   4.967   0.574 -0.5445  1.2071  0.1303
   26MOL   H85524905   5.147   4.853   0.654  1.2091  0.0457  0.7096
   26MOL   H85624906   4.909   4.833   0.734 -1.4186  0.9550 -0.5108
   26MOL   H85724907   4.914   5.002   0.784 -0.8097 -0.5343 -2.3090
   26MOL   H85824908   5.068   4.715   1.114  0.7740  0.7851  0.6815
   26MOL   H85924909   5.208   4.636   1.038  1.7821  1.3720 -2.3933
   26MOL   H86024910   5.275   4.809   1.191  0.6285 -0.3982  0.5327
   26MOL   H86124911   5.231   4.933   1.090  1.5681 -0.0435 -2.3058
   26MOL   H86224912   5.358   4.837   0.909 -1.0825  1.6972  0.8913
   26MOL   H86324913   5.403   4.690   1.004 -0.2951 -0.1885  3.6568
   26MOL   H86424914   5.526   4.855   1.160  0.6137  0.3774 -0.4819
   26MOL   H86524915   5.457   4.996   1.074  1.2180  0.5338  0.0923
   26MOL   O86624916   5.599   4.969   0.860  0.2099  0.3574 -0.2159
   26MOL   C86724917   5.696   4.955   0.755 -0.0471  0.0648  0.9081
   26MOL   C86824918   5.658   4.830   0.670  0.5618  0.3422 -0.3051
   26MOL   C86924919   5.776   4.804   0.562  0.2559 -0.1521  0.0069
   26MOL   C87024920   5.732   4.701   0.458  0.6794 -0.5671  0.2410
   26MOL   C87124921   5.674   4.578   0.527  0.2457 -0.2673 -0.1536
   26MOL   C87224922   5.666   4.459   0.425  0.2431 -0.0214 -0.0357
   26MOL   C87324923   5.621   4.324   0.488 -0.2742 -0.9947  0.3710
   26MOL   C87424924   5.713   4.270   0.595  0.6914 -0.1179 -0.6439
   26MOL   C87524925   5.687   4.126   0.634  0.7074 -0.1243  0.5336
   26MOL   C87624926   5.553   4.123   0.711  0.2593 -0.1848 -0.5649
   26MOL   O87724927   5.546   3.997   0.784  0.2749 -0.2185  0.0499
   26MOL   C87824928   5.432   3.943   0.804 -0.5313  0.4268 -0.0694
   26MOL   O87924929   5.319   3.982   0.756 -0.6815  0.5103 -0.2028
   26MOL   C88024930   5.442   3.812   0.896 -0.4041  0.1410  0.1756
   26MOL   C88124931   5.499   3.831   1.040 -0.3807  0.1454 -0.7297
   26MOL   C88224932   5.431   3.934   1.119 -0.0021  0.3139 -1.1949
   26MOL   C88324933   5.507   3.969   1.244 -0.3762  0.2546 -0.6645
   26MOL   C88424934   5.644   4.035   1.216 -0.2782 -0.1196 -0.6236
   26MOL   O88524935   5.656   4.147   1.172  0.2160  0.2980  0.3946
   26MOL   H88624936   5.688   5.040   0.687 -0.5583 -1.6234 -1.1841
   26MOL   H88724937   5.797   4.960   0.794 -0.0216 -0.5591  0.9234
   26MOL   H88824938   5.558   4.834   0.628  0.3712  1.7620  0.2552
   26MOL   H88924939   5.650   4.745   0.738  0.1591 -0.3142 -1.1667
   26MOL   H89024940   5.815   4.899   0.524  0.3868  0.3433  1.3312
   26MOL   H89124941   5.859   4.757   0.616  0.6411  0.3205 -0.1701
   26MOL   H89224942   5.822   4.667   0.406  0.7692 -0.8666  0.5872
   26MOL   H89324943   5.662   4.744   0.386  0.8127 -1.2723 -0.3111
   26MOL   H89424944   5.573   4.601   0.560  0.8774  1.7550  0.5199
   26MOL   H89524945   5.738   4.550   0.611  1.7157  1.8184 -0.5205
   26MOL   H89624946   5.753   4.456   0.359  0.1004 -0.6010 -0.1982
   26MOL   H89724947   5.581   4.486   0.363 -0.2894  0.9672  1.1130
   26MOL   H89824948   5.612   4.249   0.409 -0.6288  0.5158 -1.0555
   26MOL   H89924949   5.522   4.335   0.532  0.4238 -0.1119  1.7366
   26MOL   H90024950   5.718   4.332   0.685  3.0132  1.1217 -1.5645
   26MOL   H90124951   5.814   4.270   0.555  0.3852  0.8112 -1.4466
   26MOL   H90224952   5.686   4.064   0.544  1.4420  0.2365  0.2719
   26MOL   H90324953   5.759   4.084   0.704 -1.4463  0.2807  3.0960
   26MOL   H90424954   5.465   4.126   0.648 -0.6884 -2.2470  0.5934
   26MOL   H90524955   5.543   4.204   0.783 -0.7398 -1.0146  0.2597
   26MOL   H90624956   5.342   3.771   0.907 -0.3433  0.1909  0.9893
   26MOL   H90724957   5.489   3.731   0.841 -0.1986 -0.1737  0.8042
   26MOL   H90824958   5.608   3.840   1.039 -0.3987  0.3480 -0.9765
   26MOL   H90924959   5.489   3.735   1.090  3.2559 -0.7115 -1.4810
   26MOL   H91024960   5.338   3.885   1.150  0.5031 -0.8414 -1.4676
   26MOL   H91124961   5.392   4.021   1.066 -2.0151 -0.7794 -1.5707
   26MOL   H91224962   5.537   3.880   1.298 -0.4130  1.5024  1.4753
   26MOL   H91324963   5.455   4.033   1.316  1.6334  0.7836  0.3652
   26MOL   O91424964   5.747   3.958   1.249 -0.7417 -0.0275 -0.5879
   26MOL   C91524965   5.880   3.996   1.231 -0.0446  0.1180  0.7019
   26MOL   C91624966   5.953   4.022   1.358 -1.0383  0.1493 -0.1598
   26MOL   C91724967   5.935   4.166   1.396  0.3126 -0.0283  0.6607
   26MOL   C91824968   5.966   4.181   1.543  0.0786 -0.2665  0.1555
   26MOL   C91924969   6.114   4.186   1.573  0.3168 -0.2521  0.0306
   26MOL   C92024970   6.173   4.136   1.703  0.2864 -0.3591  0.1245
   26MOL   C92124971   6.327   4.128   1.708 -0.9722  0.4215 -1.1085
   26MOL   C92224972   6.377   4.077   1.844  0.1431  0.3053  0.6644
   26MOL   C92324973   6.529   4.054   1.849  0.3575 -0.0365 -0.4534
   26MOL   C92424974   6.574   4.001   1.985  0.0209  0.0024 -0.7693
   26MOL   O92524975   6.703   3.949   1.989 -0.6741 -0.1444  0.1796
   26MOL   C92624976   6.746   3.895   2.094 -0.2252  0.0064 -0.0793
   26MOL   O92724977   6.691   3.880   2.202  0.0782  0.3809 -0.2680
   26MOL   C92824978   6.879   3.839   2.082  0.3772  0.2248 -0.5445
   26MOL   C92924979   6.875   3.716   1.988  0.0350  0.1512  0.4803
   26MOL   C93024980   7.017   3.668   1.958 -0.1984 -0.3860 -0.4832
   26MOL   C93124981   7.029   3.541   1.869  0.1815  0.3148  0.0314
   26MOL   C93224982   7.002   3.560   1.717 -0.2326  0.5690  0.4752
   26MOL   O93324983   7.001   3.672   1.671 -0.4054  0.4607 -0.2411
   26MOL   H93424984   5.943   3.916   1.191  2.1519  1.4340  1.4243
   26MOL   H93524985   5.883   4.078   1.158 -0.4049  0.6954  1.3350
   26MOL   H93624986   6.059   3.996   1.344 -1.1395 -1.4996  1.7563
   26MOL   H93724987   5.916   3.946   1.427  0.5654  1.0722  1.7935
   26MOL   H93824988   6.002   4.235   1.344  1.8248 -0.7448  1.6359
   26MOL   H93924989   5.833   4.201   1.382  0.2210 -1.3266 -2.3626
   26MOL   H94024990   5.935   4.093   1.600 -1.7893 -0.0083 -0.4442
   26MOL   H94124991   5.912   4.265   1.586  2.0994  1.5398 -0.7485
   26MOL   H94224992   6.138   4.291   1.553 -0.2005 -0.1384 -0.0021
   26MOL   H94324993   6.161   4.123   1.497  0.1712  1.3952 -1.4630
   26MOL   H94424994   6.137   4.035   1.726 -3.7233  1.1078  0.6566
   26MOL   H94524995   6.135   4.201   1.781  0.4007  0.9357 -0.8868
   26MOL   H94624996   6.379   4.223   1.694  0.2151 -0.4558 -2.9116
   26MOL   H94724997   6.357   4.068   1.622  0.0751 -2.3301  1.0673
   26MOL   H94824998   6.319   3.988   1.869  0.4918  0.5080  2.3101
   26MOL   H94924999   6.346   4.149   1.920  0.4386  1.0054  0.1326
   26MOL   H95025000   6.558   3.968   1.789 -1.2767 -1.5290  0.8362
   26MOL   H95125001   6.590   4.140   1.821  0.4491  0.1365  0.2540
   26MOL   H95225002   6.506   3.930   2.032  2.8494 -0.2920  3.1435
   26MOL   H95325003   6.580   4.085   2.054  1.6701 -1.1809  0.5793
   26MOL   H95425004   6.937   3.915   2.032  2.0239 -0.1581  0.7432
   26MOL   H95525005   6.926   3.818   2.178  0.3012  1.9749 -0.1200
   26MOL   H95625006   6.831   3.738   1.891  1.9608 -0.6039 -0.5906
   26MOL   H95725007   6.805   3.644   2.031  0.0444  1.3876  2.6271
   26MOL   H95825008   7.072   3.645   2.050  0.6306  1.4809 -0.4853
   26MOL   H95925009   7.067   3.752   1.910 -0.4098 -0.2262 -0.4281
   26MOL   H96025010   6.998   3.451   1.922 -0.6057 -1.0411 -2.6733
   26MOL   H96125011   7.136   3.521   1.862  0.3419  1.1918 -0.0102
   26MOL   H96225012   6.978   3.466   1.666 -1.0266  0.4640  1.0310
   27MOL     O125013   5.119   3.302   7.471 -0.7747 -0.1514 -0.0728
   27MOL     C225014   5.126   3.178   7.401 -0.4296 -0.3816  0.5551
   27MOL     C325015   5.264   3.174   7.332 -0.8767 -0.2575  0.7072
   27MOL     C425016   5.276   3.038   7.245 -0.5651 -0.6731 -0.4730
   27MOL     C525017   5.417   3.008   7.186 -0.4714 -0.2233 -0.6057
   27MOL     C625018   5.497   3.125   7.113  0.5694  0.9698  0.7645
   27MOL     C725019   5.627   3.087   7.047 -0.0149 -0.0848 -0.6729
   27MOL     C825020   5.690   3.205   6.984  0.3223  0.3396  0.3627
   27MOL     C925021   5.623   3.241   6.847  0.2003 -0.3227 -0.2011
   27MOL    C1025022   5.694   3.343   6.758  0.0460 -0.1509  0.2206
   27MOL    C1125023   5.631   3.358   6.614  0.2532 -0.1337  0.1165
   27MOL    O1225024   5.630   3.226   6.560 -0.3382  0.4095 -0.3588
   27MOL    C1325025   5.615   3.208   6.427  0.5095 -1.0522 -0.1436
   27MOL    O1425026   5.587   3.295   6.343 -0.4461  0.1610  0.0778
   27MOL    C1525027   5.614   3.063   6.379  0.4139 -0.3226 -0.1426
   27MOL    C1625028   5.703   3.039   6.253  0.2169  0.9010  0.4496
   27MOL    C1725029   5.718   2.901   6.208  0.6795  0.3213  0.0895
   27MOL    C1825030   5.815   2.876   6.092  0.0471 -0.5848 -0.2365
   27MOL    C1925031   5.960   2.908   6.136  1.0947 -0.1583 -0.3706
   27MOL    O2025032   6.018   3.013   6.118 -0.2089 -0.4430 -0.4358
   27MOL    H2125033   5.126   3.104   7.481 -0.4022 -1.3981 -0.3564
   27MOL    H2225034   5.041   3.161   7.334 -1.7346 -0.5141  2.2025
   27MOL    H2325035   5.341   3.169   7.409 -1.5154  1.8058  1.5019
   27MOL    H2425036   5.276   3.258   7.263 -1.0430  0.5518  1.6468
   27MOL    H2525037   5.241   2.962   7.314 -1.5393  2.1433  2.2646
   27MOL    H2625038   5.201   3.051   7.168 -0.1105 -0.2403 -0.8503
   27MOL    H2725039   5.405   2.938   7.103 -1.6670  3.3801 -3.6273
   27MOL    H2825040   5.479   2.960   7.261 -0.0165 -0.6373 -1.2372
   27MOL    H2925041   5.509   3.205   7.186  2.6652  2.4752 -1.1740
   27MOL    H3025042   5.424   3.145   7.035 -2.3215 -3.4436  2.1066
   27MOL    H3125043   5.610   3.004   6.979 -3.2902  2.4400 -3.1253
   27MOL    H3225044   5.693   3.044   7.122 -1.1997 -1.0091 -0.1545
   27MOL    H3325045   5.791   3.170   6.960 -0.1729 -0.7944 -0.0965
   27MOL    H3425046   5.693   3.292   7.050  1.7907 -0.7812  1.7864
   27MOL    H3525047   5.519   3.273   6.859 -0.7956 -2.9801 -1.2817
   27MOL    H3625048   5.623   3.146   6.794 -2.5204 -2.0808  2.7803
   27MOL    H3725049   5.713   3.436   6.811  0.1927  0.0386 -0.1623
   27MOL    H3825050   5.793   3.306   6.730  0.2295  0.0554  0.5973
   27MOL    H3925051   5.698   3.420   6.555  3.1785 -2.6681  0.6936
   27MOL    H4025052   5.534   3.408   6.609  0.1293 -0.5143 -1.5542
   27MOL    H4125053   5.624   3.008   6.472 -2.5960 -0.2376  0.2897
   27MOL    H4225054   5.513   3.030   6.354  0.8697 -1.8083 -0.0563
   27MOL    H4325055   5.800   3.076   6.286 -0.4002  2.5658  0.4388
   27MOL    H4425056   5.679   3.105   6.169 -0.5726  2.0243  1.5304
   27MOL    H4525057   5.616   2.871   6.183  0.2758  0.7310  1.2328
   27MOL    H4625058   5.747   2.835   6.290  0.5274 -1.8752 -1.5853
   27MOL    H4725059   5.799   2.941   6.006 -1.6037 -1.8890 -0.9478
   27MOL    H4825060   5.809   2.779   6.044  1.7760 -0.9798  0.3067
   27MOL    H4925061   5.181   3.290   7.541  0.7888 -1.8716 -1.6880
   27MOL    O5025062   6.010   2.800   6.202  0.6583 -0.4784  0.5452
   27MOL    C5125063   6.153   2.791   6.232  0.1655 -0.0347 -0.3020
   27MOL    C5225064   6.177   2.654   6.294 -0.1721  0.1929 -0.1269
   27MOL    C5325065   6.109   2.622   6.429  0.0096 -0.8341 -0.7161
   27MOL    C5425066   6.141   2.486   6.478 -0.3702 -0.4651 -0.5247
   27MOL    C5525067   6.052   2.443   6.598 -0.3131 -0.8829  0.5488
   27MOL    C5625068   6.052   2.539   6.718  0.2094  0.4056 -0.6751
   27MOL    C5725069   5.953   2.498   6.818 -0.0964  0.2132  0.1283
   27MOL    C5825070   5.900   2.603   6.921 -0.4487  0.0690 -0.9564
   27MOL    C5925071   5.786   2.549   7.009 -0.5390 -0.6999  0.7173
   27MOL    C6025072   5.739   2.650   7.117  0.7184  0.7550  0.7761
   27MOL    O6125073   5.604   2.622   7.147 -0.3415  0.0862  0.1999
   27MOL    C6225074   5.549   2.668   7.262  0.4185  0.3400 -0.1320
   27MOL    O6325075   5.606   2.739   7.342  0.2750 -0.1058  0.0027
   27MOL    C6425076   5.398   2.625   7.274 -0.6997  0.1681 -0.0274
   27MOL    C6525077   5.371   2.492   7.344  1.1763  1.0637  0.0444
   27MOL    C6625078   5.407   2.355   7.276 -0.4411  0.7393  0.4982
   27MOL    C6725079   5.355   2.238   7.351 -0.9897 -0.3102 -1.0011
   27MOL    C6825080   5.454   2.151   7.428 -0.3975  0.3453 -0.2233
   27MOL    O6925081   5.479   2.175   7.546  0.2761  0.9456 -0.2976
   27MOL    H7025082   6.211   2.803   6.140 -1.6941 -1.6397 -1.7089
   27MOL    H7125083   6.192   2.867   6.300  2.7471 -0.2257 -1.5040
   27MOL    H7225084   6.284   2.638   6.303 -0.0565  1.8152  1.9558
   27MOL    H7325085   6.133   2.580   6.228 -0.4565  0.0208  0.2505
   27MOL    H7425086   6.163   2.674   6.507  1.7649 -3.2261 -0.2856
   27MOL    H7525087   6.001   2.636   6.426 -0.0648 -0.9088  1.2423
   27MOL    H7625088   6.242   2.486   6.517 -1.2914 -1.0629  2.0013
   27MOL    H7725089   6.143   2.410   6.400  1.1532 -1.1108  0.1186
   27MOL    H7825090   6.078   2.341   6.625  0.3063 -0.5985  1.0342
   27MOL    H7925091   5.951   2.439   6.556  1.2261 -0.1403 -3.4242
   27MOL    H8025092   6.030   2.643   6.693 -0.9015 -0.1313 -1.9719
   27MOL    H8125093   6.153   2.537   6.758  0.3138  0.1193 -0.9470
   27MOL    H8225094   5.999   2.418   6.876 -0.5002 -0.1070  0.0092
   27MOL    H8325095   5.869   2.447   6.770  3.7592 -0.6848 -6.2797
   27MOL    H8425096   5.865   2.697   6.878  2.0128  0.7793 -1.4808
   27MOL    H8525097   5.986   2.641   6.976 -2.7044  0.5116  2.3883
   27MOL    H8625098   5.698   2.516   6.954 -0.2193 -0.0196 -0.2058
   27MOL    H8725099   5.825   2.464   7.065  2.5764  0.2375  0.1014
   27MOL    H8825100   5.736   2.752   7.079  0.4986 -1.0183 -4.3673
   27MOL    H8925101   5.807   2.647   7.202  1.4988  1.0899  0.1702
   27MOL    H9025102   5.335   2.697   7.325 -2.2147  0.0675 -1.6948
   27MOL    H9125103   5.347   2.626   7.177 -0.7764 -0.4532  0.0023
   27MOL    H9225104   5.263   2.490   7.363  1.5031  1.0945  2.1095
   27MOL    H9325105   5.422   2.497   7.441  0.8091  1.5857  0.2184
   27MOL    H9425106   5.515   2.356   7.290 -0.3433 -0.6087 -0.1020
   27MOL    H9525107   5.374   2.347   7.172  1.0228 -1.9333  0.2084
   27MOL    H9625108   5.292   2.171   7.294 -0.2303 -0.6350 -1.4719
   27MOL    H9725109   5.297   2.279   7.433  1.2390  0.8414  0.0594
   27MOL    O9825110   5.488   2.034   7.365  0.5794 -0.2753  0.3848
   27MOL    C9925111   5.588   1.947   7.414  0.4700 -1.1151  0.3350
   27MOL   C10025112   5.620   1.834   7.312 -0.1016 -0.2173 -0.2547
   27MOL   C10125113   5.502   1.744   7.300  0.1373  0.4184  0.2906
   27MOL   C10225114   5.541   1.626   7.209  0.2594 -0.1731  0.0800
   27MOL   C10325115   5.427   1.530   7.190 -0.1080  0.3493  0.5565
   27MOL   C10425116   5.453   1.415   7.091 -0.1429  0.8446  0.1121
   27MOL   C10525117   5.337   1.310   7.077  0.7290 -0.0821 -0.4984
   27MOL   C10625118   5.338   1.214   7.198  0.8385 -0.1134  0.5877
   27MOL   C10725119   5.215   1.114   7.200 -0.3092  0.0545 -0.1802
   27MOL   C10825120   5.230   1.004   7.094  0.6446  0.6897 -0.2753
   27MOL   O10925121   5.136   0.900   7.134  0.3519  0.0128 -0.2859
   27MOL   C11025122   5.148   0.788   7.063 -0.8730  0.2019  0.0816
   27MOL   O11125123   5.226   0.758   6.977  0.3164  0.6223 -0.2460
   27MOL   C11225124   5.024   0.693   7.094 -0.6781  0.0248  0.4880
   27MOL   C11325125   4.921   0.686   6.978  1.4015  0.0015  0.1696
   27MOL   C11425126   4.968   0.602   6.851 -0.4835 -0.1174  0.1705
   27MOL   C11525127   4.942   0.455   6.861 -0.0827  0.2430  0.7334
   27MOL   C11625128   4.999   0.390   6.730  0.4085 -0.5874 -0.6285
   27MOL   O11725129   5.070   0.289   6.739  0.0192  0.2088 -0.4137
   27MOL   H11825130   5.680   2.000   7.437  0.5946 -0.5989 -1.2805
   27MOL   H11925131   5.560   1.903   7.510 -0.4847 -2.0188 -0.3499
   27MOL   H12025132   5.706   1.783   7.357 -0.5514 -0.8341 -0.0862
   27MOL   H12125133   5.644   1.882   7.217  2.3901 -2.7742 -0.9888
   27MOL   H12225134   5.465   1.701   7.392  0.6052 -0.0187  0.2730
   27MOL   H12325135   5.419   1.798   7.252 -1.7626 -0.8404  2.1075
   27MOL   H12425136   5.626   1.571   7.248 -1.5315 -3.1892 -0.1032
   27MOL   H12525137   5.569   1.671   7.113 -1.1288  0.7432  0.0900
   27MOL   H12625138   5.331   1.576   7.163 -1.5140 -1.6114  2.0198
   27MOL   H12725139   5.404   1.481   7.285 -0.3462 -3.1702 -1.2304
   27MOL   H12825140   5.551   1.371   7.113 -1.0170 -0.6869  1.0122
   27MOL   H12925141   5.460   1.460   6.991  0.5298 -0.6425 -0.5200
   27MOL   H13025142   5.347   1.261   6.981 -1.2490 -0.3503 -0.5811
   27MOL   H13125143   5.237   1.353   7.068  1.0140  0.8994  0.8936
   27MOL   H13225144   5.329   1.268   7.293 -3.4995  0.9638 -0.3209
   27MOL   H13325145   5.429   1.154   7.193  1.0167  0.4377 -4.4097
   27MOL   H13425146   5.224   1.070   7.300  1.6155  0.8025 -0.0042
   27MOL   H13525147   5.123   1.172   7.196  0.2387  0.7690 -2.6468
   27MOL   H13625148   5.326   0.953   7.102  0.0786 -0.5588 -1.3720
   27MOL   H13725149   5.211   1.038   6.992  0.5172  0.0563 -0.4620
   27MOL   H13825150   5.060   0.593   7.118  0.0440  0.0450 -0.4848
   27MOL   H13925151   4.973   0.710   7.189 -0.9117 -0.6986  0.4971
   27MOL   H14025152   4.919   0.788   6.941  0.1739 -0.3193 -0.6712
   27MOL   H14125153   4.823   0.656   7.016  1.1008  1.8004  0.8613
   27MOL   H14225154   5.074   0.609   6.828 -0.1737  0.6667  1.8453
   27MOL   H14325155   4.921   0.654   6.767  0.5615  0.7969  0.1499
   27MOL   H14425156   4.835   0.435   6.867  0.1785 -1.7694 -0.5978
   27MOL   H14525157   5.003   0.424   6.946  0.9240  0.3336  0.0590
   27MOL   O14625158   4.968   0.450   6.617 -0.0107 -0.6181 -0.1759
   27MOL   C14725159   4.993   0.371   6.499  0.2181  0.1136  0.0502
   27MOL   C14825160   4.967   0.467   6.381 -0.6593 -0.3568 -0.0605
   27MOL   C14925161   5.078   0.566   6.361 -0.0689  0.3123  0.5707
   27MOL   C15025162   5.034   0.660   6.245  0.3464  0.5453 -0.0994
   27MOL   C15125163   5.105   0.626   6.118  0.5062 -0.3316 -0.0711
   27MOL   C15225164   5.040   0.667   5.988 -0.0045  0.6174  0.2905
   27MOL   C15325165   5.057   0.584   5.856 -0.1789  0.2762  0.2612
   27MOL   C15425166   5.192   0.572   5.794  0.4041 -0.1848 -0.3137
   27MOL   C15525167   5.248   0.712   5.746  0.3243  0.2613  0.3658
   27MOL   C15625168   5.394   0.693   5.722  0.0576  0.3981 -0.4315
   27MOL   O15725169   5.465   0.705   5.845  0.0867  0.7434 -0.0897
   27MOL   C15825170   5.598   0.665   5.864  0.0940  0.2001  0.0295
   27MOL   O15925171   5.665   0.606   5.781  0.1155 -0.3425  0.3548
   27MOL   C16025172   5.642   0.694   6.004 -0.2934 -0.1267  0.3077
   27MOL   C16125173   5.581   0.594   6.112 -0.6886 -0.6328  0.4055
   27MOL   C16225174   5.665   0.467   6.133 -0.0336  0.0504  0.1858
   27MOL   C16325175   5.610   0.353   6.225 -1.0246 -0.0673 -0.2453
   27MOL   C16425176   5.678   0.223   6.207  0.2742  0.1649 -0.1202
   27MOL   O16525177   5.774   0.206   6.126 -0.0299  0.3099 -0.2578
   27MOL   H16625178   5.091   0.324   6.511  0.8903  1.2065 -1.1256
   27MOL   H16725179   4.911   0.300   6.508  0.5311 -0.2977 -0.2932
   27MOL   H16825180   4.873   0.519   6.401  0.2060  2.2222 -2.4077
   27MOL   H16925181   4.939   0.425   6.285 -2.8919  0.8507  0.0157
   27MOL   H17025182   5.094   0.620   6.454 -1.0661 -0.2855  1.0905
   27MOL   H17125183   5.172   0.516   6.339  0.9158  2.3638 -0.0101
   27MOL   H17225184   5.052   0.764   6.273  1.9885 -0.0025  0.9191
   27MOL   H17325185   4.927   0.654   6.222  0.4666 -1.8887 -0.0984
   27MOL   H17425186   5.125   0.519   6.125  0.9188 -0.2396  0.1993
   27MOL   H17525187   5.206   0.663   6.134  0.0767  0.5006  0.7552
   27MOL   H17625188   5.050   0.775   5.973 -1.8901  0.8841  0.8516
   27MOL   H17725189   4.935   0.653   6.014  0.6864 -1.1275  2.3176
   27MOL   H17825190   4.988   0.620   5.780  0.4494 -0.8049 -0.8432
   27MOL   H17925191   5.022   0.481   5.869  0.8647 -0.1558 -0.2554
   27MOL   H18025192   5.189   0.506   5.707  2.1434 -2.2258  1.1281
   27MOL   H18125193   5.257   0.526   5.868  0.3115  0.2486  0.0398
   27MOL   H18225194   5.203   0.736   5.649 -0.0710  2.0563  0.9695
   27MOL   H18325195   5.225   0.795   5.813  0.1027 -0.9942  1.8811
   27MOL   H18425196   5.440   0.759   5.649  0.7519  0.2575 -0.1257
   27MOL   H18525197   5.404   0.590   5.688  1.1397  0.2152  0.3959
   27MOL   H18625198   5.751   0.700   5.997 -0.2230 -0.2534  1.2612
   27MOL   H18725199   5.607   0.793   6.036  1.2864 -0.1126  2.0791
   27MOL   H18825200   5.478   0.567   6.087 -0.7709 -1.1050  1.1952
   27MOL   H18925201   5.578   0.645   6.209 -0.8197 -1.1713  0.6897
   27MOL   H19025202   5.761   0.504   6.168  0.0868 -0.8583  0.8702
   27MOL   H19125203   5.686   0.431   6.032  1.2840 -0.4980  0.6383
   27MOL   H19225204   5.502   0.337   6.218 -0.9823 -0.0811 -0.9427
   27MOL   H19325205   5.632   0.363   6.331 -4.6002 -1.6625  0.7352
   27MOL   O19425206   5.619   0.125   6.290 -0.3281  0.0092  0.2911
   27MOL   C19525207   5.672   7.761   6.300  0.0273 -0.2909  0.0672
   27MOL   C19625208   5.600   7.678   6.195 -0.2643  0.0293  0.3191
   27MOL   C19725209   5.666   7.540   6.164 -0.4567  0.4767  1.3058
   27MOL   C19825210   5.677   7.447   6.280  0.1065 -0.0633 -0.1309
   27MOL   C19925211   5.736   7.307   6.244  0.0766 -0.3866  0.7257
   27MOL   C20025212   5.748   7.208   6.362 -0.4822  0.1340  0.3392
   27MOL   C20125213   5.772   7.063   6.311  0.2732  0.4426  0.4657
   27MOL   C20225214   5.722   6.956   6.415 -0.0800  0.2395 -0.3018
   27MOL   C20325215   5.712   6.808   6.368  0.2713  0.5877  0.3471
   27MOL   C20425216   5.833   6.761   6.278 -0.1790 -0.8293 -0.0141
   27MOL   O20525217   5.846   6.617   6.272 -0.0342  1.0412 -0.5928
   27MOL   C20625218   5.951   6.568   6.203 -0.3855 -0.2546 -0.1788
   27MOL   O20725219   6.038   6.628   6.141 -0.1547  0.2831 -0.2896
   27MOL   C20825220   5.952   6.417   6.210  0.7189  0.4172 -0.0821
   27MOL   C20925221   5.838   6.359   6.120  0.0200 -0.3424  0.1544
   27MOL   C21025222   5.869   6.351   5.968  0.5427  0.0599 -0.0101
   27MOL   C21125223   5.762   6.295   5.874  0.5367 -0.0188  0.1980
   27MOL   C21225224   5.816   6.243   5.737  0.1588 -0.4722  0.0626
   27MOL   O21325225   5.926   6.252   5.689  0.0061 -0.1508  0.5748
   27MOL   H21425226   5.781   0.007   6.293 -0.0144 -0.6654 -1.2047
   27MOL   H21525227   5.654   7.711   6.394  2.1110 -1.2639 -0.0215
   27MOL   H21625228   5.610   7.732   6.101 -0.2704  0.5947  0.6380
   27MOL   H21725229   5.496   7.655   6.218 -0.0065  0.4035  1.9648
   27MOL   H21825230   5.610   7.495   6.082 -0.4033  2.8636 -0.0850
   27MOL   H21925231   5.764   7.559   6.120 -0.7265 -1.2853 -0.1092
   27MOL   H22025232   5.582   7.409   6.318  0.7893  0.1866  1.9071
   27MOL   H22125233   5.736   7.484   6.365  0.5017 -1.9361  0.4513
   27MOL   H22225234   5.831   7.311   6.192 -0.4404  0.2620 -0.1799
   27MOL   H22325235   5.666   7.263   6.173  1.6322 -0.2240 -0.9242
   27MOL   H22425236   5.659   7.225   6.422 -1.1920  1.4805 -1.0374
   27MOL   H22525237   5.825   7.255   6.424  0.5818  0.4040 -1.1285
   27MOL   H22625238   5.880   7.057   6.304  0.2998  0.0296  1.2040
   27MOL   H22725239   5.714   7.048   6.220  0.7924  0.0798  0.1939
   27MOL   H22825240   5.624   6.993   6.445  0.2459  0.3281  0.6585
   27MOL   H22925241   5.771   6.973   6.510 -2.8857  0.3020  1.1780
   27MOL   H23025242   5.700   6.742   6.454 -1.1799  2.0461  1.3085
   27MOL   H23125243   5.622   6.810   6.305  0.7473  0.8928 -0.3279
   27MOL   H23225244   5.928   6.805   6.307 -0.9780 -0.4040  2.0532
   27MOL   H23325245   5.819   6.786   6.173 -0.8058 -3.1733 -0.5226
   27MOL   H23425246   6.043   6.365   6.181  0.3694  0.7662 -1.8096
   27MOL   H23525247   5.931   6.374   6.308 -2.2317 -1.7103 -1.5934
   27MOL   H23625248   5.753   6.427   6.123 -1.1662 -1.8415  1.2955
   27MOL   H23725249   5.800   6.263   6.154  1.8984 -1.3434 -0.5249
   27MOL   H23825250   5.951   6.280   5.958 -0.8737 -1.5037 -0.8037
   27MOL   H23925251   5.898   6.447   5.924 -1.8273  0.8538  0.0970
   27MOL   H24025252   5.685   6.369   5.850  0.0504 -1.0612 -1.4799
   27MOL   H24125253   5.705   6.215   5.921 -0.8709  0.0068 -1.4284
   27MOL   O24225254   5.711   6.172   5.687  0.0170  0.1541 -0.7682
   27MOL   C24325255   5.703   6.142   5.547  0.5035  0.4150 -0.0418
   27MOL   C24425256   5.750   6.002   5.529 -0.3247 -0.7920 -0.0823
   27MOL   C24525257   5.767   5.969   5.380  0.8324 -0.6249 -0.2836
   27MOL   C24625258   5.867   5.858   5.348 -0.1113  0.5213  0.5344
   27MOL   C24725259   5.828   5.793   5.218 -0.1898 -0.6513  0.6235
   27MOL   C24825260   5.928   5.682   5.170  0.4639 -0.5424  0.4713
   27MOL   C24925261   5.932   5.555   5.256  0.2421  0.0459 -0.3451
   27MOL   C25025262   6.034   5.457   5.198  0.0002  0.1070  0.2732
   27MOL   C25125263   6.062   5.325   5.269 -0.1450  0.3947  0.4137
   27MOL   C25225264   6.150   5.337   5.392  0.2037  0.1946 -1.1455
   27MOL   O25325265   6.192   5.210   5.442  0.3888 -0.5157 -0.0451
   27MOL   C25425266   6.189   5.181   5.580  0.0175 -0.1612  0.5583
   27MOL   O25525267   6.153   5.258   5.673 -0.4706  0.1052  0.2611
   27MOL   C25625268   6.251   5.046   5.603  0.1928  0.5566  0.1266
   27MOL   C25725269   6.265   4.997   5.751  0.9007  0.2225  0.6975
   27MOL   C25825270   6.139   4.970   5.834 -0.3836  0.2260 -0.6979
   27MOL   C25925271   6.177   4.921   5.972 -0.5518  0.0427  0.0403
   27MOL   C26025272   6.133   5.008   6.091 -0.1044  1.1260  0.4973
   27MOL   O26125273   6.030   5.076   6.087 -0.9127  0.2383 -0.3904
   27MOL   H26225274   5.599   6.141   5.515  0.4024  0.3891  0.2798
   27MOL   H26325275   5.765   6.205   5.483  0.7630  0.9078  0.6834
   27MOL   H26425276   5.683   5.925   5.565  1.6423 -1.9202  1.2671
   27MOL   H26525277   5.849   5.994   5.573  1.0947  0.2820 -2.9267
   27MOL   H26625278   5.664   5.949   5.351  1.1900 -1.5814 -0.9095
   27MOL   H26725279   5.786   6.054   5.315 -0.2363 -0.6982 -0.6938
   27MOL   H26825280   5.876   5.779   5.422  0.7075  0.7153  0.6552
   27MOL   H26925281   5.965   5.907   5.342  0.3993 -0.3997  1.2895
   27MOL   H27025282   5.824   5.857   5.131 -0.9154 -0.6776  0.6361
   27MOL   H27125283   5.723   5.766   5.231 -0.7573  0.3518 -1.6548
   27MOL   H27225284   6.033   5.713   5.165  0.6250 -0.8497  1.8747
   27MOL   H27325285   5.904   5.651   5.068 -0.8474 -5.0770  2.0155
   27MOL   H27425286   5.842   5.493   5.252  1.8040 -2.6815  3.4754
   27MOL   H27525287   5.947   5.595   5.356  0.9225 -0.1352 -0.3704
   27MOL   H27625288   6.126   5.514   5.190  0.8670 -1.0701  1.6005
   27MOL   H27725289   6.002   5.438   5.095  0.0219  1.6715 -0.0226
   27MOL   H27825290   5.969   5.286   5.311 -0.4166 -1.5436 -1.8795
   27MOL   H27925291   6.105   5.249   5.203  2.0497  1.5047  0.5307
   27MOL   H28025292   6.097   5.395   5.468  0.5789 -0.1689 -0.6094
   27MOL   H28125293   6.235   5.394   5.355 -0.6514  1.6630 -0.9208
   27MOL   H28225294   6.194   4.972   5.547 -1.2271  0.0372  2.2112
   27MOL   H28325295   6.356   5.052   5.572  0.7905 -2.9338  1.2862
   27MOL   H28425296   6.326   5.071   5.802  1.2824 -0.4059  1.1708
   27MOL   H28525297   6.318   4.901   5.754  0.6463  0.0112 -1.1752
   27MOL   H28625298   6.078   4.895   5.784 -2.4494  0.7800  0.9238
   27MOL   H28725299   6.081   5.062   5.841  0.3406  0.7070 -1.0138
   27MOL   H28825300   6.284   4.904   5.987 -0.0112  0.2498 -3.2283
   27MOL   H28925301   6.144   4.819   5.996  0.6963 -0.7072 -1.3524
   27MOL   O29025302   6.214   4.988   6.192 -0.3012 -0.0984 -0.1873
   27MOL   C29125303   6.200   5.054   6.313  0.0788  0.3166  0.0862
   27MOL   C29225304   6.330   5.130   6.354  0.6876  0.1452  0.1900
   27MOL   C29325305   6.369   5.228   6.244  0.1019 -0.7338  0.2817
   27MOL   C29425306   6.469   5.339   6.293  0.2402  0.6746 -0.2240
   27MOL   C29525307   6.606   5.273   6.325 -0.0360  0.0011  0.2734
   27MOL   C29625308   6.714   5.377   6.348 -0.1822 -0.6428 -0.2889
   27MOL   C29725309   6.851   5.316   6.322 -0.8322 -0.3152 -0.0798
   27MOL   C29825310   6.970   5.418   6.342 -0.2993 -0.5910  0.0271
   27MOL   C29925311   7.113   5.372   6.292 -0.5279 -0.0268 -0.2135
   27MOL   C30025312   7.222   5.473   6.321  0.0237 -0.2956  0.3323
   27MOL   O30125313   7.210   5.581   6.227 -0.3294 -0.0661  0.3242
   27MOL   C30225314   7.321   5.657   6.213  0.5293 -0.2781  0.1881
   27MOL   O30325315   7.424   5.655   6.287 -0.0555 -0.2197  0.3709
   27MOL   C30425316   7.306   5.756   6.102 -0.5180 -0.2976 -0.2641
   27MOL   C30525317   7.194   5.855   6.135  0.2030 -0.7697 -0.7125
   27MOL   C30625318   7.182   5.908   6.282  0.0148 -0.1431  0.2997
   27MOL   C30725319   7.127   6.051   6.295 -0.4239 -0.3307  0.0926
   27MOL   C30825320   6.984   6.075   6.259 -0.8539 -1.4562 -0.3603
   27MOL   O30925321   6.922   6.002   6.190 -0.3039  0.1904  0.5717
   27MOL   H31025322   6.125   5.131   6.300  0.1891  0.3214 -0.5314
   27MOL   H31125323   6.161   4.985   6.388  0.8013  0.1755  0.3372
   27MOL   H31225324   6.407   5.063   6.391  0.3068 -1.3132 -1.5931
   27MOL   H31325325   6.303   5.185   6.444  1.3265 -0.5994  0.8501
   27MOL   H31425326   6.402   5.168   6.160  0.9517 -0.0038  0.0955
   27MOL   H31525327   6.274   5.275   6.219 -0.2267 -1.8702 -0.6189
   27MOL   H31625328   6.439   5.389   6.385  2.2265  1.3474  0.1012
   27MOL   H31725329   6.480   5.419   6.219 -0.3637  1.0472  0.0862
   27MOL   H31825330   6.632   5.201   6.247  0.9820 -0.8995  1.4236
   27MOL   H31925331   6.598   5.201   6.406 -0.8099 -1.0419 -0.7092
   27MOL   H32025332   6.720   5.428   6.444  2.1745 -0.0461 -0.7025
   27MOL   H32125333   6.703   5.447   6.264 -0.2213  0.4974  0.6554
   27MOL   H32225334   6.851   5.276   6.220 -0.2293 -0.2597 -0.1015
   27MOL   H32325335   6.875   5.234   6.390 -1.0974 -0.3249  0.0003
   27MOL   H32425336   6.979   5.454   6.445  2.0922 -1.8330  0.2835
   27MOL   H32525337   6.960   5.514   6.291  2.1552 -0.1110  0.3809
   27MOL   H32625338   7.135   5.272   6.330  1.0010  0.6910  0.9106
   27MOL   H32725339   7.102   5.359   6.185 -0.7179 -0.4139 -0.1472
   27MOL   H32825340   7.319   5.429   6.297  1.2847  1.0173  2.8777
   27MOL   H32925341   7.221   5.510   6.423  0.3329  2.7288 -0.7110
   27MOL   H33025342   7.398   5.815   6.091 -0.1902 -0.3081  2.0082
   27MOL   H33125343   7.294   5.706   6.006 -2.2955 -1.1057  0.3597
   27MOL   H33225344   7.094   5.827   6.102  0.3181 -2.1048  0.0465
   27MOL   H33325345   7.215   5.925   6.054 -1.9994  0.6538 -0.0813
   27MOL   H33425346   7.277   5.910   6.337  0.0535 -0.0517  0.2293
   27MOL   H33525347   7.118   5.842   6.340 -0.9015  2.6541  2.5979
   27MOL   H33625348   7.189   6.117   6.234  0.1098  2.0129  3.0223
   27MOL   H33725349   7.144   6.079   6.399  0.2600 -0.8896  0.1343
   27MOL   O33825350   6.937   6.192   6.312  0.5679  0.4138 -0.0979
   27MOL   C33925351   6.807   6.234   6.283 -0.2041  0.2783  0.1759
   27MOL   C34025352   6.758   6.328   6.395 -0.5251  0.5446  0.1108
   27MOL   C34125353   6.711   6.247   6.515  0.2534 -0.1816  0.1576
   27MOL   C34225354   6.665   6.336   6.634 -0.5153  0.1816  0.6779
   27MOL   C34325355   6.608   6.264   6.752  0.7648 -0.3852 -0.0201
   27MOL   C34425356   6.716   6.192   6.827 -0.6019  0.9581 -0.1733
   27MOL   C34525357   6.669   6.135   6.959  0.6233 -0.5210  0.1277
   27MOL   C34625358   6.779   6.054   7.026  0.0586 -0.2547  0.6487
   27MOL   C34725359   6.708   5.955   7.116  0.1262  0.3385  0.1140
   27MOL   C34825360   6.794   5.857   7.197  0.3090  0.1805 -1.2430
   27MOL   O34925361   6.883   5.772   7.131  0.3752  0.3537 -0.0104
   27MOL   C35025362   6.858   5.642   7.106  0.2640 -0.1193 -0.2341
   27MOL   O35125363   6.748   5.591   7.100 -0.0780  0.5244 -0.5282
   27MOL   C35225364   6.984   5.563   7.108 -0.4730 -0.2700 -0.0267
   27MOL   C35325365   7.079   5.593   6.992  0.4159 -0.9778 -0.1394
   27MOL   C35425366   7.194   5.492   7.006  0.4167 -1.1400  0.5190
   27MOL   C35525367   7.290   5.481   6.884  0.0635 -0.0596 -0.1425
   27MOL   C35625368   7.232   5.396   6.767 -0.3564  0.4724 -0.0566
   27MOL   O35725369   7.182   5.446   6.669 -0.1853 -0.1385 -0.4719
   27MOL   H35825370   6.827   6.300   6.198  3.2851 -0.3308  0.4543
   27MOL   H35925371   6.736   6.155   6.255 -0.5019  0.2400  1.0382
   27MOL   H36025372   6.675   6.388   6.358  0.4640  3.0473  1.7933
   27MOL   H36125373   6.825   6.408   6.426 -0.5011  0.6014 -0.0853
   27MOL   H36225374   6.633   6.173   6.495 -0.3841  0.2253  1.0752
   27MOL   H36325375   6.801   6.192   6.543  1.3257  0.7535 -1.3831
   27MOL   H36425376   6.584   6.402   6.603  1.3186  2.2474  0.0879
   27MOL   H36525377   6.750   6.396   6.669  0.9008 -1.0132 -0.6027
   27MOL   H36625378   6.530   6.197   6.716  0.8809 -0.0952 -0.8257
   27MOL   H36725379   6.568   6.339   6.820 -1.8629 -2.4378  0.7682
   27MOL   H36825380   6.792   6.264   6.859 -0.9828  1.1079  0.4138
   27MOL   H36925381   6.772   6.119   6.770 -1.3315 -0.0060  0.3276
   27MOL   H37025382   6.582   6.069   6.952  0.0079  0.2732  0.1109
   27MOL   H37125383   6.641   6.222   7.018 -0.4108  0.6568 -2.0197
   27MOL   H37225384   6.842   6.123   7.082  2.1077 -1.7805  0.2484
   27MOL   H37325385   6.847   5.995   6.965  0.6583  1.4056 -0.3369
   27MOL   H37425386   6.637   6.003   7.183 -1.1672  0.0671 -1.0331
   27MOL   H37525387   6.633   5.886   7.076  2.0422 -0.7735 -1.6593
   27MOL   H37625388   6.736   5.792   7.263  2.1644  0.4130  0.6602
   27MOL   H37725389   6.851   5.917   7.268  1.3752 -0.6292 -1.3999
   27MOL   H37825390   7.036   5.588   7.201  1.5811 -0.2720 -1.1260
   27MOL   H37925391   6.948   5.460   7.102 -0.1886 -0.3540 -0.2976
   27MOL   H38025392   7.114   5.696   6.997 -1.1910 -0.4196 -0.1280
   27MOL   H38125393   7.027   5.571   6.899 -0.1003 -3.4372  0.6784
   27MOL   H38225394   7.158   5.391   7.024 -1.6335 -0.4155  0.5745
   27MOL   H38325395   7.234   5.520   7.104 -2.1512  0.7317  1.0878
   27MOL   H38425396   7.387   5.435   6.900  0.8613  1.2706 -1.1005
   27MOL   H38525397   7.312   5.581   6.848 -2.5825  0.2080 -1.1862
   27MOL   O38625398   7.268   5.263   6.772  0.3216  0.1921  0.4267
   27MOL   C38725399   7.256   5.178   6.662 -0.1627  0.8669  0.5559
   27MOL   C38825400   7.373   5.077   6.672  0.1145  0.4879  0.0343
   27MOL   C38925401   7.511   5.127   6.640 -0.8426 -0.2946 -0.1806
   27MOL   C39025402   7.603   5.022   6.570  0.2988 -0.3510 -0.0132
   27MOL   C39125403   7.742   5.069   6.525 -0.3271 -0.1913  0.0781
   27MOL   C39225404   0.067   4.956   6.477  0.2975 -0.0259 -0.6653
   27MOL   C39325405   0.147   5.000   6.352  0.3038  0.2051  0.4902
   27MOL   C39425406   0.205   4.884   6.262  0.2338  0.0585 -0.1651
   27MOL   C39525407   0.325   4.815   6.314 -0.1502 -0.8552 -0.1635
   27MOL   C39625408   0.366   4.694   6.238 -0.3296 -0.3774 -0.1230
   27MOL   O39725409   0.489   4.637   6.286  0.6095 -0.4957  0.8663
   27MOL   C39825410   0.547   4.529   6.226 -1.1575  0.1405  0.5288
   27MOL   O39925411   0.504   4.465   6.132  0.1599  0.1915 -0.1044
   27MOL   C40025412   0.671   4.480   6.309  0.2767  0.0324 -0.6390
   27MOL   C40125413   0.787   4.427   6.226 -0.2135  0.0228 -0.3689
   27MOL   C40225414   0.790   4.282   6.172  0.0893 -0.5932 -0.8459
   27MOL   C40325415   0.796   4.175   6.287 -0.1622  0.2184  0.3394
   27MOL   C40425416   0.771   4.042   6.224 -0.1930 -0.1258  0.1091
   27MOL   O40525417   0.862   3.964   6.191  0.0930 -0.2718 -0.1573
   27MOL   H40625418   7.162   5.124   6.666 -1.4013  2.7802 -1.4422
   27MOL   H40725419   7.259   5.231   6.566  2.9547 -1.2156 -0.5851
   27MOL   H40825420   7.345   4.994   6.607 -1.4871  1.9108 -1.1414
   27MOL   H40925421   7.370   5.032   6.771  0.7278 -0.0951 -0.2081
   27MOL   H41025422   7.510   5.203   6.562  4.0969  0.4621  0.2723
   27MOL   H41125423   7.556   5.159   6.734 -0.1121 -2.2627  0.1684
   27MOL   H41225424   7.547   4.990   6.483  0.4931 -0.7528  0.0107
   27MOL   H41325425   7.612   4.946   6.648  1.6491  2.2091  2.4419
   27MOL   H41425426   0.025   5.132   6.601  0.4775  0.0226 -0.5858
   27MOL   H41525427   7.710   5.133   6.442  1.0334  0.5068  0.0693
   27MOL   H41625428   0.008   4.870   6.448  0.4260  0.6121 -2.8658
   27MOL   H41725429   0.124   4.930   6.567 -1.8411  3.4254  1.8286
   27MOL   H41825430   0.224   5.069   6.387  1.4556 -0.9105  0.1623
   27MOL   H41925431   0.071   5.046   6.288 -0.3467  1.9932  2.4516
   27MOL   H42025432   0.236   4.921   6.164  0.2521  2.8227  0.8448
   27MOL   H42125433   0.131   4.812   6.228 -0.6741  0.1806  1.5212
   27MOL   H42225434   0.413   4.879   6.313 -0.1152 -0.9106 -0.6224
   27MOL   H42325435   0.323   4.788   6.420 -0.1229 -2.5684 -0.5862
   27MOL   H42425436   0.359   4.719   6.132  1.2370  1.9001  0.2769
   27MOL   H42525437   0.284   4.628   6.269  1.0995 -2.7890 -1.3309
   27MOL   H42625438   0.704   4.569   6.362  1.0766  1.6603 -3.7825
   27MOL   H42725439   0.646   4.394   6.373 -0.3870  0.8248  0.1749
   27MOL   H42825440   0.883   4.441   6.276 -1.6950  0.1109  2.5390
   27MOL   H42925441   0.787   4.483   6.132  3.6052 -0.2031 -0.5864
   27MOL   H43025442   0.876   4.269   6.105  0.6235  2.3684 -0.7878
   27MOL   H43125443   0.699   4.269   6.114 -0.9957 -2.8307  1.2636
   27MOL   H43225444   0.716   4.195   6.358 -0.6631  0.0638 -0.1811
   27MOL   H43325445   0.892   4.178   6.338 -0.3274  1.2761  0.6001
   27MOL   O43425446   0.644   4.015   6.202 -0.7554  0.1158  0.1809
   27MOL   C43525447   0.599   3.891   6.152  0.2533  0.3341 -0.4525
   27MOL   C43625448   0.605   3.783   6.266  0.0575  0.0860  0.1813
   27MOL   C43725449   0.547   3.654   6.212 -0.3806 -0.2072 -0.0638
   27MOL   C43825450   0.578   3.540   6.318  0.2890 -0.1696  0.4115
   27MOL   C43925451   0.488   3.538   6.443  0.1113 -0.4580  0.1623
   27MOL   C44025452   0.337   3.531   6.413  0.3602 -0.1263  0.2316
   27MOL   C44125453   0.249   3.571   6.536 -0.2798  0.2101 -0.5318
   27MOL   C44225454   0.249   3.723   6.564 -0.4103  0.5829 -0.3811
   27MOL   C44325455   0.109   3.786   6.588  0.2437  0.1846 -0.8467
   27MOL   C44425456   0.118   3.933   6.628 -0.8350 -0.2460 -0.7310
   27MOL   O44525457   0.196   3.947   6.748  0.0051 -0.1418 -0.1840
   27MOL   C44625458   0.207   4.069   6.806 -0.5197  0.8414 -0.4124
   27MOL   O44725459   0.175   4.173   6.755  0.5790 -0.0682 -0.4393
   27MOL   C44825460   0.280   4.064   6.941 -0.0607 -0.7644  0.6133
   27MOL   C44925461   0.215   3.939   7.021 -0.3007  0.1031 -0.5146
   27MOL   C45025462   0.254   3.942   7.176  0.1620 -0.1616  0.1505
   27MOL   C45125463   0.161   3.858   7.259 -0.0851 -0.4557  0.0764
   27MOL   C45225464   0.194   3.846   7.413 -0.4709  0.3199  0.1034
   27MOL   O45325465   0.306   3.860   7.457  0.1685  0.2927  0.0072
   27MOL   H45425466   0.503   3.893   6.102  0.2052  0.2798 -0.3633
   27MOL   H45525467   0.669   3.858   6.075 -0.7705 -2.3835 -0.2964
   27MOL   H45625468   0.546   3.823   6.349 -0.9473  0.4133 -0.6840
   27MOL   H45725469   0.706   3.771   6.305  0.6550  3.3065 -0.2495
   27MOL   H45825470   0.445   3.674   6.181 -0.0875 -0.0136 -0.9012
   27MOL   H45925471   0.600   3.633   6.119  2.4233  0.3084  1.3568
   27MOL   H46025472   0.686   3.543   6.336  0.2106 -0.3971  0.9514
   27MOL   H46125473   0.560   3.448   6.263  3.1429 -0.9224  0.6404
   27MOL   H46225474   0.508   3.624   6.507 -2.6229 -0.6359  1.3058
   27MOL   H46325475   0.518   3.448   6.497  0.8033 -0.0103  0.5298
   27MOL   H46425476   0.314   3.430   6.380  2.3311 -0.2154 -0.9571
   27MOL   H46525477   0.302   3.591   6.328 -1.1743  1.2951  1.8391
   27MOL   H46625478   0.276   3.506   6.620 -0.9542 -1.7369 -1.8054
   27MOL   H46725479   0.145   3.545   6.516  0.2796 -1.3243 -1.5197
   27MOL   H46825480   0.285   3.774   6.475 -1.3114  1.6368 -0.1575
   27MOL   H46925481   0.309   3.745   6.653  1.6567 -0.8766 -1.3857
   27MOL   H47025482   0.055   3.774   6.494  1.6310 -1.2952 -1.4747
   27MOL   H47125483   0.067   3.725   6.667  1.5078  0.7134  0.2667
   27MOL   H47225484   0.019   3.973   6.653 -0.2087  0.1273  1.2040
   27MOL   H47325485   0.150   3.987   6.539 -0.5850 -1.2633 -1.2608
   27MOL   H47425486   0.388   4.079   6.939 -0.5041  2.8154 -0.0913
   27MOL   H47525487   0.257   4.156   6.994 -0.6769 -1.3638  1.4003
   27MOL   H47625488   0.232   3.837   6.989 -0.2826  0.1691 -0.7202
   27MOL   H47725489   0.107   3.952   7.031 -0.2224  2.1326 -2.0134
   27MOL   H47825490   0.260   4.038   7.226  1.2906  1.1113 -2.3439
   27MOL   H47925491   0.355   3.901   7.185  0.2274  0.0545  0.4234
   27MOL   H48025492   0.168   3.755   7.225 -2.1524 -1.0622  1.4270
   27MOL   H48125493   0.057   3.890   7.246  0.3710  0.7722 -0.6454
   27MOL   O48225494   0.079   3.840   7.486  0.3676  0.5954 -0.5924
   27MOL   C48325495   0.087   3.855   7.625 -0.1723 -0.1007  0.2058
   27MOL   C48425496   0.126   3.724   7.691  0.0668 -0.6360 -0.3219
   27MOL   C48525497   0.037   3.603   7.649  0.5663 -0.4155  0.2559
   27MOL   C48625498   0.061   3.478   7.736 -0.4104 -0.1404 -0.4915
   27MOL   C48725499   7.747   3.485   0.104  0.4282 -0.0864  0.8945
   27MOL   C48825500   0.002   3.361   0.193  0.3397  0.4983 -0.4937
   27MOL   C48925501   7.690   3.366   0.324  0.5638 -0.0309 -0.2529
   27MOL   C49025502   7.719   3.228   0.406 -0.3327  0.5642  0.1246
   27MOL   C49125503   7.625   3.207   0.525  0.8864 -0.2399 -0.3914
   27MOL   C49225504   7.664   3.295   0.644 -0.6069 -0.0471  0.3519
   27MOL   O49325505   7.758   3.229   0.735  0.4127  0.2049  0.3812
   27MOL   C49425506   0.125   3.256   0.722  0.0292  0.2811  0.4241
   27MOL   O49525507   0.167   3.347   0.652 -0.1924  0.6055  0.2159
   27MOL   C49625508   0.221   3.161   0.801 -0.0085  0.1557 -0.9311
   27MOL   C49725509   0.155   3.027   0.838  0.0780  0.2664 -0.5963
   27MOL   C49825510   0.123   2.945   0.711 -0.2147 -0.4698  0.1934
   27MOL   C49925511   0.249   2.909   0.626 -0.6180  0.6062  0.3624
   27MOL   C50025512   0.343   2.808   0.692 -0.2450 -0.3361  0.4812
   27MOL   O50125513   0.304   2.697   0.728  0.3026  0.3536  0.5756
   27MOL   H50225514   0.172   3.916   7.655  0.4610 -1.5196  1.3688
   27MOL   H50325515   7.765   3.901   7.672 -0.0722  0.5140 -0.2101
   27MOL   H50425516   0.129   3.742   0.034 -0.7203 -1.0009 -0.2328
   27MOL   H50525517   0.224   3.707   7.646  0.3006  1.5757 -0.6971
   27MOL   H50625518   7.694   3.619   7.642  0.3739 -1.7268  0.1104
   27MOL   H50725519   0.054   3.577   7.545  0.5854 -0.1177  0.1848
   27MOL   H50825520   0.168   3.478   7.758 -0.1276 -1.0828 -1.8227
   27MOL   H50925521   0.043   3.384   7.684 -0.5625 -0.3170 -0.1166
   27MOL   H51025522   7.641   3.497   0.084  0.7409 -0.6095 -1.2197
   27MOL   H51125523   0.006   3.576   0.159 -0.2524  0.0066  1.0345
   27MOL   H51225524   0.108   3.337   0.205  0.2034 -0.5981 -1.3426
   27MOL   H51325525   7.732   3.274   0.137 -0.7644 -0.7048  2.0051
   27MOL   H51425526   7.584   3.379   0.302  0.8769  0.8435 -1.2654
   27MOL   H51525527   7.714   3.450   0.388  0.6113  0.4038 -0.8388
   27MOL   H51625528   0.061   3.217   0.427 -0.5359 -0.4661  0.6085
   27MOL   H51725529   7.696   3.143   0.342  2.7205 -0.1103 -0.1516
   27MOL   H51825530   7.531   3.252   0.495  0.7676  0.9045  1.5739
   27MOL   H51925531   7.607   3.107   0.563 -0.9661  0.4986  0.7240
   27MOL   H52025532   7.569   3.312   0.694 -0.8384 -0.6250  0.1081
   27MOL   H52125533   7.707   3.388   0.604  0.7082 -0.3357  1.0581
   27MOL   H52225534   0.309   3.145   0.739 -0.7695 -0.0844 -1.9775
   27MOL   H52325535   0.249   3.215   0.891 -1.8283 -3.2462  1.8147
   27MOL   H52425536   0.068   3.044   0.901  0.9044 -0.4562  0.7535
   27MOL   H52525537   0.223   2.976   0.905  1.9797  0.5071 -2.2869
   27MOL   H52625538   0.045   2.996   0.655 -0.1784  0.8438  1.3363
   27MOL   H52725539   0.061   2.860   0.739 -1.8052  0.0591 -1.6024
   27MOL   H52825540   0.302   2.999   0.593  0.8118 -0.2340  0.3040
   27MOL   H52925541   0.220   2.855   0.536 -2.5585  1.2672  0.5701
   27MOL   O53025542   0.470   2.848   0.712 -0.3485  0.1165  0.0281
   27MOL   C53125543   0.553   2.757   0.786 -0.1258 -0.6391  0.6913
   27MOL   C53225544   0.691   2.823   0.799 -0.6998  0.7837  0.8878
   27MOL   C53325545   0.682   2.953   0.879  0.2491 -0.1543 -0.1765
   27MOL   C53425546   0.802   3.050   0.857 -0.7215 -0.1068 -0.7718
   27MOL   C53525547   0.765   3.187   0.905 -0.3252  0.1168 -0.0513
   27MOL   C53625548   0.685   3.274   0.804 -1.4265 -0.0080  0.1481
   27MOL   C53725549   0.676   3.424   0.845  0.5723 -0.1837  0.7049
   27MOL   C53825550   0.586   3.490   0.736  0.1386 -1.0636  0.1924
   27MOL   C53925551   0.569   3.641   0.763  0.2729 -0.4575  0.7479
   27MOL   C54025552   0.503   3.683   0.895 -0.5139  0.1381  0.7934
   27MOL   O54125553   0.595   3.712   0.999 -0.3438 -0.1781 -0.2312
   27MOL   C54225554   0.544   3.754   1.118  0.2301  0.5505  0.3539
   27MOL   O54325555   0.424   3.771   1.146  0.2976  0.1043  0.1724
   27MOL   C54425556   0.637   3.758   1.235 -1.0232  0.6944 -0.4655
   27MOL   C54525557   0.696   3.615   1.258 -0.3045  0.3453  0.2025
   27MOL   C54625558   0.784   3.618   1.388  0.0632 -0.4243  0.4605
   27MOL   C54725559   0.833   3.481   1.426  1.2755 -0.0353 -0.1906
   27MOL   C54825560   0.729   3.381   1.469  0.3678  0.4786  0.1661
   27MOL   O54925561   0.689   3.294   1.394 -0.2092 -0.1028  0.1587
   27MOL   H55025562   0.516   2.732   0.886 -0.9333  0.8620  0.7757
   27MOL   H55125563   0.553   2.671   0.719  0.7324  0.5882 -0.8900
   27MOL   H55225564   0.723   2.861   0.702  0.5844  2.4540  1.9179
   27MOL   H55325565   0.763   2.745   0.822 -2.8535 -0.7153  2.7627
   27MOL   H55425566   0.592   3.009   0.851  1.9447  0.9827 -3.6628
   27MOL   H55525567   0.658   2.928   0.982 -1.7711  1.8451 -0.1255
   27MOL   H55625568   0.836   3.058   0.753 -1.1849  0.4841 -0.8847
   27MOL   H55725569   0.884   2.999   0.907 -0.6923  0.6567 -0.0448
   27MOL   H55825570   0.855   3.248   0.912  0.5614 -0.7969 -2.7412
   27MOL   H55925571   0.713   3.176   1.000  2.4265 -1.1255  1.3728
   27MOL   H56025572   0.589   3.225   0.785 -1.7561  0.7720 -0.2487
   27MOL   H56125573   0.742   3.261   0.712  1.1976 -0.9161  1.8643
   27MOL   H56225574   0.780   3.453   0.852  0.1514  1.0377  1.9911
   27MOL   H56325575   0.627   3.451   0.938  0.1455 -0.9932  0.7237
   27MOL   H56425576   0.491   3.443   0.710 -0.3723  0.2313 -0.3078
   27MOL   H56525577   0.638   3.474   0.641  0.2308 -2.4806  0.4682
   27MOL   H56625578   0.671   3.678   0.762 -0.0020  0.3129  0.9351
   27MOL   H56725579   0.516   3.679   0.675 -1.2991  1.2166  2.3702
   27MOL   H56825580   0.436   3.605   0.930  1.3323 -1.4236  0.9046
   27MOL   H56925581   0.453   3.777   0.870  0.4579  0.4389 -0.0635
   27MOL   H57025582   0.723   3.825   1.224 -1.1461  0.8003 -0.7899
   27MOL   H57125583   0.580   3.794   1.321  0.7189  0.0805  0.9774
   27MOL   H57225584   0.748   3.569   1.174  0.7210  0.4620  0.7722
   27MOL   H57325585   0.618   3.539   1.260 -0.3657  0.3542 -1.2990
   27MOL   H57425586   0.744   3.668   1.476 -1.8324 -0.0806 -0.5690
   27MOL   H57525587   0.871   3.677   1.361 -0.5295 -1.0010 -2.9621
   27MOL   H57625588   0.892   3.493   1.517  0.3096  2.6636  0.1408
   27MOL   H57725589   0.904   3.439   1.355  1.4968  1.6692 -0.9874
   27MOL   O57825590   0.692   3.397   1.596 -0.4067  0.3887  0.2705
   27MOL   C57925591   0.628   3.284   1.655 -0.2920 -0.9098  0.3757
   27MOL   C58025592   0.475   3.292   1.648  0.4748  0.1096  0.2839
   27MOL   C58125593   0.397   3.190   1.727  0.0317 -0.6007  0.8902
   27MOL   C58225594   0.247   3.232   1.757 -0.3460  0.2673  0.4989
   27MOL   C58325595   0.172   3.103   1.808 -0.6577  0.4691 -0.8180
   27MOL   C58425596   0.022   3.119   1.837 -0.0449 -0.2989  0.4245
   27MOL   C58525597   7.693   2.999   1.858  0.1745 -0.4914  0.2941
   27MOL   C58625598   7.545   3.035   1.860  0.4704 -0.1465 -0.0946
   27MOL   C58725599   7.459   2.917   1.907  0.5402  0.2489  0.1484
   27MOL   C58825600   7.311   2.956   1.894  0.2650  0.4246  0.1164
   27MOL   O58925601   7.232   2.844   1.938  0.4343 -0.4852 -0.1958
   27MOL   C59025602   7.110   2.810   1.885 -0.9384 -0.2025 -0.5328
   27MOL   O59125603   7.051   2.872   1.796  0.3035 -0.1223 -0.1683
   27MOL   C59225604   7.054   2.680   1.934 -0.2364  0.1758  0.3289
   27MOL   C59325605   7.084   2.646   2.081  0.8921  0.1325  0.5291
   27MOL   C59425606   7.039   2.504   2.111 -0.2308  0.1705 -0.2621
   27MOL   C59525607   7.047   2.459   2.258  0.3862  0.7473  0.3043
   27MOL   C59625608   7.006   2.317   2.284  0.3810  0.3323  0.2119
   27MOL   O59725609   7.094   2.233   2.304  0.1686  0.2040 -0.3885
   27MOL   H59825610   0.660   3.189   1.612  0.4504  0.1091 -1.3953
   27MOL   H59925611   0.655   3.271   1.760  0.1846  2.6518  0.7560
   27MOL   H60025612   0.444   3.297   1.544 -0.1917 -0.5008  0.4483
   27MOL   H60125613   0.453   3.389   1.692  0.3395  1.3139 -2.3544
   27MOL   H60225614   0.406   3.093   1.678 -0.7856 -0.8566  1.2398
   27MOL   H60325615   0.449   3.171   1.821 -0.4172 -0.7220  1.1156
   27MOL   H60425616   0.192   3.263   1.669 -0.0608  1.3518  0.6946
   27MOL   H60525617   0.264   3.314   1.828 -0.2725  1.1646 -0.5399
   27MOL   H60625618   0.223   3.052   1.890 -2.2493 -0.1393 -0.1957
   27MOL   H60725619   0.186   3.033   1.725 -0.0437  0.8249 -1.0174
   27MOL   H60825620   7.749   3.169   1.748  0.7144 -1.2370 -0.4313
   27MOL   H60925621   0.018   3.179   1.927  0.7876 -2.3365  1.8545
   27MOL   H61025622   7.715   2.945   1.950 -1.1870  0.2581  1.0686
   27MOL   H61125623   7.708   2.935   1.771  1.5868 -0.0969  0.2337
   27MOL   H61225624   7.522   3.049   1.754 -2.2092  1.3659  0.6422
   27MOL   H61325625   7.516   3.127   1.911  0.8219  0.1490 -0.4252
   27MOL   H61425626   7.489   2.833   1.846  3.1695  1.3018 -0.0661
   27MOL   H61525627   7.491   2.897   2.009  0.1418 -0.5976  0.1075
   27MOL   H61625628   7.287   2.997   1.797  1.2366  0.6543 -0.0363
   27MOL   H61725629   7.304   3.036   1.968  2.9030 -0.4045  1.3169
   27MOL   H61825630   6.947   2.670   1.918 -0.2145  0.3032  0.0993
   27MOL   H61925631   7.093   2.599   1.871 -1.0521 -0.6213  0.8340
   27MOL   H62025632   7.033   2.724   2.137  3.0552  0.4812  2.0613
   27MOL   H62125633   7.190   2.653   2.108  1.3957 -2.4243 -0.6479
   27MOL   H62225634   7.102   2.434   2.055 -1.8055 -1.0799 -0.4993
   27MOL   H62325635   6.943   2.489   2.063 -0.8196 -0.8970  1.2419
   27MOL   H62425636   6.981   2.519   2.320  2.5509  1.2778  2.1637
   27MOL   H62525637   7.148   2.467   2.298  1.7164 -4.2711 -1.6581
   27MOL   O62625638   6.872   2.296   2.285  0.4827  0.6470  0.1324
   27MOL   C62725639   6.817   2.167   2.290  0.4741  0.6662 -0.0693
   27MOL   C62825640   6.667   2.188   2.256  0.9047 -0.0157 -0.5524
   27MOL   C62925641   6.640   2.205   2.104 -0.1141 -0.0133  0.4490
   27MOL   C63025642   6.487   2.202   2.073  0.0058  0.2018 -0.4681
   27MOL   C63125643   6.416   2.065   2.062 -0.6387 -0.8151  0.6093
   27MOL   C63225644   6.274   2.075   2.004 -0.1765 -0.3810 -0.0386
   27MOL   C63325645   6.193   1.949   2.022 -0.4148 -0.1780  0.0740
   27MOL   C63425646   6.056   1.961   1.959  0.3100  0.3307 -0.1254
   27MOL   C63525647   5.971   1.834   1.981  0.3106  0.2561 -0.2542
   27MOL   C63625648   5.829   1.833   1.921 -0.5156  0.3207 -0.2442
   27MOL   O63725649   5.833   1.854   1.778 -0.6030 -0.2785  0.0398
   27MOL   C63825650   5.727   1.841   1.705 -0.5129  0.4393  0.1416
   27MOL   O63925651   5.611   1.822   1.742  0.1504 -0.5986  0.6486
   27MOL   C64025652   5.765   1.846   1.559 -0.7568  0.0846  0.4649
   27MOL   C64125653   5.730   1.714   1.486 -0.2667  0.0285 -0.8636
   27MOL   C64225654   5.835   1.601   1.499 -0.7493  0.4175 -0.3474
   27MOL   C64325655   5.933   1.613   1.383  0.2552  0.2450 -0.0128
   27MOL   C64425656   5.889   1.593   1.236 -0.4133 -0.4079  0.2283
   27MOL   O64525657   5.774   1.607   1.195  0.4676  0.0068 -0.6062
   27MOL   H64625658   6.861   2.104   2.213 -0.1653  2.0873 -1.6057
   27MOL   H64725659   6.839   2.107   2.379  3.1008  0.2239 -0.9689
   27MOL   H64825660   6.623   2.271   2.312  0.5410  0.1407 -1.0593
   27MOL   H64925661   6.605   2.104   2.287  0.7300 -0.6289 -2.4924
   27MOL   H65025662   6.673   2.296   2.054  1.3557 -0.2923  0.8761
   27MOL   H65125663   6.682   2.114   2.060  2.2470 -0.3794  3.2874
   27MOL   H65225664   6.469   2.251   1.977 -2.9886 -0.0065 -0.0733
   27MOL   H65325665   6.444   2.263   2.152 -0.6421 -1.0060  0.1299
   27MOL   H65425666   6.404   2.037   2.166  0.8153 -0.6274  0.8318
   27MOL   H65525667   6.474   1.993   2.004  0.2612 -0.9814  1.7215
   27MOL   H65625668   6.283   2.088   1.896 -1.3431  1.0617  0.0171
   27MOL   H65725669   6.230   2.168   2.039  0.6524 -0.0829  0.2191
   27MOL   H65825670   6.191   1.903   2.120 -1.7423 -0.3429 -0.0159
   27MOL   H65925671   6.247   1.867   1.975 -2.3260 -2.3923  1.6297
   27MOL   H66025672   6.061   1.973   1.851  2.4438 -0.0440 -0.0997
   27MOL   H66125673   6.011   2.048   2.006  2.6681 -0.0900  3.1630
   27MOL   H66225674   6.033   1.747   1.958 -2.0798 -1.4888 -0.2100
   27MOL   H66325675   5.957   1.836   2.089  0.6157 -0.0907 -0.2082
   27MOL   H66425676   5.782   1.915   1.975 -0.3717  0.6650 -0.6388
   27MOL   H66525677   5.780   1.737   1.936 -0.4770  0.4207  0.5380
   27MOL   H66625678   5.706   1.923   1.511  1.5808  1.2290 -0.6830
   27MOL   H66725679   5.869   1.878   1.550 -1.0644  0.9041 -0.1420
   27MOL   H66825680   5.704   1.731   1.382 -1.3678 -0.0792 -0.6109
   27MOL   H66925681   5.634   1.677   1.522  0.7378 -1.2861  0.5240
   27MOL   H67025682   5.775   1.510   1.490 -0.6742  0.2753  0.5171
   27MOL   H67125683   5.893   1.591   1.591 -1.2039  1.0607  0.0076
   27MOL   H67225684   5.994   1.525   1.399 -0.1509 -0.1340 -0.5300
   27MOL   H67325685   5.997   1.701   1.388 -0.9779  1.0794  1.3761
   27MOL   O67425686   6.001   1.571   1.164  0.0293  0.5316  0.0281
   27MOL   C67525687   5.975   1.545   1.025 -0.4043  0.1418 -0.7250
   27MOL   C67625688   6.110   1.531   0.954  0.3108  0.2375 -0.0721
   27MOL   C67725689   6.104   1.488   0.809  0.9162  0.3555 -0.4702
   27MOL   C67825690   6.238   1.496   0.739 -0.4249 -0.4023  0.7310
   27MOL   C67925691   6.225   1.480   0.583  0.1314  0.0583  0.6005
   27MOL   C68025692   6.237   1.336   0.534 -0.5848 -0.3888  0.3216
   27MOL   C68125693   6.237   1.320   0.381  0.5884  0.4966 -0.1316
   27MOL   C68225694   6.108   1.344   0.317  0.0576  0.1948  0.5390
   27MOL   C68325695   6.117   1.353   0.161  0.2899 -0.2652  0.5455
   27MOL   C68425696   5.972   1.379   0.115 -0.8778 -0.1083  0.1117
   27MOL   O68525697   5.896   1.269   0.146 -0.0126  0.4726 -0.1783
   27MOL   C68625698   5.764   1.281   0.170  0.0792 -0.0901 -0.0807
   27MOL   O68725699   5.700   1.380   0.145 -0.3836 -0.2175  0.0105
   27MOL   C68825700   5.700   1.168   0.238  0.0881  0.2984 -0.1374
   27MOL   C68925701   5.778   1.114   0.359 -0.1314  0.3785 -0.2727
   27MOL   C69025702   5.679   1.059   0.462 -0.2526  0.8209 -0.3108
   27MOL   C69125703   5.746   0.979   0.578 -0.1992  0.0741 -0.1978
   27MOL   C69225704   5.805   1.058   0.685 -0.2616 -0.6106 -0.1729
   27MOL   O69325705   5.919   1.036   0.715  0.2003  0.1726  0.1702
   27MOL   H69425706   5.920   1.452   1.012 -0.0350 -0.0598 -0.8252
   27MOL   H69525707   5.907   1.617   0.978  1.2156  1.3336 -1.2705
   27MOL   H69625708   6.177   1.457   0.997 -2.1884 -0.8887  2.0183
   27MOL   H69725709   6.162   1.626   0.964  1.0097 -0.0934 -0.5596
   27MOL   H69825710   6.066   1.387   0.798 -0.4379  0.8035 -0.0430
   27MOL   H69925711   6.028   1.547   0.757  1.0618  0.7557 -0.2325
   27MOL   H70025712   6.314   1.424   0.768  1.6025  1.4066  0.0391
   27MOL   H70125713   6.288   1.588   0.770 -0.4129 -0.1730  0.0554
   27MOL   H70225714   6.305   1.539   0.538  1.1155 -0.8677  1.1106
   27MOL   H70325715   6.131   1.518   0.543 -0.3268 -2.7552 -1.0954
   27MOL   H70425716   6.163   1.266   0.573 -0.1332 -1.5296 -0.8346
   27MOL   H70525717   6.337   1.302   0.560  0.0756  1.3355  0.0352
   27MOL   H70625718   6.266   1.218   0.358  0.0543  0.2969  0.0645
   27MOL   H70725719   6.321   1.380   0.347  2.3409 -0.1954  2.8062
   27MOL   H70825720   6.072   1.443   0.345 -0.4631 -0.3485  1.8384
   27MOL   H70925721   6.037   1.272   0.356  1.3994 -1.5479 -0.1871
   27MOL   H71025722   6.189   1.428   0.130  1.1667 -0.7488  1.3974
   27MOL   H71125723   6.148   1.257   0.120 -1.4945 -0.8318  0.4692
   27MOL   H71225724   5.978   1.396   0.007  2.0846  0.8198  0.3823
   27MOL   H71325725   5.924   1.466   0.158 -2.8165 -1.2708  0.3840
   27MOL   H71425726   5.599   1.193   0.272 -0.4508 -0.6256 -1.0025
   27MOL   H71525727   5.683   1.090   0.164 -0.6664  2.0869 -1.9065
   27MOL   H71625728   5.833   1.197   0.403 -1.5784  1.0943  0.2293
   27MOL   H71725729   5.854   1.041   0.332  0.2577  0.2976  1.0190
   27MOL   H71825730   5.610   0.988   0.417  1.6845 -2.0145  1.1095
   27MOL   H71925731   5.617   1.141   0.500 -0.5331 -0.2675  1.6869
   27MOL   H72025732   5.816   0.903   0.543 -1.7690 -0.6287 -1.8564
   27MOL   H72125733   5.667   0.921   0.626  0.8053 -0.0249  1.3707
   27MOL   O72225734   5.726   1.134   0.751  0.3020  0.4479 -0.6591
   27MOL   C72325735   5.770   1.234   0.843 -0.0522  0.0759 -0.4682
   27MOL   C72425736   5.719   1.370   0.799  0.0719 -0.1650  0.2847
   27MOL   C72525737   5.773   1.408   0.663 -0.6696 -0.4170 -0.3039
   27MOL   C72625738   5.736   1.552   0.630  0.4802 -0.1161 -0.3954
   27MOL   C72725739   5.782   1.594   0.491  0.5702  0.3450  0.5448
   27MOL   C72825740   5.743   1.736   0.452  0.1248  0.1674 -0.1446
   27MOL   C72925741   5.599   1.762   0.458  0.6551  0.2883  0.1080
   27MOL   C73025742   5.555   1.903   0.406 -0.6627  0.4813  0.0175
   27MOL   C73125743   5.404   1.909   0.409 -0.4852 -0.5010 -0.2361
   27MOL   C73225744   5.348   2.047   0.360 -0.1559  0.5292 -0.1201
   27MOL   O73325745   5.428   2.109   0.258 -0.2138  0.3478 -0.1051
   27MOL   C73425746   5.413   2.235   0.237  1.0382 -0.6747 -0.5651
   27MOL   O73525747   5.332   2.314   0.295  0.2247 -0.7682  0.0867
   27MOL   C73625748   5.534   2.294   0.153  0.1582 -0.5368 -0.4129
   27MOL   C73725749   5.513   2.424   0.077  0.2187  0.0518 -0.1176
   27MOL   C73825750   5.642   2.469   0.010 -0.9838  0.3396 -0.1886
   27MOL   C73925751   5.631   2.607   7.710  0.5434 -0.7450  0.9908
   27MOL   C74025752   5.763   2.667   7.656 -1.0204 -0.3135 -0.4691
   27MOL   O74125753   5.868   2.596   7.653  0.2896  0.3421  0.4412
   27MOL   H74225754   5.715   1.199   0.930 -1.3862  1.4518 -0.7281
   27MOL   H74325755   5.877   1.234   0.863  0.0243 -0.0165 -0.8906
   27MOL   H74425756   5.732   1.440   0.882  1.3266 -2.0129  1.6836
   27MOL   H74525757   5.612   1.359   0.785 -0.3479  0.6288  2.5888
   27MOL   H74625758   5.881   1.408   0.654 -0.4941 -3.3104  1.3078
   27MOL   H74725759   5.730   1.348   0.583  1.1663 -1.2875 -0.6521
   27MOL   H74825760   5.778   1.621   0.703 -0.8757  0.1088  0.1730
   27MOL   H74925761   5.629   1.562   0.643  0.4658 -0.1605 -0.4784
   27MOL   H75025762   5.734   1.530   0.416 -0.0356 -0.7800  1.8623
   27MOL   H75125763   5.891   1.589   0.479  0.3260  1.6344 -2.9206
   27MOL   H75225764   5.778   1.756   0.351 -0.2286  3.5547  0.3255
   27MOL   H75325765   5.809   1.802   0.508  0.7547  0.8701 -1.6843
   27MOL   H75425766   5.555   1.749   0.557 -1.0489  1.3887 -0.4784
   27MOL   H75525767   5.550   1.688   0.394  0.2412 -1.2318  2.1344
   27MOL   H75625768   5.583   1.911   0.301 -1.6893  3.5416 -0.0657
   27MOL   H75725769   5.602   1.985   0.461 -1.4363  1.0105 -0.1117
   27MOL   H75825770   5.369   1.822   0.354  2.8113 -1.6686 -0.5830
   27MOL   H75925771   5.371   1.898   0.513 -0.6247  1.6925 -0.0231
   27MOL   H76025772   5.331   2.108   0.448  0.8427  0.2377  0.2898
   27MOL   H76125773   5.252   2.025   0.313  1.0628 -0.4203 -2.2645
   27MOL   H76225774   5.614   2.305   0.226 -0.2526  1.3179 -0.2290
   27MOL   H76325775   5.561   2.213   0.085  0.0168 -0.2266 -0.8418
   27MOL   H76425776   5.461   2.488   0.148 -2.8896 -0.4573 -1.8038
   27MOL   H76525777   5.440   2.414   7.761  0.7323 -3.7049 -0.1999
   27MOL   H76625778   5.690   2.403   7.703  2.2870  0.8849  1.4159
   27MOL   H76725779   5.720   2.477   0.085  0.3184  0.4787 -1.5402
   27MOL   H76825780   5.606   2.671   0.030 -0.4438  1.3365 -0.8097
   27MOL   H76925781   5.551   2.609   7.636  1.2991 -1.5279  0.1456
   27MOL   O77025782   5.748   2.792   7.606 -0.1194  0.1566  0.2244
   27MOL   C77125783   5.862   2.870   7.555  0.0414  0.2548  0.3995
   27MOL   C77225784   5.917   2.823   7.417  0.1665  0.2253  0.2962
   27MOL   C77325785   6.067   2.864   7.404  0.1562  0.3810 -0.1531
   27MOL   C77425786   6.135   2.815   7.270  1.0841 -0.0919  0.3434
   27MOL   C77525787   6.172   2.669   7.282  0.8072  0.1264  0.2419
   27MOL   C77625788   6.268   2.624   7.170  0.5218 -0.4411 -0.8193
   27MOL   C77725789   6.293   2.475   7.176  0.0670  1.0100  0.5223
   27MOL   C77825790   6.182   2.401   7.109  0.2375 -0.4887  0.4031
   27MOL   C77925791   6.202   2.243   7.118  0.0078  0.4241 -0.3569
   27MOL   C78025792   6.082   2.177   7.182  0.2107  0.4532 -0.0215
   27MOL   O78125793   6.067   2.228   7.311  0.3120 -0.8213  0.2927
   27MOL   C78225794   5.942   2.222   7.373 -0.0634  0.0179 -0.2453
   27MOL   O78325795   5.838   2.180   7.327  0.1498 -0.7633 -0.2405
   27MOL   C78425796   5.935   2.298   7.511 -0.3260  0.1941  0.1733
   27MOL   C78525797   6.038   2.254   7.615  0.3870 -0.6409 -0.1324
   27MOL   C78625798   6.169   2.331   7.609 -0.7646 -0.4010  0.4953
   27MOL   C78725799   6.158   2.485   7.629  0.0744  0.4046  0.0706
   27MOL   C78825800   6.287   2.552   7.664 -0.5968 -0.7779  0.5281
   27MOL   O78925801   6.288   2.645   7.746 -0.2693  0.0973 -0.1868
   27MOL   H79025802   5.826   2.972   7.559  1.8652  0.9082  0.5937
   27MOL   H79125803   5.946   2.878   7.624  0.0002  0.7191  0.3908
   27MOL   H79225804   5.859   2.864   7.334  0.1010 -1.2672 -0.4079
   27MOL   H79325805   5.907   2.715   7.416  0.1342  0.2320 -0.3656
   27MOL   H79425806   6.073   2.973   7.407  1.5491  0.3123  0.0705
   27MOL   H79525807   6.124   2.821   7.486 -0.4849  2.0161  1.1766
   27MOL   H79625808   6.209   2.879   7.223 -0.6090  1.9166  0.3780
   27MOL   H79725809   6.056   2.807   7.195  1.5135  0.5749 -0.1845
   27MOL   H79825810   6.076   2.618   7.277  0.2558  1.2234 -0.6232
   27MOL   H79925811   6.223   2.644   7.375  0.7722  1.6458  0.6853
   27MOL   H80025812   6.365   2.670   7.189 -0.2728  0.9010  0.0865
   27MOL   H80125813   6.238   2.658   7.071 -0.9868 -0.8059 -0.4994
   27MOL   H80225814   6.312   2.444   7.279  0.4685  2.1147  0.7861
   27MOL   H80325815   6.383   2.442   7.123  0.4782  0.9576  1.2366
   27MOL   H80425816   6.170   2.419   7.002 -1.0974  0.9050  0.7704
   27MOL   H80525817   6.082   2.427   7.144  0.4695  1.4447 -0.3114
   27MOL   H80625818   6.219   2.198   7.020 -0.4718 -1.8903  0.5918
   27MOL   H80725819   6.280   2.223   7.191  0.4048  0.2234 -0.8322
   27MOL   H80825820   6.093   2.070   7.200 -0.5473  0.4889  0.7285
   27MOL   H80925821   5.985   2.193   7.134  0.5131  1.2645 -0.3708
   27MOL   H81025822   5.917   2.402   7.484  0.1723 -0.4383 -2.7654
   27MOL   H81125823   5.839   2.268   7.555 -0.0575  0.3063  0.8391
   27MOL   H81225824   6.059   2.149   7.597  0.8392 -0.1831 -2.3534
   27MOL   H81325825   5.997   2.259   7.716 -0.2303  2.0632 -0.4631
   27MOL   H81425826   6.227   2.305   7.520 -1.8929  0.1932 -0.4193
   27MOL   H81525827   6.230   2.293   7.691 -1.0004  0.6655  1.1735
   27MOL   H81625828   6.089   2.515   7.707 -2.2326 -2.2914 -0.8122
   27MOL   H81725829   6.115   2.529   7.539  0.3920  1.5667  0.4817
   27MOL   O81825830   6.386   2.509   7.579  0.2530  0.0842 -0.1667
   27MOL   C81925831   6.515   2.554   7.585  0.0841  0.6618 -0.4433
   27MOL   C82025832   6.587   2.517   7.456  0.3536  0.3184 -0.2952
   27MOL   C82125833   6.730   2.576   7.451  0.0362  0.4937 -0.1301
   27MOL   C82225834   6.803   2.522   7.327 -0.2427  0.4124  0.7308
   27MOL   C82325835   6.861   2.373   7.346  0.0131 -0.6495  0.7896
   27MOL   C82425836   6.965   2.330   7.236  0.4727  0.2191  0.4145
   27MOL   C82525837   7.097   2.411   7.234  0.0337  0.2751  0.1503
   27MOL   C82625838   7.172   2.429   7.370 -0.1425 -0.2818 -0.5545
   27MOL   C82725839   7.232   2.296   7.417 -0.0817  0.1209 -0.5460
   27MOL   C82825840   7.334   2.304   7.532 -0.1566 -0.4182 -0.4878
   27MOL   O82925841   7.274   2.336   7.656 -0.6217 -0.0897 -0.6882
   27MOL   C83025842   7.264   2.465   7.693 -0.9043 -0.3599  0.5379
   27MOL   O83125843   7.321   2.556   7.626  0.1312 -0.4412 -1.0132
   27MOL   C83225844   7.159   2.492   0.034 -0.6047  0.5500 -0.4549
   27MOL   C83325845   7.026   2.425   7.764  0.7473  0.1600  0.1074
   27MOL   C83425846   6.928   2.434   0.122  0.4052 -0.3939  0.2420
   27MOL   C83525847   6.894   2.580   0.162  0.1803 -0.8008 -0.5136
   27MOL   C83625848   6.764   2.593   0.231 -0.0990  0.3842 -0.3701
   27MOL   O83725849   6.762   2.592   0.362 -0.0508  1.0917  0.3983
   27MOL   H83825850   6.521   2.660   7.607 -1.7737  0.5020  0.9493
   27MOL   H83925851   6.567   2.509   7.670 -1.3173 -1.0025 -0.4325
   27MOL   H84025852   6.530   2.566   7.377  2.6082  3.0310 -0.3173
   27MOL   H84125853   6.578   2.411   7.435 -0.6649  0.0573  1.3815
   27MOL   H84225854   6.727   2.684   7.443 -1.4236  0.3331 -2.1633
   27MOL   H84325855   6.785   2.555   7.543 -0.5919 -1.0791 -0.0873
   27MOL   H84425856   6.888   2.590   7.324 -0.4987  0.7291  0.5658
   27MOL   H84525857   6.759   2.550   7.231  2.3928  1.3007 -0.2558
   27MOL   H84625858   6.775   2.307   7.334 -0.3810 -0.1512  0.8616
   27MOL   H84725859   6.887   2.375   7.452 -0.1365  1.6205  0.7962
   27MOL   H84825860   6.922   2.337   7.136  1.3547  2.8013  0.1835
   27MOL   H84925861   6.992   2.225   7.248  0.1799  0.2461  1.3109
   27MOL   H85025862   7.071   2.509   7.193 -2.2493 -2.0163 -4.2818
   27MOL   H85125863   7.172   2.380   7.161  0.8495  0.9896  0.6743
   27MOL   H85225864   7.110   2.490   7.435  0.2826 -1.1606  0.6906
   27MOL   H85325865   7.249   2.502   7.346 -0.3173 -1.0479 -3.6236
   27MOL   H85425866   7.161   2.216   7.436  3.0372 -2.3206  1.5635
   27MOL   H85525867   7.291   2.270   7.329  0.4217  0.9713 -0.4641
   27MOL   H85625868   7.417   2.372   7.513  0.9529 -2.4518 -3.3964
   27MOL   H85725869   7.379   2.205   7.543 -0.5117 -0.2594  2.8693
   27MOL   H85825870   7.204   2.442   0.120  0.0530  0.1649 -1.0116
   27MOL   H85925871   7.149   2.598   0.057  0.6572  0.4011  0.8857
   27MOL   H86025872   7.045   2.320   7.741  0.9812 -0.0253  1.1188
   27MOL   H86125873   6.986   2.458   7.669  4.0056 -1.7962 -2.0464
   27MOL   H86225874   6.971   2.383   0.208  0.7536  0.6169  0.6718
   27MOL   H86325875   6.843   2.371   0.096 -0.1241  0.7841 -0.9779
   27MOL   H86425876   6.905   2.651   0.080  0.9839 -3.1229 -2.5017
   27MOL   H86525877   6.965   2.612   0.238  0.7320 -1.1087 -0.8872
   27MOL   O86625878   6.661   2.611   0.150 -0.5001  0.1352  0.1273
   27MOL   C86725879   6.542   2.667   0.211 -0.1090  0.2044 -0.0066
   27MOL   C86825880   6.560   2.822   0.231 -0.3572  0.0231 -0.1855
   27MOL   C86925881   6.426   2.889   0.286 -0.7201 -0.3711  0.1277
   27MOL   C87025882   6.440   3.043   0.306 -0.7908  0.3720  0.0185
   27MOL   C87125883   6.308   3.100   0.359  0.2613  0.1557 -0.4949
   27MOL   C87225884   6.291   3.260   0.349 -0.2781 -0.3542  1.0358
   27MOL   C87325885   6.268   3.322   0.209  0.2413  0.3395 -0.0998
   27MOL   C87425886   6.264   3.474   0.185 -0.0565 -0.3441 -0.0944
   27MOL   C87525887   6.150   3.535   0.258  0.2308 -0.4362  0.7175
   27MOL   C87625888   6.141   3.683   0.220 -1.4946  0.1174  0.6363
   27MOL   O87725889   6.027   3.741   0.262 -0.1875  0.3667 -0.3246
   27MOL   C87825890   6.030   3.876   0.283 -0.0128 -0.0364  0.4559
   27MOL   O87925891   6.130   3.949   0.267 -0.5407  0.0807  0.6448
   27MOL   C88025892   5.893   3.912   0.335 -0.2285  0.2200  0.6311
   27MOL   C88125893   5.782   3.888   0.230  0.2304  0.2332  0.5199
   27MOL   C88225894   5.645   3.926   0.268  0.2824 -0.2052 -0.4700
   27MOL   C88325895   5.565   3.816   0.342 -0.6272 -0.1273 -0.1814
   27MOL   C88425896   5.425   3.843   0.380  0.1514  0.4720  0.3800
   27MOL   O88525897   5.373   3.956   0.370  0.0577  1.0112 -0.3896
   27MOL   H88625898   6.453   2.651   0.150  0.0478 -0.0566 -0.1688
   27MOL   H88725899   6.515   2.607   0.298  0.1829 -1.3031 -0.9318
   27MOL   H88825900   6.590   2.858   0.133  2.1737 -0.7972  0.2339
   27MOL   H88925901   6.643   2.855   0.294 -0.8967 -0.2543  0.6741
   27MOL   H89025902   6.350   2.864   0.212  1.0492  0.5483 -2.0609
   27MOL   H89125903   6.393   2.843   0.379  1.4203  0.3332  1.2734
   27MOL   H89225904   6.457   3.093   0.211 -1.0091 -1.0161 -0.7752
   27MOL   H89325905   6.529   3.063   0.366 -0.7334 -0.0295  0.0700
   27MOL   H89425906   6.289   3.067   0.462 -0.1330  0.7828 -0.3595
   27MOL   H89525907   6.222   3.051   0.314 -2.1411  2.1684  1.6890
   27MOL   H89625908   6.388   3.305   0.371 -1.2381  0.8752  2.9865
   27MOL   H89725909   6.214   3.295   0.418  2.9715  0.6162  4.3586
   27MOL   H89825910   6.174   3.280   0.174 -0.4121  2.3167 -0.8298
   27MOL   H89925911   6.340   3.285   0.136 -1.7198  0.3301 -2.0910
   27MOL   H90025912   6.255   3.490   0.077 -1.8840  0.0400  0.0921
   27MOL   H90125913   6.365   3.507   0.210  0.4922 -0.6363 -1.8786
   27MOL   H90225914   6.057   3.492   0.220 -0.6749  1.5033  0.6890
   27MOL   H90325915   6.155   3.519   0.365  0.4029  2.0680  1.1047
   27MOL   H90425916   6.152   3.699   0.113 -1.6704  1.2755  0.7838
   27MOL   H90525917   6.229   3.730   0.265 -0.5017 -1.0320 -0.0733
   27MOL   H90625918   5.869   3.854   0.424 -0.6618 -0.7654 -0.1115
   27MOL   H90725919   5.896   4.017   0.363 -1.2137  0.6292 -0.7326
   27MOL   H90825920   5.776   3.783   0.204 -0.1304 -0.1678  2.2003
   27MOL   H90925921   5.796   3.956   0.146  1.3394  1.9567  2.0528
   27MOL   H91025922   5.590   3.953   0.177 -1.2072 -1.1252  0.1375
   27MOL   H91125923   5.638   4.012   0.335 -2.3388 -0.5417 -0.2414
   27MOL   H91225924   5.615   3.800   0.438 -0.2315  3.3228  0.2498
   27MOL   H91325925   5.567   3.722   0.288  1.3591 -0.4469  0.3849
   27MOL   O91425926   5.362   3.733   0.428 -0.4672 -0.4713  0.0076
   27MOL   C91525927   5.232   3.763   0.487 -0.6554 -0.3864  1.0083
   27MOL   C91625928   5.197   3.656   0.588  0.1509  0.1203 -0.1222
   27MOL   C91725929   5.063   3.683   0.657  0.1028  0.0447 -0.5714
   27MOL   C91825930   5.032   3.596   0.776  0.3981  0.6100 -0.1782
   27MOL   C91925931   4.896   3.631   0.840 -0.0721  0.0665  0.0087
   27MOL   C92025932   4.875   3.568   0.977  0.5860 -0.1331 -0.0601
   27MOL   C92125933   4.722   3.537   1.017  0.4488 -0.2287 -0.5666
   27MOL   C92225934   4.721   3.496   1.162  1.0122  0.5521  0.0508
   27MOL   C92325935   4.577   3.457   1.207  0.2464  0.4409 -0.2408
   27MOL   C92425936   4.565   3.423   1.358  0.8389  0.2115  0.7103
   27MOL   O92525937   4.586   3.532   1.443  0.1286  0.2346 -0.5426
   27MOL   C92625938   4.479   3.583   1.504  0.4905  0.2498  0.3870
   27MOL   O92725939   4.354   3.560   1.480 -0.5792  0.1277 -0.2943
   27MOL   C92825940   4.525   3.696   1.594 -0.1606  0.2470 -0.0380
   27MOL   C92925941   4.549   3.829   1.522 -0.5420  0.2366 -0.3809
   27MOL   C93025942   4.435   3.930   1.522  0.0384  0.1169 -0.3241
   27MOL   C93125943   4.291   3.878   1.497 -0.1377 -0.0886  0.4567
   27MOL   C93225944   4.273   3.857   1.345 -0.6187 -0.1520 -0.0103
   27MOL   O93325945   4.358   3.808   1.270 -0.4185 -0.0835 -0.7616
   27MOL   H93425946   5.220   3.863   0.528  1.9352  0.4958 -0.2332
   27MOL   H93525947   5.160   3.754   0.405  0.8851  0.6595 -0.4926
   27MOL   H93625948   5.273   3.646   0.665 -0.5569 -0.4118  0.5202
   27MOL   H93725949   5.196   3.555   0.546 -0.1150 -0.4176  1.1412
   27MOL   H93825950   5.077   3.789   0.676  1.8183 -0.3829  0.6549
   27MOL   H93925951   4.981   3.671   0.586 -2.0136 -2.9206  2.2608
   27MOL   H94025952   5.111   3.604   0.851  0.9428 -2.0231 -0.4074
   27MOL   H94125953   5.049   3.490   0.753  0.4655  1.0271 -2.1908
   27MOL   H94225954   4.822   3.588   0.772 -0.7627 -0.2970  0.9908
   27MOL   H94325955   4.892   3.739   0.854 -0.3237  0.3904 -2.2605
   27MOL   H94425956   4.923   3.623   1.058 -0.5546  0.6863  0.0702
   27MOL   H94525957   4.906   3.464   0.971 -1.8203 -0.8695 -0.2657
   27MOL   H94625958   4.690   3.451   0.958  2.4372 -1.1908 -0.3067
   27MOL   H94725959   4.654   3.619   0.996 -1.5845 -1.5866  0.4753
   27MOL   H94825960   4.747   3.583   1.222  2.1143  2.4129 -3.0497
   27MOL   H94925961   4.784   3.410   1.185  0.7747  0.3742  0.0410
   27MOL   H95025962   4.508   3.532   1.168 -0.0864  1.1099  1.6276
   27MOL   H95125963   4.553   3.367   1.149 -1.0373  0.5168  0.1702
   27MOL   H95225964   4.638   3.349   1.392 -0.0431 -0.5495  0.9520
   27MOL   H95325965   4.467   3.377   1.368 -0.1308  2.4690  1.8170
   27MOL   H95425966   4.456   3.701   1.678  0.5681  1.3851  0.5022
   27MOL   H95525967   4.620   3.664   1.638 -0.2500  0.2045  0.1260
   27MOL   H95625968   4.573   3.806   1.418 -2.7721  1.1341 -1.1195
   27MOL   H95725969   4.642   3.870   1.561 -0.1682 -1.5235  0.6535
   27MOL   H95825970   4.449   4.006   1.444  2.4583 -0.1541 -0.1762
   27MOL   H95925971   4.432   3.988   1.614  2.1921 -0.0139 -0.1534
   27MOL   H96025972   4.220   3.954   1.532 -1.8496 -0.3501 -2.2734
   27MOL   H96125973   4.269   3.787   1.552 -0.8406 -0.2421 -0.0714
   27MOL   H96225974   4.180   3.899   1.307  1.0690  2.0903 -1.8024
   28MOL     O125975   5.972   0.675   6.986 -0.1331 -0.1506 -1.0225
   28MOL     C225976   6.013   0.617   6.862  0.5166 -0.2246  0.6142
   28MOL     C325977   6.153   0.669   6.831 -0.1932 -0.7962  0.3388
   28MOL     C425978   6.210   0.621   6.700 -0.2002 -0.7074 -0.0480
   28MOL     C525979   6.333   0.692   6.650 -0.2200  0.2110  0.9454
   28MOL     C625980   6.394   0.628   6.522 -0.1839  0.8070  0.2733
   28MOL     C725981   6.496   0.715   6.458 -0.6407 -0.2974  0.3692
   28MOL     C825982   6.529   0.684   6.308  0.3722 -0.5952 -0.2546
   28MOL     C925983   6.601   0.801   6.229  0.7266 -0.0515 -0.5206
   28MOL    C1025984   6.637   0.771   6.084 -0.0982  0.1704  0.0905
   28MOL    C1125985   6.672   0.881   5.986 -0.4352  0.2181  0.8164
   28MOL    O1225986   6.801   0.935   6.031  0.6761 -0.0894 -0.0116
   28MOL    C1325987   6.910   0.921   5.950 -0.4838  0.2035  0.1251
   28MOL    O1425988   6.906   0.849   5.847  0.2101  0.1983 -0.2000
   28MOL    C1525989   7.033   0.986   5.992  0.6008 -0.6379  0.2797
   28MOL    C1625990   7.093   0.921   6.112  0.0433 -0.3117  0.8395
   28MOL    C1725991   7.021   0.954   6.242  0.2344 -0.0657  0.3667
   28MOL    C1825992   7.091   0.894   6.359 -0.2125  0.0284  0.2083
   28MOL    C1925993   7.052   0.942   6.496 -0.2473 -0.2356 -0.0512
   28MOL    O2025994   7.056   1.060   6.531  0.0559  0.1959 -0.1698
   28MOL    H2125995   6.018   0.509   6.873  1.8411 -0.1899  0.4296
   28MOL    H2225996   5.944   0.643   6.782 -0.7394 -0.6062  1.5629
   28MOL    H2325997   6.233   0.635   6.898 -0.0599  1.4973  1.3988
   28MOL    H2425998   6.160   0.777   6.845  1.2004 -0.9476  0.9802
   28MOL    H2525999   6.233   0.515   6.711 -0.8875 -0.9516 -0.9642
   28MOL    H2626000   6.124   0.618   6.633  0.3416  0.7422 -0.8320
   28MOL    H2726001   6.406   0.694   6.732  2.9755  2.5802 -1.7812
   28MOL    H2826002   6.302   0.795   6.632 -2.5247 -0.8591 -1.4336
   28MOL    H2926003   6.312   0.623   6.451 -0.6303  1.1757  0.7579
   28MOL    H3026004   6.435   0.528   6.524 -0.2658  0.7831  0.9255
   28MOL    H3126005   6.585   0.721   6.521 -1.7795 -2.0560  2.2154
   28MOL    H3226006   6.448   0.813   6.461  1.0057  0.5640 -0.7606
   28MOL    H3326007   6.435   0.659   6.259 -1.9347  2.2557  2.4900
   28MOL    H3426008   6.566   0.581   6.302  1.7195 -0.0543 -1.2748
   28MOL    H3526009   6.682   0.845   6.288 -0.5978  0.4620  0.9634
   28MOL    H3626010   6.538   0.890   6.217 -1.6439 -1.6115  0.0342
   28MOL    H3726011   6.712   0.692   6.080 -0.9294 -0.5930 -0.5291
   28MOL    H3826012   6.560   0.711   6.036  0.6466 -0.7759  0.0656
   28MOL    H3926013   6.598   0.961   5.977 -2.5931 -1.7849  0.2467
   28MOL    H4026014   6.668   0.844   5.884  0.8594  0.1607  0.7835
   28MOL    H4126015   7.109   0.984   5.913  0.1838 -0.0874 -0.1396
   28MOL    H4226016   7.017   1.093   6.005  2.0036 -0.4811  0.8703
   28MOL    H4326017   7.200   0.937   6.111  0.3180 -1.7369 -2.9391
   28MOL    H4426018   7.085   0.815   6.087  5.3148 -0.3722 -1.1292
   28MOL    H4526019   6.920   0.916   6.250 -1.0150  3.3974  1.9501
   28MOL    H4626020   7.006   1.061   6.259  0.6759 -0.4447  3.3325
   28MOL    H4726021   7.200   0.897   6.346 -0.1260  0.4706  0.9658
   28MOL    H4826022   7.066   0.788   6.356  3.1737 -0.8434  0.5703
   28MOL    H4926023   5.879   0.667   7.001  0.0484  1.8067  1.6539
   28MOL    O5026024   7.007   0.841   6.571 -0.2455 -0.0786 -0.3546
   28MOL    C5126025   6.950   0.852   6.701 -0.6438 -0.2811  0.1436
   28MOL    C5226026   6.858   0.736   6.740  0.8300  0.3253  0.4805
   28MOL    C5326027   6.767   0.749   6.865 -0.0430 -0.3492 -0.6070
   28MOL    C5426028   6.720   0.610   6.912  0.0854  0.9384  0.3327
   28MOL    C5526029   6.585   0.616   6.990 -0.5069  0.0427 -0.2739
   28MOL    C5626030   6.597   0.714   7.102 -0.0952  0.6434 -0.0680
   28MOL    C5726031   6.459   0.734   7.174 -0.3098  0.0296  0.2598
   28MOL    C5826032   6.362   0.824   7.093  0.0010 -0.2938 -0.1732
   28MOL    C5926033   6.234   0.836   7.171  0.1171  0.7873 -0.4868
   28MOL    C6026034   6.129   0.923   7.104 -0.7729 -0.0085  0.1603
   28MOL    O6126035   6.024   0.921   7.201 -0.5942  0.4595 -0.2606
   28MOL    C6226036   5.942   1.023   7.207  0.2788  0.7143  0.2468
   28MOL    O6326037   5.946   1.109   7.123 -0.7894  0.7770 -0.1471
   28MOL    C6426038   5.833   1.028   7.315 -0.2641 -0.8957  0.2797
   28MOL    C6526039   5.696   1.004   7.253  0.2406 -0.2452 -0.2120
   28MOL    C6626040   5.693   0.865   7.183 -0.0386 -0.3735  0.2581
   28MOL    C6726041   5.557   0.841   7.115  0.3519 -0.3892 -0.0885
   28MOL    C6826042   5.572   0.712   7.032 -0.6969 -0.2738 -0.1851
   28MOL    O6926043   5.656   0.700   6.941 -0.3847  0.2558 -0.1074
   28MOL    H7026044   7.032   0.854   6.773  1.5276  4.3985 -2.2751
   28MOL    H7126045   6.901   0.949   6.699 -0.4204 -0.1745 -0.3095
   28MOL    H7226046   6.924   0.649   6.750 -1.1551 -1.4852 -1.4520
   28MOL    H7326047   6.789   0.721   6.657 -1.1625 -0.5423  2.2462
   28MOL    H7426048   6.829   0.784   6.948 -0.1242 -0.7227 -0.3891
   28MOL    H7526049   6.684   0.819   6.859 -0.1088 -0.1336  2.0499
   28MOL    H7626050   6.801   0.575   6.976 -0.2358  1.1593  0.8639
   28MOL    H7726051   6.711   0.550   6.822 -0.4459  2.4245 -0.6276
   28MOL    H7826052   6.546   0.519   7.022 -0.8533  1.2008  2.9783
   28MOL    H7926053   6.520   0.651   6.910  0.3477  1.0605 -0.5295
   28MOL    H8026054   6.633   0.813   7.074 -0.7320  0.6275 -0.9600
   28MOL    H8126055   6.672   0.678   7.172 -0.4792 -1.8929 -0.9274
   28MOL    H8226056   6.475   0.786   7.268 -1.1872  1.1650 -0.2027
   28MOL    H8326057   6.408   0.642   7.204 -1.8186  0.6520 -0.3355
   28MOL    H8426058   6.345   0.790   6.991 -2.5432  0.7102 -0.1090
   28MOL    H8526059   6.409   0.922   7.084 -1.5264  0.3109 -1.7614
   28MOL    H8626060   6.189   0.739   7.191 -0.5180  1.0961 -0.4063
   28MOL    H8726061   6.257   0.887   7.265 -0.8231  0.4097 -0.0419
   28MOL    H8826062   6.096   0.886   7.007  1.0447  1.0871 -0.8937
   28MOL    H8926063   6.153   1.028   7.090 -1.4378  0.5776  3.1704
   28MOL    H9026064   5.844   0.956   7.395  2.9226 -0.1186  0.5831
   28MOL    H9126065   5.841   1.120   7.372 -1.5159  0.2792 -1.3671
   28MOL    H9226066   5.669   1.079   7.178  0.0982 -1.6689 -1.6178
   28MOL    H9326067   5.619   1.002   7.331 -0.2358  2.0043 -0.5971
   28MOL    H9426068   5.718   0.791   7.260  1.8063  2.3954  2.4024
   28MOL    H9526069   5.772   0.857   7.108 -1.9867 -2.1816 -1.7183
   28MOL    H9626070   5.541   0.919   7.039  1.3819  0.7535  0.8488
   28MOL    H9726071   5.473   0.832   7.184 -0.2024  0.2429 -0.6619
   28MOL    O9826072   5.492   0.608   7.070  0.3327  0.5436  0.2455
   28MOL    C9926073   5.491   0.493   6.985 -0.0105 -0.2555  0.2849
   28MOL   C10026074   5.407   0.380   7.048 -0.1059 -0.5768 -0.4659
   28MOL   C10126075   5.276   0.421   7.120  0.0732 -0.3864  0.1804
   28MOL   C10226076   5.190   0.298   7.165 -0.5342 -0.4743 -0.9630
   28MOL   C10326077   5.048   0.343   7.216 -0.2803 -0.1309 -0.1890
   28MOL   C10426078   4.964   0.225   7.260 -0.4331 -0.1520 -0.6382
   28MOL   C10526079   4.820   0.267   7.306 -0.2940 -0.1239 -0.3170
   28MOL   C10626080   4.725   0.292   7.191 -0.1791  0.8728  0.6199
   28MOL   C10726081   4.576   0.302   7.243 -0.2350  0.1010 -0.3696
   28MOL   C10826082   4.482   0.357   7.127 -0.0568  0.2631 -0.9403
   28MOL   O10926083   4.522   0.486   7.090 -0.3206  0.1276 -0.2950
   28MOL   C11026084   4.447   0.550   6.995 -0.2507 -1.3915 -0.0843
   28MOL   O11126085   4.348   0.505   6.943  0.4279  0.1811 -0.5461
   28MOL   C11226086   4.507   0.688   6.955  0.5832 -0.3807 -0.3819
   28MOL   C11326087   4.552   0.772   7.069 -0.3693  0.2777  0.9834
   28MOL   C11426088   4.434   0.861   7.124 -0.1872 -0.0963  0.6743
   28MOL   C11526089   4.353   0.786   7.235 -1.1300  0.0552 -0.3521
   28MOL   C11626090   4.427   0.774   7.361 -0.0721 -0.0426 -0.8834
   28MOL   O11726091   4.420   0.865   7.446  0.2630  0.3839  0.2866
   28MOL   H11826092   5.448   0.532   6.893  0.2527  0.5856  0.5182
   28MOL   H11926093   5.591   0.452   6.970  0.3658 -0.0866  2.2273
   28MOL   H12026094   5.464   0.320   7.118 -0.0279 -0.0489 -0.0767
   28MOL   H12126095   5.379   0.317   6.964 -1.9333 -0.0758 -0.2530
   28MOL   H12226096   5.309   0.466   7.214 -1.7087  1.4191 -0.0037
   28MOL   H12326097   5.229   0.502   7.064 -1.0474  0.6206  2.4756
   28MOL   H12426098   5.243   0.242   7.241  0.4458  1.1000 -0.4621
   28MOL   H12526099   5.179   0.252   7.067  0.0719 -2.1237 -0.2735
   28MOL   H12626100   4.984   0.395   7.145 -0.8750  2.0867  1.9504
   28MOL   H12726101   5.074   0.403   7.303  0.7752  1.4429 -1.5617
   28MOL   H12826102   5.015   0.187   7.349 -1.6099 -3.4745 -1.3110
   28MOL   H12926103   4.969   0.138   7.194  2.4157  1.3534 -2.4768
   28MOL   H13026104   4.823   0.362   7.359 -1.0156 -0.4309  0.2826
   28MOL   H13126105   4.782   0.190   7.374 -1.0644  1.0799  0.6287
   28MOL   H13226106   4.744   0.211   7.120 -2.6154 -0.8453  1.8572
   28MOL   H13326107   4.756   0.385   7.143 -0.3821  0.6051 -0.0288
   28MOL   H13426108   4.540   0.204   7.275 -2.1121  1.1854  0.9282
   28MOL   H13526109   4.552   0.357   7.333 -1.5400 -2.7756  1.1124
   28MOL   H13626110   4.377   0.354   7.155  0.1448 -1.8277 -0.2729
   28MOL   H13726111   4.481   0.289   7.042  0.1892  0.6994 -1.2963
   28MOL   H13826112   4.593   0.673   6.890  0.5783  1.0296 -0.7319
   28MOL   H13926113   4.430   0.734   6.894 -1.5606 -1.7096  1.2369
   28MOL   H14026114   4.629   0.831   7.019  1.6612 -2.2931  0.9626
   28MOL   H14126115   4.610   0.719   7.145  0.3879 -1.0843 -0.5216
   28MOL   H14226116   4.365   0.894   7.046  0.3584  1.4825  0.8421
   28MOL   H14326117   4.482   0.953   7.156  1.2111 -0.7120  0.3504
   28MOL   H14426118   4.300   0.697   7.202 -1.6648  0.2114  0.0623
   28MOL   H14526119   4.267   0.842   7.273 -0.8674  2.2370 -2.8304
   28MOL   O14626120   4.482   0.651   7.382 -0.6682 -0.4575  0.1346
   28MOL   C14726121   4.556   0.624   7.502  0.5821  0.6936  0.7343
   28MOL   C14826122   4.688   0.706   7.517  0.2805 -0.5380  0.8502
   28MOL   C14926123   4.765   0.671   7.645 -0.8620  0.2448  0.7789
   28MOL   C15026124   4.905   0.730   7.662  0.0480 -0.7444  0.2427
   28MOL   C15126125   5.016   0.663   7.580  0.5810 -0.3983 -0.2215
   28MOL   C15226126   5.153   0.729   7.596 -0.2959  0.0387  0.3293
   28MOL   C15326127   5.260   0.673   7.501  0.5826 -0.6453 -0.2828
   28MOL   C15426128   5.388   0.759   7.480 -0.4031 -0.2017  0.4752
   28MOL   C15526129   5.453   0.784   7.615 -0.4673  0.1125 -0.1194
   28MOL   C15626130   5.588   0.859   7.611  0.4391 -0.4087  0.1209
   28MOL   O15726131   5.552   0.997   7.596  0.6055 -0.2711  0.3037
   28MOL   C15826132   5.645   1.105   7.606  0.3518  0.0395 -0.1954
   28MOL   O15926133   5.761   1.100   7.627  0.0264  0.3477  0.1640
   28MOL   C16026134   5.573   1.233   7.575  0.4264 -0.4691  0.6596
   28MOL   C16126135   5.658   1.328   7.488 -0.1781 -0.0222 -0.2480
   28MOL   C16226136   5.767   1.405   7.554  0.2685 -0.2364  0.3005
   28MOL   C16326137   5.881   1.448   7.456  0.2243  0.0463  0.2508
   28MOL   C16426138   6.017   1.399   7.489  0.7463  0.3808 -0.5706
   28MOL   O16526139   6.103   1.485   7.518 -0.1600  0.0266 -0.3960
   28MOL   H16626140   4.490   0.629   7.589 -1.0173 -0.2705 -0.4022
   28MOL   H16726141   4.588   0.520   7.490  0.5544  0.5328  1.9855
   28MOL   H16826142   4.667   0.813   7.518  1.4095 -0.3031  2.4811
   28MOL   H16926143   4.752   0.686   7.432 -0.8898 -0.2557 -0.1006
   28MOL   H17026144   4.699   0.714   7.721 -1.5010 -1.7528  1.3843
   28MOL   H17126145   4.764   0.565   7.668  1.0974  0.3311  1.4002
   28MOL   H17226146   4.921   0.728   0.005 -1.7989  0.4131  0.5625
   28MOL   H17326147   4.896   0.833   7.627  2.6569  0.4108  2.7768
   28MOL   H17426148   4.996   0.644   7.474 -1.8968 -0.7499  0.2845
   28MOL   H17526149   5.028   0.568   7.633  2.2627  0.5997  1.2349
   28MOL   H17626150   5.193   0.722   7.697  2.0934 -2.2670 -0.7268
   28MOL   H17726151   5.151   0.836   7.580  1.5387  0.0523  0.1128
   28MOL   H17826152   5.209   0.674   7.405 -2.1370  0.4616  1.1270
   28MOL   H17926153   5.294   0.572   7.525 -1.8146 -1.5788 -0.6421
   28MOL   H18026154   5.354   0.850   7.430  0.3794  0.0083  0.3279
   28MOL   H18126155   5.458   0.700   7.421 -1.3953 -2.7506  1.7559
   28MOL   H18226156   5.384   0.839   7.679  0.6884  1.4315  0.0287
   28MOL   H18326157   5.467   0.690   7.669  2.4910  0.8494  0.5013
   28MOL   H18426158   5.666   0.830   7.540  1.1518 -0.0446  0.7530
   28MOL   H18526159   5.645   0.852   7.703  0.8914 -4.1550 -0.3415
   28MOL   H18626160   5.478   1.223   7.523 -0.3311  0.6910  1.7726
   28MOL   H18726161   5.552   1.278   7.672 -1.2003  0.3271 -0.0420
   28MOL   H18826162   5.582   1.397   7.450 -0.2679 -0.1544 -0.3058
   28MOL   H18926163   5.706   1.290   7.398 -0.3432  2.9926 -1.6671
   28MOL   H19026164   5.809   1.345   7.634  0.1687  1.6129  1.7817
   28MOL   H19126165   5.726   1.497   7.597 -0.6135 -0.7574  0.5722
   28MOL   H19226166   5.889   1.556   7.459 -0.4746  0.0799  1.4034
   28MOL   H19326167   5.866   1.425   7.351 -2.1899  1.3835  0.2746
   28MOL   O19426168   6.023   1.268   7.493 -0.3066  0.2207  0.3263
   28MOL   C19526169   6.146   1.213   7.533  0.0535  0.2501 -0.4481
   28MOL   C19626170   6.125   1.063   7.549 -0.6257  0.3403 -0.0448
   28MOL   C19726171   6.061   1.017   7.685 -0.3418 -0.2733  0.7191
   28MOL   C19826172   6.157   0.952   0.020  0.0448 -0.0398  0.2851
   28MOL   C19926173   6.098   0.940   0.157  0.1338  0.0741 -0.7234
   28MOL   C20026174   6.200   0.884   0.259 -0.5690  0.4738 -0.3694
   28MOL   C20126175   6.157   0.872   0.410  0.3613 -0.4347 -0.0140
   28MOL   C20226176   6.065   0.750   0.427  0.1581 -0.1035 -0.4914
   28MOL   C20326177   6.055   0.701   0.564 -0.5061 -0.1115  0.5354
   28MOL   C20426178   5.945   0.604   0.604  0.5089 -0.6398 -0.1233
   28MOL   O20526179   5.960   0.478   0.537 -0.8367 -0.1937 -0.3574
   28MOL   C20626180   5.909   0.368   0.577 -0.2312  0.0677  0.4200
   28MOL   O20726181   5.856   0.352   0.688 -0.1558 -0.6350  0.7994
   28MOL   C20826182   5.934   0.254   0.477  0.0140  0.2076  0.4186
   28MOL   C20926183   6.076   0.197   0.476 -0.4305  0.0226 -0.2461
   28MOL   C21026184   6.108   0.105   0.358 -0.3652 -0.0761  0.1215
   28MOL   C21126185   6.252   0.053   0.357  0.2108 -0.5248  0.1017
   28MOL   C21226186   6.337   0.115   0.245 -0.3854  0.0942 -0.3614
   28MOL   O21326187   6.294   0.208   0.171  0.1464  0.0649 -0.1480
   28MOL   H21426188   6.220   1.233   7.456  0.2791  1.5202  0.0956
   28MOL   H21526189   6.192   1.252   7.623  2.1501 -1.1018 -0.9040
   28MOL   H21626190   6.220   1.012   7.540 -1.7183 -1.9358  0.8302
   28MOL   H21726191   6.052   1.035   7.472 -1.3559  0.2851  0.6533
   28MOL   H21826192   5.992   1.086   7.734 -2.2529 -0.9702 -0.8985
   28MOL   H21926193   5.995   0.931   7.670 -0.3689 -0.1650  0.2142
   28MOL   H22026194   6.250   1.007   0.028  1.9128 -2.7049 -1.9309
   28MOL   H22126195   6.183   0.850   7.755  1.5993 -0.6933  3.6745
   28MOL   H22226196   6.008   0.880   0.156 -0.6770  1.2323  1.0087
   28MOL   H22326197   6.069   1.041   0.186  0.4900 -0.1722  0.5130
   28MOL   H22426198   6.282   0.955   0.245 -0.0861 -0.5860 -3.3202
   28MOL   H22526199   6.243   0.794   0.215  0.3115  1.0559 -0.7422
   28MOL   H22626200   6.125   0.962   0.463  0.1795 -1.0904  1.0160
   28MOL   H22726201   6.241   0.865   0.480  1.3642  1.3990 -1.0066
   28MOL   H22826202   6.102   0.672   0.360  0.4023 -0.5849  0.1961
   28MOL   H22926203   5.969   0.791   0.396 -0.2049  0.2490  1.0579
   28MOL   H23026204   6.151   0.654   0.585  0.7392  1.0152 -2.3534
   28MOL   H23126205   6.046   0.786   0.631 -1.4537  0.3964 -0.2182
   28MOL   H23226206   5.843   0.639   0.589 -0.3891 -2.0768  2.2588
   28MOL   H23326207   5.950   0.582   0.711 -1.3775  0.3329  0.1774
   28MOL   H23426208   5.865   0.171   0.494 -0.1325  0.2168 -0.1246
   28MOL   H23526209   5.913   0.299   0.380  0.6470 -0.9240 -0.2390
   28MOL   H23626210   6.076   0.146   0.572  0.1397  0.1835 -0.1620
   28MOL   H23726211   6.157   0.269   0.486 -1.6487  1.3290  0.5002
   28MOL   H23826212   6.084   0.166   0.270  1.8775  0.9422  0.1793
   28MOL   H23926213   6.035   0.024   0.350 -0.1107 -0.7257  3.4990
   28MOL   H24026214   6.247   7.710   0.338 -0.2027 -1.0609  3.0284
   28MOL   H24126215   6.295   0.066   0.456 -2.2811  0.7565  1.0633
   28MOL   O24226216   6.468   0.077   0.234  0.5278  0.0448 -0.5349
   28MOL   C24326217   6.547   0.115   0.124  0.4307  0.4432  0.1684
   28MOL   C24426218   6.660   0.204   0.185 -0.1381  0.2784  0.7136
   28MOL   C24526219   6.733   0.271   0.070 -0.2550 -0.4158  0.5381
   28MOL   C24626220   6.844   0.373   0.111  0.3630 -0.9643  0.0795
   28MOL   C24726221   6.925   0.428   7.755 -0.5588  0.8030  0.8474
   28MOL   C24826222   6.856   0.513   7.651 -0.1632  0.2889  0.4695
   28MOL   C24926223   6.954   0.536   7.530 -0.2715  0.0050 -0.1209
   28MOL   C25026224   6.867   0.590   7.415 -0.4299 -0.8134 -0.1287
   28MOL   C25126225   6.948   0.641   7.292  0.1696  0.2201  0.0941
   28MOL   C25226226   6.994   0.536   7.186 -0.1251  0.0909 -0.0761
   28MOL   O25326227   7.079   0.590   7.090  0.2161 -0.1032 -0.3338
   28MOL   C25426228   7.123   0.533   6.978  0.2487 -0.3794 -0.1879
   28MOL   O25526229   7.081   0.427   6.930 -0.1081  0.9455 -0.8206
   28MOL   C25626230   7.238   0.614   6.918 -0.1569 -0.1699 -1.0238
   28MOL   C25726231   7.302   0.557   6.787  0.7190 -0.1540  0.2200
   28MOL   C25826232   7.344   0.660   6.683 -0.8548  0.0046  0.0308
   28MOL   C25926233   7.404   0.608   6.547 -0.0957 -0.7296 -0.5796
   28MOL   C26026234   7.413   0.721   6.441 -0.5698 -0.4405 -0.0573
   28MOL   O26126235   7.428   0.839   6.477  0.4603  0.1691  0.0648
   28MOL   H26226236   6.594   0.025   0.085 -1.5789  0.0919 -1.5183
   28MOL   H26326237   6.496   0.168   0.043 -2.1548 -1.0313  0.7785
   28MOL   H26426238   6.706   0.137   0.258 -0.6375  1.0243  1.7218
   28MOL   H26526239   6.610   0.281   0.244 -2.9310 -1.4447  0.7468
   28MOL   H26626240   6.781   0.198   0.005 -2.0565 -0.9355 -0.2386
   28MOL   H26726241   6.662   0.318   0.002  1.6159  1.4095 -0.2298
   28MOL   H26826242   6.914   0.330   0.183 -3.2438 -1.9485  3.1999
   28MOL   H26926243   6.794   0.450   0.169  3.0032  1.2289 -0.4605
   28MOL   H27026244   6.973   0.344   7.705 -0.9230  0.5924  0.8512
   28MOL   H27126245   7.009   0.492   0.015  0.9791  0.5515 -3.4314
   28MOL   H27226246   6.828   0.608   7.697 -2.1793 -0.0820  0.0088
   28MOL   H27326247   6.763   0.469   7.617 -0.3568 -0.2974  1.7371
   28MOL   H27426248   7.002   0.443   7.502  0.5508  0.2228  0.5419
   28MOL   H27526249   7.029   0.610   7.557 -1.0646  0.7256  0.1360
   28MOL   H27626250   6.808   0.673   7.453  2.4869  0.9860  0.6527
   28MOL   H27726251   6.801   0.518   7.366 -1.5877  1.2103 -1.6529
   28MOL   H27826252   6.887   0.703   7.227  0.4942 -1.0376 -1.4396
   28MOL   H27926253   7.017   0.711   7.340 -1.3216  1.6347  0.2226
   28MOL   H28026254   6.906   0.484   7.148 -0.5235  2.4146 -2.4443
   28MOL   H28126255   7.057   0.474   7.250 -0.5999  1.6274  1.9253
   28MOL   H28226256   7.188   0.711   6.905 -0.1463  0.6152  3.6462
   28MOL   H28326257   7.310   0.640   6.996 -3.7374  0.3141  2.3207
   28MOL   H28426258   7.250   0.478   6.733  1.7074 -0.9467  0.4210
   28MOL   H28526259   7.393   0.511   6.824  2.2427  1.5258 -1.3502
   28MOL   H28626260   7.415   0.723   6.737 -1.9031 -0.2011  1.6980
   28MOL   H28726261   7.249   0.703   6.650 -0.1987  0.6794 -0.9979
   28MOL   H28826262   7.327   0.539   6.512 -0.3578 -0.0114 -1.4380
   28MOL   H28926263   7.500   0.559   6.558  0.8632  1.3690  0.7682
   28MOL   O29026264   7.408   0.671   6.316 -0.1638  0.8195  0.5365
   28MOL   C29126265   7.430   0.750   6.196 -0.4050 -0.5025 -0.3955
   28MOL   C29226266   7.566   0.718   6.145  0.2590  0.9510  0.2333
   28MOL   C29326267   7.679   0.757   6.242  0.2959  0.2955  0.3993
   28MOL   C29426268   0.048   0.781   6.167 -0.4736 -0.5757 -0.0111
   28MOL   C29526269   0.163   0.756   6.269  0.3018  0.7239 -0.4965
   28MOL   C29626270   0.185   0.871   6.369 -0.1727 -0.1616  0.1002
   28MOL   C29726271   0.288   0.854   6.484 -0.0104  0.1184  0.7105
   28MOL   C29826272   0.315   0.967   6.579 -0.0050 -0.7368 -0.6768
   28MOL   C29926273   0.426   0.952   6.693  0.2261 -0.0771  0.2604
   28MOL   C30026274   0.423   1.061   6.800  0.3014  0.8988  0.4822
   28MOL   O30126275   0.305   1.033   6.881  0.3645  0.0451 -0.5776
   28MOL   C30226276   0.263   1.125   6.955 -0.1021  0.1132  0.0476
   28MOL   O30326277   0.297   1.243   6.953 -0.3692 -0.5820  0.1811
   28MOL   C30426278   0.146   1.081   7.038 -0.3374 -0.1210 -0.3836
   28MOL   C30526279   0.171   0.989   7.159 -0.2864  0.1051 -0.1853
   28MOL   C30626280   0.264   1.047   7.278  0.5218  0.0495  0.3691
   28MOL   C30726281   0.296   0.929   7.376 -0.2949 -0.4377  0.0660
   28MOL   C30826282   0.419   0.850   7.333  0.3693  0.1343 -0.1854
   28MOL   O30926283   0.529   0.868   7.395 -0.2693 -0.0569  0.6558
   28MOL   H31026284   7.361   0.713   6.121 -0.0457 -0.9965 -0.4806
   28MOL   H31126285   7.416   0.858   6.207 -0.9438 -0.4834 -1.2824
   28MOL   H31226286   7.575   0.769   6.049 -0.2329 -0.8772 -0.8136
   28MOL   H31326287   7.579   0.612   6.122  4.0801  0.8672  2.2901
   28MOL   H31426288   7.648   0.852   6.287  0.6092  1.1656 -1.1659
   28MOL   H31526289   7.692   0.677   6.314  1.5681  0.1805  0.0524
   28MOL   H31626290   0.053   0.874   6.112 -0.8402 -0.1240  0.7080
   28MOL   H31726291   0.052   0.709   6.085  1.8510 -0.4815 -0.0125
   28MOL   H31826292   0.267   0.744   6.238  0.5177  0.4007  0.3240
   28MOL   H31926293   0.154   0.663   6.326  1.1269  2.0912  1.9371
   28MOL   H32026294   0.091   0.892   6.421 -0.3439 -0.5499 -0.0481
   28MOL   H32126295   0.217   0.965   6.325  1.3704 -0.8744 -0.3329
   28MOL   H32226296   0.383   0.817   6.446  0.3210  0.7454  0.9192
   28MOL   H32326297   0.255   0.766   6.540 -0.0155 -1.1012 -1.1652
   28MOL   H32426298   0.220   0.993   6.626 -0.7827 -1.3211 -1.9052
   28MOL   H32526299   0.347   1.052   6.519 -2.3746  0.3268 -0.5075
   28MOL   H32626300   0.413   0.856   6.743 -0.5935 -0.1140 -0.0067
   28MOL   H32726301   0.528   0.940   6.658  1.0752 -0.2127  2.6882
   28MOL   H32826302   0.411   1.157   6.749 -2.2899  0.4050  0.1066
   28MOL   H32926303   0.513   1.070   6.861  0.1435  0.3696  0.8015
   28MOL   H33026304   0.093   1.167   7.077  0.3382  0.3031 -0.4000
   28MOL   H33126305   0.072   1.029   6.976  2.3142 -4.1944 -0.3807
   28MOL   H33226306   0.223   0.913   7.101  1.0063  1.8106 -1.3262
   28MOL   H33326307   0.074   0.951   7.191  0.4991 -1.3315  0.5558
   28MOL   H33426308   0.216   1.114   7.349  2.5177 -0.1893  1.9710
   28MOL   H33526309   0.355   1.093   7.238  0.1818  0.3453 -0.0688
   28MOL   H33626310   0.217   0.856   7.393 -0.1577 -0.1199  2.2557
   28MOL   H33726311   0.318   0.971   7.475  2.4175  1.4149 -1.2664
   28MOL   O33826312   0.402   0.758   7.237  0.3023 -0.4627  0.2051
   28MOL   C33926313   0.509   0.676   7.202 -0.5427 -0.6194  0.1034
   28MOL   C34026314   0.564   0.709   7.063 -0.5090 -0.7631  0.3087
   28MOL   C34126315   0.669   0.820   7.063  0.2991  0.3150 -0.1967
   28MOL   C34226316   0.734   0.855   6.928  0.6915  0.2988 -0.3678
   28MOL   C34326317   0.804   0.732   6.869 -0.2754  0.1838 -0.1065
   28MOL   C34426318   0.870   0.777   6.739  0.3439  0.5485  0.7266
   28MOL   C34526319   0.932   0.666   6.646  0.1076  0.2563 -0.6058
   28MOL   C34626320   1.013   0.557   6.729 -0.4664  0.2914 -0.6400
   28MOL   C34726321   1.084   0.467   6.629 -0.3976  0.2260 -0.3835
   28MOL   C34826322   1.206   0.401   6.700  0.1760 -0.4991  0.1030
   28MOL   O34926323   1.168   0.329   6.818  0.6433  0.6420  0.1676
   28MOL   C35026324   1.199   0.203   6.816 -0.1821 -0.0684  1.3005
   28MOL   O35126325   1.243   0.134   6.723 -0.3687 -0.0717  0.5939
   28MOL   C35226326   1.163   0.146   6.946 -0.3830 -0.1427 -0.3214
   28MOL   C35326327   1.104   0.001   6.930  0.1761 -0.2205  0.6531
   28MOL   C35426328   0.965   7.760   6.870 -0.1343 -0.7178  0.1206
   28MOL   C35526329   0.908   7.618   6.837 -0.1999 -0.2225 -0.1131
   28MOL   C35626330   0.973   7.538   6.731 -0.4471  0.0314 -0.7012
   28MOL   O35726331   1.039   7.439   6.756  0.3745  0.1500  0.6411
   28MOL   H35826332   0.591   0.671   7.274  0.4807  1.2524 -0.9135
   28MOL   H35926333   0.479   0.572   7.185 -0.5247 -0.2197 -2.5632
   28MOL   H36026334   0.490   0.723   6.984  1.2141  0.1231 -1.1560
   28MOL   H36126335   0.604   0.615   7.024 -1.6207 -0.0720 -2.6565
   28MOL   H36226336   0.623   0.917   7.082 -0.8038 -0.2001 -0.2131
   28MOL   H36326337   0.739   0.811   7.146  0.0355 -0.4837 -0.0601
   28MOL   H36426338   0.803   0.936   6.951  0.2711  0.6461 -0.3282
   28MOL   H36526339   0.657   0.892   6.861  0.1105 -0.9181 -0.3914
   28MOL   H36626340   0.746   0.643   6.845  1.8163 -1.5891  1.1830
   28MOL   H36726341   0.880   0.693   6.937  1.8978  3.0384 -0.8053
   28MOL   H36826342   0.943   0.855   6.763  1.8033 -0.9744  1.3577
   28MOL   H36926343   0.800   0.831   6.676 -2.9222  0.5567  4.1883
   28MOL   H37026344   1.000   0.719   6.580  2.3724 -2.4085 -0.5440
   28MOL   H37126345   0.858   0.621   6.580  1.2915 -2.2544 -0.3167
   28MOL   H37226346   0.945   0.492   6.784  1.3994  0.3978  1.8630
   28MOL   H37326347   1.078   0.598   6.806  0.4948 -1.1160 -0.6966
   28MOL   H37426348   1.019   0.387   6.592 -1.3656 -0.4875  2.6808
   28MOL   H37526349   1.109   0.523   6.539  0.3537 -0.3628 -0.5455
   28MOL   H37626350   1.278   0.475   6.736  1.4720 -1.6792 -0.0191
   28MOL   H37726351   1.256   0.340   6.624  0.6761 -0.1744  0.1681
   28MOL   H37826352   1.263   0.140   6.988  0.3761  3.8501 -1.4025
   28MOL   H37926353   1.099   0.210   7.006  0.1676  1.3446 -1.3141
   28MOL   H38026354   1.107   7.721   7.030 -1.9328 -0.3744  0.6527
   28MOL   H38126355   1.169   7.703   6.869  0.3115  0.4197  0.1370
   28MOL   H38226356   0.966   0.049   6.775 -5.2581  0.8369  0.7604
   28MOL   H38326357   0.894   0.045   6.936 -0.6700 -0.2445 -0.7980
   28MOL   H38426358   0.807   7.634   6.797 -0.4808 -1.6701  0.0031
   28MOL   H38526359   0.913   7.551   6.922 -1.8850 -0.6754 -0.3461
   28MOL   O38626360   0.952   7.595   6.609  0.1448 -0.4992 -0.0912
   28MOL   C38726361   1.012   7.539   6.494  0.2376  0.3386 -0.2425
   28MOL   C38826362   1.010   7.647   6.384  0.7858 -0.1080  0.0723
   28MOL   C38926363   1.143   7.724   6.376  0.4360 -0.7760  0.5538
   28MOL   C39026364   1.154   0.092   6.299  0.4821  0.0269 -0.1537
   28MOL   C39126365   1.048   0.200   6.340 -0.5142  0.1081  0.2547
   28MOL   C39226366   1.069   0.337   6.275  0.4698  0.1765 -0.0516
   28MOL   C39326367   1.024   0.341   6.133  0.0734 -0.1759  0.7911
   28MOL   C39426368   1.021   0.482   6.075  0.1629 -0.1653 -0.0064
   28MOL   C39526369   0.963   0.469   5.935  0.4157  0.5509 -0.2721
   28MOL   C39626370   0.948   0.614   5.883 -0.1967 -0.0250 -0.5774
   28MOL   O39726371   0.919   0.602   5.742  0.3275 -0.1507  0.8066
   28MOL   C39826372   0.833   0.676   5.680  0.6608  0.3103 -0.1234
   28MOL   O39926373   0.762   0.766   5.721  0.1052 -0.0732  0.0321
   28MOL   C40026374   0.829   0.639   5.535 -0.1883 -0.2079 -0.1356
   28MOL   C40126375   0.878   0.759   5.451  0.8861 -0.4171 -0.1562
   28MOL   C40226376   0.821   0.741   5.303  0.7695 -0.6919 -0.1788
   28MOL   C40326377   0.861   0.621   5.222  0.5741 -0.5212 -0.2752
   28MOL   C40426378   0.782   0.485   5.243 -0.1634  0.3716 -0.1949
   28MOL   O40526379   0.690   0.472   5.325 -0.0546  0.1984  0.5239
   28MOL   H40626380   1.114   7.507   6.513  0.6006  0.6852 -1.5750
   28MOL   H40726381   0.950   7.451   6.476  0.1561  0.3487 -0.0088
   28MOL   H40826382   0.918   7.705   6.384 -0.5838 -2.2283 -1.2641
   28MOL   H40926383   0.997   7.589   6.293 -2.3182  1.5486 -0.6095
   28MOL   H41026384   1.188   7.756   6.470 -0.9443  0.6292  0.7533
   28MOL   H41126385   1.216   7.652   6.338 -0.4178 -1.8641  0.9371
   28MOL   H41226386   1.139   0.070   6.194  0.2325 -3.3590  0.5130
   28MOL   H41326387   1.254   0.132   6.315  0.4440 -0.5580  1.7672
   28MOL   H41426388   1.059   0.202   6.448  4.2015 -1.3078 -0.0787
   28MOL   H41526389   0.946   0.166   6.322 -0.9920  2.6816 -2.0910
   28MOL   H41626390   1.169   0.379   6.274  0.4793  0.1393 -0.9924
   28MOL   H41726391   1.004   0.404   6.332  1.9706 -0.7233  2.8188
   28MOL   H41826392   0.924   0.299   6.136  0.1297 -0.2225  3.1658
   28MOL   H41926393   1.092   0.287   6.067 -0.9588  0.1723 -0.5632
   28MOL   H42026394   1.117   0.533   6.070 -0.0556  0.2014 -0.4990
   28MOL   H42126395   0.965   0.546   6.143  2.0202 -0.3578  1.7515
   28MOL   H42226396   1.018   0.404   5.867  0.4723  0.7665 -0.4326
   28MOL   H42326397   0.865   0.421   5.929  1.0870 -0.6974 -1.4629
   28MOL   H42426398   1.037   0.676   5.894  0.6644 -1.1414 -1.2376
   28MOL   H42526399   0.866   0.672   5.926  1.0743  2.5957 -1.5910
   28MOL   H42626400   0.891   0.550   5.520  0.7369  0.3731  0.2060
   28MOL   H42726401   0.730   0.602   5.508 -0.1865 -0.4689  0.2048
   28MOL   H42826402   0.985   0.779   5.456  1.2912 -1.7807 -2.6628
   28MOL   H42926403   0.820   0.847   5.480 -1.3436 -2.1967  0.9163
   28MOL   H43026404   0.836   0.826   5.236 -1.4770 -0.4760 -0.4532
   28MOL   H43126405   0.713   0.743   5.314  0.7419 -0.7119 -0.4541
   28MOL   H43226406   0.969   0.610   5.231  1.4000  5.5639 -0.4152
   28MOL   H43326407   0.840   0.643   5.117  0.3780  0.7171  0.0105
   28MOL   O43426408   0.814   0.380   5.161 -0.4854 -0.5334 -0.5837
   28MOL   C43526409   0.736   0.272   5.142 -0.0010  0.0820  0.3797
   28MOL   C43626410   0.808   0.158   5.063  0.2692 -0.1443 -0.5826
   28MOL   C43726411   0.918   0.108   5.160 -0.0758 -0.2026 -0.2604
   28MOL   C43826412   0.998   7.751   5.106  0.2643 -0.0677 -1.3791
   28MOL   C43926413   1.073   7.684   5.224 -0.8150  1.1436  0.7830
   28MOL   C44026414   1.163   7.558   5.181  0.6921 -0.3998 -0.1514
   28MOL   C44126415   1.255   7.519   5.299 -0.2649 -0.4031  0.2315
   28MOL   C44226416   1.381   7.437   5.258 -0.2124  0.1311  0.1266
   28MOL   C44326417   1.482   7.496   5.160 -0.3001  0.4732  1.1691
   28MOL   C44426418   1.598   7.398   5.142  0.0204  0.1640 -0.3970
   28MOL   O44526419   1.701   7.480   5.081  0.1551  0.3592 -0.2365
   28MOL   C44626420   1.820   7.413   5.052  0.4868  0.2237 -0.2236
   28MOL   O44726421   1.839   7.292   5.074  0.3826  0.0189 -0.3935
   28MOL   C44826422   1.928   7.512   5.008  0.3781  0.9765 -0.7023
   28MOL   C44926423   2.075   7.467   5.037 -0.0078 -0.1764  0.0460
   28MOL   C45026424   2.177   7.573   4.995  0.6873 -0.2639  0.4945
   28MOL   C45126425   2.331   7.541   4.983 -0.6215 -0.0998  0.2619
   28MOL   C45226426   2.411   7.648   4.921 -0.5841 -0.2642  0.6650
   28MOL   O45326427   2.483   7.625   4.824  0.1345 -0.0367 -0.1339
   28MOL   H45426428   0.704   0.238   5.241  0.5994 -0.2661  0.4537
   28MOL   H45526429   0.652   0.302   5.080  0.9479 -0.1817 -1.0626
   28MOL   H45626430   0.864   0.194   4.976 -0.1555 -0.9207 -1.1859
   28MOL   H45726431   0.740   0.076   5.039  2.1704 -2.2763  1.0930
   28MOL   H45826432   0.990   0.188   5.175 -1.4154  0.6237  1.9376
   28MOL   H45926433   0.867   0.071   5.249  1.4127 -2.1007 -0.1751
   28MOL   H46026434   1.071   0.019   5.032  1.8995  1.3808  0.8035
   28MOL   H46126435   0.937   7.679   5.052  2.1515 -1.7483 -1.3268
   28MOL   H46226436   1.011   7.653   5.308  0.7227 -1.4901  1.0010
   28MOL   H46326437   1.138   7.761   5.267  3.9288 -2.5920  0.7087
   28MOL   H46426438   1.231   7.600   5.107 -1.3561 -0.0801 -1.9087
   28MOL   H46526439   1.119   7.474   5.127  3.0053 -1.7827  0.0338
   28MOL   H46626440   1.192   7.469   5.373 -0.8888 -0.2446 -0.1838
   28MOL   H46726441   1.291   7.610   5.348 -1.2797  0.7069 -1.0564
   28MOL   H46826442   1.342   7.345   5.215 -1.9558  1.0361 -0.2791
   28MOL   H46926443   1.422   7.397   5.351 -2.7428 -0.4261  1.0484
   28MOL   H47026444   1.446   7.537   5.066  1.5793  1.6189  0.9182
   28MOL   H47126445   1.517   7.589   5.205  0.4974  1.2591 -1.0526
   28MOL   H47226446   1.569   7.307   5.091  0.1039  0.2436 -0.5874
   28MOL   H47326447   1.644   7.384   5.240 -2.6401 -0.0318  0.8809
   28MOL   H47426448   1.914   7.528   4.901 -1.2658 -1.3640 -0.8666
   28MOL   H47526449   1.920   7.608   5.059  1.1981 -0.7114  2.7669
   28MOL   H47626450   2.082   7.372   4.984 -0.6661 -2.0023  3.0857
   28MOL   H47726451   2.084   7.445   5.143 -0.1944  0.3787  0.1809
   28MOL   H47826452   2.156   7.664   5.052 -1.6653 -0.1795 -0.4732
   28MOL   H47926453   2.160   7.604   4.892 -1.6515 -0.2386  0.8642
   28MOL   H48026454   2.337   7.445   4.931 -1.9768 -0.8265  1.4153
   28MOL   H48126455   2.379   7.539   5.081  0.0412  0.9169 -0.0306
   28MOL   O48226456   2.404   0.005   4.984 -0.1448  0.5408  0.1110
   28MOL   C48326457   2.477   0.116   4.930 -0.2566 -0.2580 -0.2083
   28MOL   C48426458   2.555   0.189   5.038 -0.6360 -0.0790  0.6067
   28MOL   C48526459   2.654   0.286   4.976  0.3591 -0.2363  0.1193
   28MOL   C48626460   2.745   0.353   5.088  0.3862 -0.0298 -0.3768
   28MOL   C48726461   2.796   0.495   5.049 -0.2679 -0.2064 -0.2656
   28MOL   C48826462   2.894   0.551   5.150  0.3124  0.6068 -0.4630
   28MOL   C48926463   2.934   0.692   5.117  0.1040 -0.2352 -0.0025
   28MOL   C49026464   3.020   0.755   5.224  0.5626  0.3173 -0.7335
   28MOL   C49126465   3.074   0.890   5.182  0.3186  0.2612  0.3794
   28MOL   C49226466   3.191   0.940   5.273  0.0238 -0.4028  0.2460
   28MOL   O49326467   3.140   0.973   5.393 -0.0236  0.9193  0.0568
   28MOL   C49426468   3.149   0.888   5.500  0.3212 -0.2593 -0.4350
   28MOL   O49526469   3.224   0.791   5.501  0.0216  0.0010  0.3824
   28MOL   C49626470   3.056   0.931   5.612  0.7090  0.1656  0.2214
   28MOL   C49726471   3.059   1.078   5.661  0.2410 -0.1143 -0.3177
   28MOL   C49826472   3.193   1.133   5.706 -1.0528 -0.9865 -0.0095
   28MOL   C49926473   3.198   1.286   5.714 -0.1481  0.7052 -0.4551
   28MOL   C50026474   3.120   1.356   5.831  0.8284  0.0455  0.0616
   28MOL   O50126475   3.176   1.424   5.918  0.0455  0.0557  0.1551
   28MOL   H50226476   2.541   0.075   4.853 -0.6850 -2.2944  0.4739
   28MOL   H50326477   2.402   0.186   4.891  2.4539  1.7185 -2.0227
   28MOL   H50426478   2.605   0.107   5.090 -0.6599 -1.1593 -1.0154
   28MOL   H50526479   2.472   0.218   5.102  0.0323  0.6692  1.1324
   28MOL   H50626480   2.704   0.235   4.894 -0.5659 -1.3622  0.2386
   28MOL   H50726481   2.588   0.358   4.928 -0.3474  0.4045  1.9960
   28MOL   H50826482   2.827   0.286   5.110 -0.1568 -0.9651 -1.1584
   28MOL   H50926483   2.686   0.374   5.178  2.7494  0.1847  1.1480
   28MOL   H51026484   2.709   0.561   5.055 -0.5487 -0.5722 -0.2739
   28MOL   H51126485   2.838   0.482   4.949  0.0564  1.4691 -0.3537
   28MOL   H51226486   2.981   0.486   5.146 -1.6253 -2.1816  0.5164
   28MOL   H51326487   2.866   0.540   5.255  0.0415 -1.1740 -0.7144
   28MOL   H51426488   2.847   0.758   5.116  0.0591 -0.2969 -0.0956
   28MOL   H51526489   2.988   0.706   5.023 -1.2077 -0.4087 -0.8019
   28MOL   H51626490   3.103   0.694   5.258  0.3595  0.4291 -0.0403
   28MOL   H51726491   2.956   0.781   5.308 -1.5733 -3.5063 -1.0674
   28MOL   H51826492   3.122   0.893   5.084 -2.2281  2.2329 -0.8919
   28MOL   H51926493   2.998   0.967   5.170  0.1032  0.1293  0.9016
   28MOL   H52026494   3.230   1.029   5.223 -0.9575 -0.6566 -1.0182
   28MOL   H52126495   3.275   0.872   5.270  0.9552  0.6543  1.9945
   28MOL   H52226496   2.955   0.902   5.585  1.4040 -2.3538  0.2520
   28MOL   H52326497   3.069   0.870   5.702 -0.3245 -1.3995 -0.6801
   28MOL   H52426498   2.990   1.088   5.745  1.1601  0.0174  0.4430
   28MOL   H52526499   3.008   1.144   5.591  0.3259  1.6574  1.2471
   28MOL   H52626500   3.269   1.092   5.639  0.3280  1.7189 -0.2066
   28MOL   H52726501   3.214   1.097   5.807 -2.6577 -1.1962  0.2495
   28MOL   H52826502   3.148   1.326   5.625 -1.6402  1.7690  0.8313
   28MOL   H52926503   3.302   1.318   5.710  1.1477 -2.9324  2.1245
   28MOL   O53026504   2.991   1.338   5.821  0.6155  0.7183 -0.0818
   28MOL   C53126505   2.899   1.383   5.921 -0.0669  0.6039 -0.1393
   28MOL   C53226506   2.870   1.537   5.902 -0.1434  0.0761 -0.2808
   28MOL   C53326507   2.837   1.567   5.756  0.0709 -0.3499 -0.5964
   28MOL   C53426508   2.698   1.524   5.715 -0.4942  0.8004  0.6435
   28MOL   C53526509   2.678   1.539   5.561 -0.0646  0.2978 -0.4227
   28MOL   C53626510   2.535   1.521   5.517  0.6585  0.3251 -0.0450
   28MOL   C53726511   2.476   1.666   5.522 -0.5931  0.2621 -0.2848
   28MOL   C53826512   2.328   1.665   5.461 -0.0899  0.1650  0.0174
   28MOL   C53926513   2.231   1.610   5.566 -0.1375  0.0458  0.2589
   28MOL   C54026514   2.088   1.649   5.543 -0.0403  0.5498  0.5416
   28MOL   O54126515   1.993   1.609   5.641 -0.0231 -0.3693 -0.4526
   28MOL   C54226516   1.923   1.500   5.618 -0.3788  0.2475  0.0483
   28MOL   O54326517   1.943   1.422   5.529  0.9909  0.0318 -0.0699
   28MOL   C54426518   1.800   1.484   5.709 -0.0635  0.6137  0.2162
   28MOL   C54526519   1.708   1.608   5.683  0.1759  0.3024 -0.1835
   28MOL   C54626520   1.635   1.610   5.550 -0.2325  0.2366 -0.6140
   28MOL   C54726521   1.568   1.743   5.518  0.1074 -0.1812 -0.4965
   28MOL   C54826522   1.641   1.871   5.563 -0.1475  0.6147  0.3451
   28MOL   O54926523   1.634   1.918   5.684  0.2466  0.0254  0.1230
   28MOL   H55026524   2.815   1.318   5.893 -0.7517  1.8626 -1.0670
   28MOL   H55126525   2.912   1.348   6.023 -1.4585  0.0870 -0.1164
   28MOL   H55226526   2.951   1.598   5.940  0.0481  1.0316 -2.1569
   28MOL   H55326527   2.784   1.557   5.966  0.8691  0.6868  0.8978
   28MOL   H55426528   2.837   1.675   5.749 -0.5886 -0.0598  2.8790
   28MOL   H55526529   2.916   1.545   5.685 -0.3598  1.0844 -1.5380
   28MOL   H55626530   2.627   1.578   5.778  1.9395  0.1490  4.0772
   28MOL   H55726531   2.693   1.416   5.730  0.8873  0.9194  2.1597
   28MOL   H55826532   2.734   1.456   5.517 -0.2711 -0.4861  0.7719
   28MOL   H55926533   2.724   1.631   5.524  0.4726 -0.5011 -1.7923
   28MOL   H56026534   2.489   1.447   5.583  0.0398 -0.0799 -0.9120
   28MOL   H56126535   2.518   1.482   5.416 -2.6748 -1.3599  1.0852
   28MOL   H56226536   2.526   1.730   5.449 -1.2360 -0.5509 -1.4635
   28MOL   H56326537   2.481   1.697   5.627  0.2172  0.4053 -0.3635
   28MOL   H56426538   2.317   1.626   5.360 -0.9270  3.0427 -1.0328
   28MOL   H56526539   2.298   1.768   5.444 -0.8208 -0.2043 -1.0113
   28MOL   H56626540   2.249   1.502   5.571 -1.4334 -0.1956 -0.0560
   28MOL   H56726541   2.252   1.643   5.667  0.8419 -2.4455  0.9259
   28MOL   H56826542   2.054   1.645   5.439 -2.1470 -0.6608  1.2514
   28MOL   H56926543   2.088   1.755   5.567  0.8015  0.9146 -1.0019
   28MOL   H57026544   1.749   1.390   5.689 -0.1098  0.4883  0.9056
   28MOL   H57126545   1.832   1.485   5.814  0.8276  1.5477 -0.0555
   28MOL   H57226546   1.767   1.699   5.685 -1.5759  1.4560  0.3143
   28MOL   H57326547   1.633   1.612   5.763  0.8879 -0.6291  0.5394
   28MOL   H57426548   1.561   1.530   5.561  0.5842 -0.1946  2.2312
   28MOL   H57526549   1.701   1.580   5.469  1.6008  1.2631  0.4707
   28MOL   H57626550   1.470   1.746   5.566  0.0888  0.5677 -0.5772
   28MOL   H57726551   1.537   1.753   5.414 -0.3006 -1.8565 -0.5543
   28MOL   O57826552   1.720   1.926   5.463 -0.6251 -0.0734  0.0111
   28MOL   C57926553   1.798   2.043   5.478  0.3238  0.4720 -0.2544
   28MOL   C58026554   1.870   2.092   5.358 -0.7271 -0.3666 -0.0645
   28MOL   C58126555   1.998   2.009   5.336  0.0729  0.1417 -0.7732
   28MOL   C58226556   2.069   2.063   5.215  0.4455 -0.0470  0.9746
   28MOL   C58326557   2.178   1.955   5.175  0.1567 -0.0213  0.6022
   28MOL   C58426558   2.251   1.977   5.038  0.2947  0.7207 -0.0957
   28MOL   C58526559   2.380   1.896   5.029  0.1306  0.5671 -0.3117
   28MOL   C58626560   2.372   1.747   5.028  0.4499 -0.3291 -0.2323
   28MOL   C58726561   2.499   1.664   5.057 -0.4964  0.4043  0.5646
   28MOL   C58826562   2.468   1.514   5.087  0.4968 -1.2056  0.2200
   28MOL   O58926563   2.584   1.457   5.143  0.5948  0.0847 -0.0727
   28MOL   C59026564   2.647   1.365   5.074 -0.3788 -0.0314  0.5144
   28MOL   O59126565   2.614   1.328   4.959 -0.5792  0.0688 -0.6139
   28MOL   C59226566   2.752   1.290   5.146  0.2813  0.3581 -0.1016
   28MOL   C59326567   2.698   1.213   5.266 -0.8247 -0.0041 -0.2392
   28MOL   C59426568   2.816   1.143   5.352 -0.3185  0.3697  0.1403
   28MOL   C59526569   2.739   1.057   5.449 -0.5743  0.0235 -0.2561
   28MOL   C59626570   2.710   0.910   5.399 -0.6956  0.3828 -0.2686
   28MOL   O59726571   2.718   0.876   5.278 -0.4444  0.5185 -0.6438
   28MOL   H59826572   1.732   2.126   5.503  0.3880  0.5802 -0.4408
   28MOL   H59926573   1.872   2.046   5.558 -0.3604  0.5744  0.3789
   28MOL   H60026574   1.891   2.198   5.365  1.2324 -0.7589  0.2703
   28MOL   H60126575   1.793   2.082   5.282 -2.2618 -1.0001  1.5257
   28MOL   H60226576   2.060   2.021   5.425 -1.2592  1.0370  0.0502
   28MOL   H60326577   1.973   1.903   5.324 -0.3264  0.2113 -0.5527
   28MOL   H60426578   2.114   2.160   5.237  0.8454 -0.1118  0.4430
   28MOL   H60526579   1.997   2.086   5.137  0.3737  0.7017  1.2572
   28MOL   H60626580   2.127   1.859   5.168 -1.2846  0.8025 -0.2795
   28MOL   H60726581   2.258   1.942   5.248 -1.8907 -0.7458  2.7645
   28MOL   H60826582   2.264   2.085   5.053  0.6057  0.5276  1.1077
   28MOL   H60926583   2.183   1.967   4.954 -1.9817 -1.3200  1.9283
   28MOL   H61026584   2.437   1.921   5.119 -1.8431  3.3779  0.2470
   28MOL   H61126585   2.448   1.919   4.947  1.9666  0.9545  1.2803
   28MOL   H61226586   2.346   1.719   4.926  1.5036  1.7330 -1.0957
   28MOL   H61326587   2.299   1.712   5.101  0.7443 -0.4661  0.0016
   28MOL   H61426588   2.567   1.673   4.972  1.6026  0.3322  2.1884
   28MOL   H61526589   2.559   1.710   5.136  0.1653  0.5253 -0.0008
   28MOL   H61626590   2.431   1.469   4.995  2.2362  1.5998 -1.9427
   28MOL   H61726591   2.386   1.502   5.157 -1.0576  0.8542 -1.2057
   28MOL   H61826592   2.801   1.226   5.071  2.0066  0.6709  0.7385
   28MOL   H61926593   2.832   1.357   5.177  0.4696  0.5021 -0.8749
   28MOL   H62026594   2.625   1.139   5.232 -1.1662  1.1021 -1.9338
   28MOL   H62126595   2.642   1.283   5.328 -1.0585 -0.4103  0.0116
   28MOL   H62226596   2.872   1.219   5.407  0.0119 -0.3481  0.8191
   28MOL   H62326597   2.878   1.085   5.285 -1.1718  1.0224 -1.2295
   28MOL   H62426598   2.641   1.103   5.466 -0.5584  0.7111 -1.9377
   28MOL   H62526599   2.786   1.054   5.547  0.0086  0.4286 -0.5235
   28MOL   O62626600   2.683   0.816   5.494 -0.6705 -0.1567 -0.2262
   28MOL   C62726601   2.647   0.686   5.455 -0.4351  0.0136  0.7269
   28MOL   C62826602   2.494   0.673   5.445 -1.3818 -0.2999  0.3343
   28MOL   C62926603   2.461   0.543   5.366 -0.7183  0.0862  0.1814
   28MOL   C63026604   2.316   0.506   5.374  0.8038 -0.3982  0.3151
   28MOL   C63126605   2.282   0.366   5.318  0.0658  0.3882 -0.3375
   28MOL   C63226606   2.129   0.353   5.318  0.1884 -0.4489  0.3772
   28MOL   C63326607   2.086   0.215   5.274  0.3792 -0.1281 -0.3299
   28MOL   C63426608   1.936   0.205   5.267 -0.3733  0.2876 -0.5811
   28MOL   C63526609   1.889   0.064   5.243  0.2285  0.7270  0.4793
   28MOL   C63626610   1.739   0.052   5.246  0.0347  0.0620  0.0814
   28MOL   O63726611   1.684   0.097   5.126 -0.5377  0.1174  0.5024
   28MOL   C63826612   1.549   0.094   5.111 -0.3875 -1.0020  0.1745
   28MOL   O63926613   1.470   0.086   5.206  0.4493  0.7295  0.1157
   28MOL   C64026614   1.501   0.093   4.965 -0.8382 -0.7324  0.6120
   28MOL   C64126615   1.587   0.195   4.874 -0.3671  0.2011 -0.6870
   28MOL   C64226616   1.544   0.186   4.730 -0.3101  0.1397 -0.3859
   28MOL   C64326617   1.396   0.171   4.719 -0.5505 -0.5133  0.2579
   28MOL   C64426618   1.347   0.166   4.575 -0.4943 -0.2558 -0.5409
   28MOL   O64526619   1.398   0.083   4.500 -0.8553 -0.4193  0.2157
   28MOL   H64626620   2.705   0.659   5.367 -0.1786  1.1459  0.5445
   28MOL   H64726621   2.669   0.608   5.528  0.2160 -0.3906  0.1123
   28MOL   H64826622   2.447   0.764   5.408 -0.1653  1.3737  2.7617
   28MOL   H64926623   2.454   0.647   5.543  0.0035  0.0559  1.0031
   28MOL   H65026624   2.471   0.566   5.260 -2.0844 -0.6201 -0.1171
   28MOL   H65126625   2.515   0.453   5.393  0.4740  0.9475  0.7087
   28MOL   H65226626   2.262   0.589   5.329 -0.5894  1.0739  4.4318
   28MOL   H65326627   2.284   0.503   5.478 -1.7785 -2.2740 -0.4877
   28MOL   H65426628   2.318   0.285   5.381  1.8223  0.5183 -1.1311
   28MOL   H65526629   2.305   0.364   5.211 -1.8478 -0.6793 -0.7377
   28MOL   H65626630   2.086   0.423   5.247 -2.0090  0.2255  2.3439
   28MOL   H65726631   2.096   0.384   5.416  0.0882  0.1353  0.1573
   28MOL   H65826632   2.139   0.158   5.350  0.9077 -1.4208 -1.6490
   28MOL   H65926633   2.131   0.184   5.180  4.5595 -0.0004  1.5193
   28MOL   H66026634   1.905   0.270   5.186 -1.2203  0.0282 -0.4703
   28MOL   H66126635   1.883   0.250   5.351  1.9635  1.1708  0.4618
   28MOL   H66226636   1.923   0.043   5.142 -0.6378 -0.1105  0.3565
   28MOL   H66326637   1.931   0.002   5.322 -0.8042 -0.6757 -0.0705
   28MOL   H66426638   1.688   0.108   5.325  2.0946 -1.4487  2.5591
   28MOL   H66526639   1.714   7.710   5.254  2.5747 -0.6991 -1.7381
   28MOL   H66626640   1.525   7.754   4.939  3.3608  0.0025  1.3191
   28MOL   H66726641   1.394   0.113   4.970 -1.3362 -3.1486  0.4779
   28MOL   H66826642   1.696   0.196   4.878 -0.3520 -3.6093  3.1244
   28MOL   H66926643   1.561   0.294   4.912  2.1352  0.6721 -0.0927
   28MOL   H67026644   1.608   0.103   4.697 -0.3792  0.6403 -1.8053
   28MOL   H67126645   1.567   0.282   4.683  0.0517  1.5745  2.6018
   28MOL   H67226646   1.350   0.255   4.770  3.1891  0.6769  1.9142
   28MOL   H67326647   1.362   0.076   4.761 -0.5098 -1.3324 -1.5298
   28MOL   O67426648   1.246   0.250   4.547 -1.2249 -0.7598  0.1349
   28MOL   C67526649   1.177   0.240   4.423  0.4833 -0.6441 -0.0986
   28MOL   C67626650   1.060   0.135   4.433  0.9913  0.1712  0.7551
   28MOL   C67726651   0.970   0.134   4.305  0.0989 -0.2288 -0.1383
   28MOL   C67826652   0.848   0.043   4.315  0.6013  0.0668 -0.5621
   28MOL   C67926653   0.733   0.065   4.215  0.2171  0.5561  0.1484
   28MOL   C68026654   0.624   7.717   4.225 -0.3223 -0.4919  0.7092
   28MOL   C68126655   0.504   7.754   4.137  0.0395  0.2964 -0.3126
   28MOL   C68226656   0.393   7.653   4.158  0.1328 -0.4465 -0.6047
   28MOL   C68326657   0.260   7.708   4.107  0.7432 -0.1774 -0.3699
   28MOL   C68426658   0.152   7.598   4.106 -0.0419  0.6117  0.0761
   28MOL   O68526659   0.025   7.635   4.057  0.2038  0.5202  0.3486
   28MOL   C68626660   7.762   7.602   3.933  0.1852 -0.3321 -0.0360
   28MOL   O68726661   0.074   7.565   3.846 -0.6949 -0.6919 -0.4099
   28MOL   C68826662   7.622   7.626   3.893 -0.3529 -0.0022  0.3322
   28MOL   C68926663   7.525   7.521   3.937 -0.0139  0.1215  0.3288
   28MOL   C69026664   7.389   7.593   3.964  0.3864  0.1810 -0.6962
   28MOL   C69126665   7.279   7.486   3.977 -0.1958 -0.4322  0.1934
   28MOL   C69226666   7.265   7.416   4.113 -0.2480  0.0300  0.0919
   28MOL   O69326667   7.154   7.408   4.167 -0.8295 -0.6092 -0.5379
   28MOL   H69426668   1.125   0.333   4.401  1.0038  0.2988  2.4783
   28MOL   H69526669   1.241   0.223   4.337 -0.4776  0.0831 -0.9723
   28MOL   H69626670   0.996   0.167   4.515 -0.3112  0.3107 -0.2829
   28MOL   H69726671   1.092   0.035   4.460 -1.1769 -0.2609  1.8505
   28MOL   H69826672   0.929   0.233   4.283  0.2833 -0.2814 -0.7045
   28MOL   H69926673   1.026   0.101   4.218  1.8456  0.8658  0.5342
   28MOL   H70026674   0.797   0.071   4.408  1.9382  2.7434 -0.5783
   28MOL   H70126675   0.877   7.703   4.317 -1.1679 -0.4238  1.2540
   28MOL   H70226676   0.768   0.071   4.112  0.5218  0.9295  0.2714
   28MOL   H70326677   0.697   0.166   4.232  1.2096  0.6692  1.7097
   28MOL   H70426678   0.610   7.703   4.332  2.1369 -1.8967  0.8783
   28MOL   H70526679   0.672   7.624   4.194  1.2263 -0.0678  1.7690
   28MOL   H70626680   0.537   7.751   4.034  1.3072  0.6133  0.0823
   28MOL   H70726681   0.465   0.089   4.158 -0.4740 -0.2508  1.4419
   28MOL   H70826682   0.398   7.635   4.265  0.7821 -2.9156 -1.0113
   28MOL   H70926683   0.422   7.565   4.100  0.5017  0.2254 -1.4474
   28MOL   H71026684   0.235   0.033   4.165  1.4129 -0.6697  0.6722
   28MOL   H71126685   0.263   7.743   4.004 -1.7637  1.8523  0.1804
   28MOL   H71226686   0.148   7.578   4.213 -2.8753  0.4525 -0.0264
   28MOL   H71326687   0.189   7.508   4.058  0.6804  2.8160 -3.7345
   28MOL   H71426688   7.591   7.718   3.943  1.0781  0.0519  1.1394
   28MOL   H71526689   7.622   7.634   3.784  0.5616  0.1108  0.3400
   28MOL   H71626690   7.556   7.464   4.025 -0.0150  2.5902  1.9951
   28MOL   H71726691   7.515   7.445   3.860 -1.1106  0.1492  0.4347
   28MOL   H71826692   7.371   7.656   3.877  0.5289 -0.3229 -1.0951
   28MOL   H71926693   7.391   7.655   4.054 -1.0603 -2.5243  1.2449
   28MOL   H72026694   7.297   7.417   3.895 -0.2430  1.3403 -1.3513
   28MOL   H72126695   7.179   7.527   3.958  0.7176  1.7466 -0.0463
   28MOL   O72226696   7.380   7.371   4.170  0.0056  0.2758  0.6341
   28MOL   C72326697   7.381   7.280   4.277  0.6303  0.7142  0.1065
   28MOL   C72426698   7.495   7.299   4.373  0.1434 -0.2191 -0.3740
   28MOL   C72526699   7.629   7.286   4.300 -0.4465 -0.3612 -0.2775
   28MOL   C72626700   7.744   7.321   4.389 -0.6717  0.2702  0.3943
   28MOL   C72726701   0.109   7.304   4.313 -0.4253 -0.2571 -0.0757
   28MOL   C72826702   0.232   7.335   4.401  0.6928 -0.1603 -0.2671
   28MOL   C72926703   0.366   7.312   4.333  0.2566  0.1712  0.4698
   28MOL   C73026704   0.493   7.372   4.408  0.2810  0.4787  0.1871
   28MOL   C73126705   0.638   7.353   4.345 -0.2641  0.5509  0.3704
   28MOL   C73226706   0.747   7.406   4.443 -0.3439 -0.0749  0.0851
   28MOL   O73326707   0.744   7.346   4.573  0.0390  0.3697  0.1516
   28MOL   C73426708   0.803   7.224   4.596 -0.0163 -0.5314  0.1789
   28MOL   O73526709   0.864   7.163   4.513 -0.3271  0.3328 -0.2130
   28MOL   C73626710   0.772   7.180   4.746  0.0047 -0.5198 -0.2144
   28MOL   C73726711   0.627   7.124   4.753 -1.1343 -0.2787  0.1525
   28MOL   C73826712   0.628   6.985   4.691 -0.1669  0.0127 -0.5710
   28MOL   C73926713   0.497   6.901   4.671  0.3911 -0.2044  0.3439
   28MOL   C74026714   0.419   6.939   4.551  1.0262 -0.1988 -0.4751
   28MOL   O74126715   0.315   7.002   4.567  0.1999  0.6116  0.2482
   28MOL   H74226716   7.283   7.290   4.324 -0.0557 -1.5912 -0.7797
   28MOL   H74326717   7.384   7.182   4.230  2.6559 -0.0377  1.7492
   28MOL   H74426718   7.491   7.233   4.460  0.6032  0.1514 -0.0664
   28MOL   H74526719   7.491   7.405   4.399  0.5433 -0.6923  1.7085
   28MOL   H74626720   7.633   7.181   4.271 -0.6247 -0.2000 -0.8876
   28MOL   H74726721   7.638   7.339   4.205 -0.5468  2.0207  1.0089
   28MOL   H74826722   7.749   7.271   4.486  1.4147  1.1543  0.7823
   28MOL   H74926723   7.736   7.426   4.417 -2.0284  0.5901 -1.1191
   28MOL   H75026724   0.100   7.365   4.223 -1.9865 -2.7683 -1.6868
   28MOL   H75126725   0.119   7.202   4.277 -0.2541 -0.7216  1.2770
   28MOL   H75226726   0.229   7.274   4.492 -0.8274  1.7702  1.0318
   28MOL   H75326727   0.219   7.437   4.439  0.9055 -0.8503  1.7128
   28MOL   H75426728   0.369   7.358   4.234 -0.6481  0.4907  0.5840
   28MOL   H75526729   0.373   7.206   4.309 -0.0350  0.5678 -1.4520
   28MOL   H75626730   0.486   7.336   4.510  1.7186 -2.3379 -0.6561
   28MOL   H75726731   0.478   7.479   4.426  2.4280  0.7212  0.6926
   28MOL   H75826732   0.661   7.252   4.311 -0.8651  0.6614 -0.3703
   28MOL   H75926733   0.639   7.415   4.255 -1.5401 -1.2668 -0.9246
   28MOL   H76026734   0.761   7.514   4.448  0.0783 -0.1529  0.8619
   28MOL   H76126735   0.843   7.380   4.399 -0.5781 -0.2443 -0.3250
   28MOL   H76226736   0.842   7.102   4.776 -0.5996 -0.5819  1.0452
   28MOL   H76326737   0.783   7.266   4.812 -1.8735 -0.1732 -0.3287
   28MOL   H76426738   0.565   7.190   4.693 -1.7152  1.4871  2.6315
   28MOL   H76526739   0.586   7.121   4.854  0.1859  4.3310  0.9799
   28MOL   H76626740   0.703   6.920   4.736 -1.3035 -1.3839 -0.6597
   28MOL   H76726741   0.677   6.995   4.594 -1.9715  0.7975 -1.4155
   28MOL   H76826742   0.427   6.909   4.755  1.0014 -0.2802  0.8617
   28MOL   H76926743   0.528   6.799   4.652  0.3608 -0.1245 -0.1541
   28MOL   O77026744   0.460   6.881   4.437  0.7433  0.0918  0.2514
   28MOL   C77126745   0.380   6.890   4.319  0.1353 -0.1850  0.2798
   28MOL   C77226746   0.471   6.939   4.204  0.4030 -0.4993  0.1373
   28MOL   C77326747   0.395   6.981   4.081  0.1642  0.3066  0.1935
   28MOL   C77426748   0.471   6.981   3.953  0.0986 -0.1162  0.0938
   28MOL   C77526749   0.494   6.841   3.889  0.3563  0.6620 -0.1719
   28MOL   C77626750   0.417   6.822   3.755  0.1737  0.1142 -0.3142
   28MOL   C77726751   0.455   6.914   3.640 -0.9126  0.8916 -0.0572
   28MOL   C77826752   0.397   6.872   3.506 -0.1977 -0.0659 -0.1176
   28MOL   C77926753   0.450   6.954   3.385  1.2349  0.0634 -0.1873
   28MOL   C78026754   0.362   7.088   3.359 -0.4431  0.4567  0.1253
   28MOL   O78126755   0.224   7.058   3.324 -0.6495  0.1650  0.0606
   28MOL   C78226756   0.194   7.015   3.196 -0.2245  0.4881  0.1378
   28MOL   O78326757   0.276   6.984   3.112  0.2180 -0.1881  0.6221
   28MOL   C78426758   0.049   7.019   3.168  0.0073  0.1325 -0.7988
   28MOL   C78526759   0.009   6.937   3.044  0.2349  0.9909  0.6572
   28MOL   C78626760   0.005   7.011   2.908  0.0885  0.1074 -0.4876
   28MOL   C78726761   7.671   7.132   2.912 -0.4472 -0.0056  0.2092
   28MOL   C78826762   7.523   7.101   2.952 -0.2098 -0.1002  0.0877
   28MOL   O78926763   7.432   7.131   2.873 -0.2645  0.0101 -0.4731
   28MOL   H79026764   0.342   6.791   4.295 -1.3794  0.7185 -1.2276
   28MOL   H79126765   0.291   6.953   4.326  1.9259  2.0598  5.1398
   28MOL   H79226766   0.532   6.850   4.188  0.7078 -0.1506 -0.6830
   28MOL   H79326767   0.535   7.021   4.237 -1.9355  0.0907  3.4124
   28MOL   H79426768   0.296   6.935   4.079 -0.0298  0.7168  0.3188
   28MOL   H79526769   0.366   7.085   4.096  1.1542  0.5619  0.3616
   28MOL   H79626770   0.566   7.032   3.967 -1.3293  2.1195  1.9097
   28MOL   H79726771   0.417   7.045   3.884 -0.5025  0.5533  1.1820
   28MOL   H79826772   0.457   6.760   3.952 -0.0776  2.7591  2.3382
   28MOL   H79926773   0.600   6.819   3.876  1.1633  3.2344  1.6376
   28MOL   H80026774   0.310   6.837   3.769  0.3493  0.7003  0.3864
   28MOL   H80126775   0.412   6.716   3.729  1.0529  0.4084 -1.7349
   28MOL   H80226776   0.563   6.906   3.630 -0.9534 -0.9729  0.7926
   28MOL   H80326777   0.431   7.015   3.674  2.7570  1.9369 -0.3293
   28MOL   H80426778   0.290   6.872   3.525 -0.1528 -3.1910  0.3967
   28MOL   H80526779   0.431   6.768   3.505 -1.2010 -0.3999 -0.0841
   28MOL   H80626780   0.554   6.984   3.403  1.0160  1.0727 -0.5593
   28MOL   H80726781   0.447   6.888   3.299 -0.8465  0.5104 -0.4700
   28MOL   H80826782   0.408   7.135   3.272 -1.5141  1.7482  0.2415
   28MOL   H80926783   0.375   7.156   3.443  0.8173 -1.0808  1.2115
   28MOL   H81026784   7.756   6.981   3.252  2.2229 -0.1701  0.6166
   28MOL   H81126785   0.029   7.125   3.148 -1.5187  0.0388  0.0995
   28MOL   H81226786   7.689   6.872   3.067  1.8032 -0.3773  2.6811
   28MOL   H81326787   0.080   6.857   3.023  0.9189  1.3488  1.5834
   28MOL   H81426788   7.734   6.938   2.836 -0.9838  0.1231  0.0125
   28MOL   H81526789   0.104   7.050   2.883  1.6525 -0.4820  4.2502
   28MOL   H81626790   7.673   7.180   2.814 -2.6265 -0.2573  0.0120
   28MOL   H81726791   7.699   7.209   2.983 -0.8607 -0.8663  1.3180
   28MOL   O81826792   7.505   7.041   3.070 -0.3595  0.4730  0.5206
   28MOL   C81926793   7.380   7.000   3.115 -0.2194 -0.1199 -0.2658
   28MOL   C82026794   7.402   6.913   3.236 -0.3033 -0.1878 -0.3354
   28MOL   C82126795   7.434   6.984   3.369  0.8055 -0.8731 -0.3557
   28MOL   C82226796   7.413   6.904   3.496  0.3133 -0.4988  0.0752
   28MOL   C82326797   7.515   6.787   3.516 -0.5210  0.0182  0.8848
   28MOL   C82426798   7.528   6.719   3.658 -0.0703 -0.9351 -0.1774
   28MOL   C82526799   7.392   6.669   3.710  0.4493 -0.3796  0.7879
   28MOL   C82626800   7.378   6.604   3.844  0.6105  0.0865  0.5487
   28MOL   C82726801   7.238   6.595   3.894 -0.1717 -0.0870 -0.6265
   28MOL   C82826802   7.239   6.555   4.042 -0.4251  0.2549  0.1492
   28MOL   O82926803   7.281   6.676   4.114 -0.4616 -0.4059  0.1606
   28MOL   C83026804   7.274   6.679   4.248  0.1571 -0.3987 -0.4265
   28MOL   O83126805   7.248   6.584   4.322 -0.6124 -0.0462 -0.3211
   28MOL   C83226806   7.325   6.808   4.303  0.2410 -0.6016  0.1627
   28MOL   C83326807   7.306   6.828   4.462 -0.3552 -0.0700  0.0238
   28MOL   C83426808   7.409   6.773   4.559 -0.5388  0.1121  0.3173
   28MOL   C83526809   7.529   6.863   4.591  0.5655 -0.4554 -0.0303
   28MOL   C83626810   7.631   6.885   4.476  0.0827 -0.0995 -0.1818
   28MOL   O83726811   7.682   6.997   4.466 -0.7950  0.5275 -0.1227
   28MOL   H83826812   7.328   7.092   3.142  1.5626  0.8857 -0.2410
   28MOL   H83926813   7.308   6.951   3.049  0.8858 -0.3326 -1.3185
   28MOL   H84026814   7.481   6.838   3.227  1.0922  1.1315  0.6996
   28MOL   H84126815   7.317   6.846   3.248 -0.4865 -0.2664 -1.9003
   28MOL   H84226816   7.532   7.030   3.372  0.6856 -0.5702 -1.1210
   28MOL   H84326817   7.379   7.077   3.378 -0.3874 -1.5713 -0.2798
   28MOL   H84426818   7.310   6.867   3.502  0.4439 -1.1909 -1.5155
   28MOL   H84526819   7.425   6.969   3.582  1.5362 -0.3586 -0.1990
   28MOL   H84626820   7.612   6.832   3.493  0.0687 -0.4466  2.4184
   28MOL   H84726821   7.508   6.706   3.443 -0.2732 -1.8135  2.8529
   28MOL   H84826822   7.564   6.794   3.728  1.3553 -1.8483  0.0761
   28MOL   H84926823   7.608   6.646   3.648 -0.5778 -1.4478 -0.5190
   28MOL   H85026824   7.350   6.606   3.631 -0.1146  1.3641 -0.3308
   28MOL   H85126825   7.316   6.748   3.707 -1.2790 -2.0553 -2.1194
   28MOL   H85226826   7.443   6.675   3.896  0.3463 -0.0258  1.0405
   28MOL   H85326827   7.437   6.513   3.841  1.1689  0.3857  2.0489
   28MOL   H85426828   7.177   6.685   3.890  0.2605  0.3009  0.9158
   28MOL   H85526829   7.179   6.515   3.850  0.6417 -0.2174 -1.4813
   28MOL   H85626830   7.302   6.470   4.070  0.8682  0.8237 -1.0017
   28MOL   H85726831   7.135   6.533   4.068 -1.3912  1.1028 -2.8831
   28MOL   H85826832   7.429   6.837   4.289  0.3106 -0.6086  0.6314
   28MOL   H85926833   7.272   6.883   4.244  0.8977 -0.9534 -0.8964
   28MOL   H86026834   7.207   6.790   4.487 -0.7959  0.8685 -0.2698
   28MOL   H86126835   7.307   6.935   4.478 -0.3818 -0.2271  1.0925
   28MOL   H86226836   7.443   6.676   4.523 -0.5539 -0.5702  2.0839
   28MOL   H86326837   7.364   6.762   4.658 -0.3164 -0.0158  0.4050
   28MOL   H86426838   7.575   6.826   4.683 -1.0592  0.5305  1.2000
   28MOL   H86526839   7.487   6.960   4.618  0.3985  0.3146 -2.8422
   28MOL   O86626840   7.650   6.782   4.398 -0.2122  0.3871 -0.1119
   28MOL   C86726841   7.753   6.795   4.299  0.3592 -0.3884  0.3504
   28MOL   C86826842   7.758   6.674   4.214  0.2238  0.3106  0.1332
   28MOL   C86926843   0.100   6.669   4.107  0.1358  0.3403  0.3943
   28MOL   C87026844   0.109   6.529   4.041 -1.1277 -0.7394  0.0533
   28MOL   C87126845   0.006   6.492   3.934  0.5150 -0.0456  0.4927
   28MOL   C87226846   0.011   6.344   3.889  0.4204  0.0723  0.6590
   28MOL   C87326847   7.667   6.319   3.777 -0.4950  0.2424  0.8716
   28MOL   C87426848   7.680   6.177   3.715  0.3394  0.0256  0.3035
   28MOL   C87526849   7.615   6.171   3.573  0.9200 -0.2658 -0.2897
   28MOL   C87626850   7.628   6.036   3.507 -0.1087 -0.1635  0.0795
   28MOL   O87726851   0.003   6.019   3.474 -0.3442 -0.0693 -0.7401
   28MOL   C87826852   0.054   5.888   3.473  0.6862 -0.5548 -0.0493
   28MOL   O87926853   0.002   5.787   3.524 -0.1940  0.2536  0.4309
   28MOL   C88026854   0.195   5.883   3.408  0.2709  0.1073 -0.3756
   28MOL   C88126855   0.197   5.848   3.262  0.2821 -0.0192 -0.5041
   28MOL   C88226856   0.169   5.956   3.161  0.3200 -0.8064 -0.6193
   28MOL   C88326857   0.018   5.978   3.133  0.3502  0.5465  0.1915
   28MOL   C88426858   7.751   6.094   3.042 -0.1862  0.9133 -0.2911
   28MOL   O88526859   7.698   6.190   3.088 -0.0344  0.0725  0.7638
   28MOL   H88626860   7.738   6.886   4.240 -1.5759 -1.0518 -0.2249
   28MOL   H88726861   0.079   6.802   4.358  0.2213  0.4758  0.4720
   28MOL   H88826862   7.662   6.663   4.163  1.0036 -0.1730 -1.2284
   28MOL   H88926863   7.757   6.583   4.274  0.6173 -0.2438 -0.7007
   28MOL   H89026864   0.075   6.744   4.032 -0.5325 -0.5464 -0.3023
   28MOL   H89126865   0.189   6.695   4.163  0.1955 -0.5257  0.7125
   28MOL   H89226866   0.104   6.458   4.124 -1.9669  1.3047  1.8246
   28MOL   H89326867   0.208   6.508   4.002 -0.3951  0.1509  1.3661
   28MOL   H89426868   0.015   6.550   3.842  0.1417  2.0331  1.7395
   28MOL   H89526869   7.667   6.512   3.959  0.4958 -0.0407  0.4096
   28MOL   H89626870   7.756   6.284   3.978 -0.7382  1.8922  1.6501
   28MOL   H89726871   0.108   6.307   3.856 -0.7379 -2.1606 -0.3465
   28MOL   H89826872   7.687   6.393   3.700 -0.6530 -1.0420 -0.4083
   28MOL   H89926873   7.563   6.335   3.804 -0.8644 -1.8390  0.7196
   28MOL   H90026874   7.630   6.101   3.774 -1.4713  0.4078 -0.7147
   28MOL   H90126875   0.018   6.140   3.712 -0.2172 -1.5269  0.2151
   28MOL   H90226876   7.510   6.202   3.565  0.3649 -2.0381 -0.0475
   28MOL   H90326877   7.669   6.239   3.507 -0.4399  0.5361 -0.6140
   28MOL   H90426878   7.578   6.038   3.410 -0.8797  0.3783  0.4803
   28MOL   H90526879   7.601   5.953   3.572  1.0576 -0.0841  0.6828
   28MOL   H90626880   0.242   5.978   3.433 -0.5501  0.4322 -0.0453
   28MOL   H90726881   0.256   5.806   3.456  0.2199 -1.2439 -2.4064
   28MOL   H90826882   0.142   5.758   3.235 -2.3774  1.6069 -0.8058
   28MOL   H90926883   0.300   5.814   3.251  1.5500  2.6979  2.3721
   28MOL   H91026884   0.220   5.938   3.066 -0.2086  1.0196 -1.2768
   28MOL   H91126885   0.209   6.046   3.208 -2.4523 -1.1695  2.6096
   28MOL   H91226886   7.719   5.990   3.221 -0.1338 -0.8128  0.0340
   28MOL   H91326887   7.750   5.890   3.079  1.3595 -0.9409  1.9498
   28MOL   O91426888   0.030   6.078   2.915 -0.2979  0.0107 -0.7474
   28MOL   C91526889   0.012   6.183   2.826  0.5423 -0.3909 -0.3020
   28MOL   C91626890   0.131   6.280   2.815  0.2212  0.7262  0.5103
   28MOL   C91726891   0.126   6.383   2.701 -0.0379  0.0386 -0.1881
   28MOL   C91826892   0.246   6.478   2.707 -0.0645 -0.6353 -0.3344
   28MOL   C91926893   0.264   6.596   2.608  0.4318  0.6380 -0.1084
   28MOL   C92026894   0.398   6.670   2.633 -0.3721 -0.3960 -0.1790
   28MOL   C92126895   0.438   6.770   2.523 -0.1684 -0.1107  0.3078
   28MOL   C92226896   0.561   6.863   2.539 -0.1215  0.5295 -0.0690
   28MOL   C92326897   0.552   6.954   2.657  0.2642  0.0468 -0.8378
   28MOL   C92426898   0.677   7.021   2.695 -0.0148 -0.1925 -0.3561
   28MOL   O92526899   0.659   7.108   2.810 -0.1871 -0.4610  0.9987
   28MOL   C92626900   0.673   7.045   2.929  0.3367  0.0687  0.3033
   28MOL   O92726901   0.700   6.928   2.943  0.3595  0.4074  0.2057
   28MOL   C92826902   0.636   7.139   3.046 -0.1584  0.5731 -0.4775
   28MOL   C92926903   0.691   7.098   3.188  0.5269  0.1500 -0.2366
   28MOL   C93026904   0.838   7.112   3.198  0.4340 -0.7546  0.0398
   28MOL   C93126905   0.901   7.037   3.311 -0.4899  0.3504  0.3725
   28MOL   C93226906   1.051   7.066   3.336 -0.6587  0.1669 -0.4737
   28MOL   O93326907   1.096   7.178   3.336 -0.2314  0.6382  0.4684
   28MOL   H93426908   7.760   6.143   2.726  0.1930  0.4210 -0.5696
   28MOL   H93526909   7.688   6.244   2.838  0.7382 -0.6779  3.0323
   28MOL   H93626910   0.227   6.229   2.812  1.3625  2.8006  0.3215
   28MOL   H93726911   0.142   6.332   2.910  0.6840  0.2702  0.7049
   28MOL   H93826912   0.133   6.334   2.604 -1.0814 -0.6655  0.0922
   28MOL   H93926913   0.033   6.440   2.707 -0.8100 -1.2285 -0.0095
   28MOL   H94026914   0.329   6.410   2.689 -0.9243 -1.6472 -0.5049
   28MOL   H94126915   0.256   6.524   2.806 -0.7376  0.6396 -0.8498
   28MOL   H94226916   0.200   6.683   2.624 -0.4311  0.0695 -0.4703
   28MOL   H94326917   0.252   6.554   2.508 -1.1297  0.8769 -0.0361
   28MOL   H94426918   0.487   6.609   2.636  1.9934  2.8541 -1.3602
   28MOL   H94526919   0.390   6.722   2.728 -0.8520 -2.6459  1.0340
   28MOL   H94626920   0.360   6.845   2.505 -0.0022 -0.1185 -0.4809
   28MOL   H94726921   0.450   6.728   2.423  0.0317  1.7482 -0.4766
   28MOL   H94826922   0.579   6.911   2.443 -1.0750  2.2225  0.5949
   28MOL   H94926923   0.653   6.807   2.558 -0.9618 -1.3417 -1.3188
   28MOL   H95026924   0.474   7.029   2.644 -1.0798 -1.4879 -1.8474
   28MOL   H95126925   0.520   6.904   2.749  2.0845  3.0797  1.5624
   28MOL   H95226926   0.692   7.094   2.615 -0.4566  1.0206  0.6442
   28MOL   H95326927   0.757   6.950   2.712  0.8368  1.1293  1.3011
   28MOL   H95426928   0.656   7.241   3.013  0.5210  0.3066 -0.8750
   28MOL   H95526929   0.527   7.133   3.056 -0.0364 -1.1049 -0.0291
   28MOL   H95626930   0.663   6.994   3.205 -1.2511  0.9073  1.8734
   28MOL   H95726931   0.641   7.154   3.268 -0.9369  0.0092 -1.0316
   28MOL   H95826932   0.866   7.217   3.204  0.7101 -0.6799 -2.0735
   28MOL   H95926933   0.891   7.070   3.112  0.8803 -0.9993  0.4364
   28MOL   H96026934   0.893   6.929   3.300 -2.0949  0.4070  0.7446
   28MOL   H96126935   0.852   7.050   3.408 -0.2694 -3.6368  1.0798
   28MOL   H96226936   1.111   6.978   3.358 -1.6355  0.1794  2.3986
   29MOL     O126937   1.534   5.799   7.118 -0.8819  0.5237  0.1223
   29MOL     C226938   1.498   5.902   7.214 -0.0840 -0.5861 -0.0688
   29MOL     C326939   1.385   5.990   7.162  0.1103  0.4095 -0.6734
   29MOL     C426940   1.257   5.914   7.143 -0.8707 -0.2057 -0.0648
   29MOL     C526941   1.146   6.009   7.093  1.1070  0.0325  0.1521
   29MOL     C626942   1.020   5.949   7.036  0.0306 -0.5411  0.8394
   29MOL     C726943   0.926   6.071   7.006 -0.2629 -0.3804  0.1896
   29MOL     C826944   0.795   6.030   6.944  0.9250  0.8809 -1.0607
   29MOL     C926945   0.780   5.950   6.814 -0.6821 -0.2292 -0.4137
   29MOL    C1026946   0.821   6.035   6.684 -0.0528  0.2461  0.2785
   29MOL    C1126947   0.797   5.944   6.563 -0.0332 -0.2975  0.0665
   29MOL    O1226948   0.882   5.833   6.566 -0.5006  0.2609 -0.1205
   29MOL    C1326949   0.967   5.816   6.471  0.7926 -0.2569  0.8597
   29MOL    O1426950   0.975   5.877   6.367  0.0835  0.7205  0.1085
   29MOL    C1526951   1.081   5.714   6.509  0.0945  0.4887  0.1325
   29MOL    C1626952   1.176   5.767   6.622 -0.1450  0.5960  0.0511
   29MOL    C1726953   1.298   5.684   6.644  0.1302 -0.1366  0.5488
   29MOL    C1826954   1.393   5.725   6.748 -0.8997  0.3082 -0.8110
   29MOL    C1926955   1.474   5.853   6.739 -0.2326  0.5078  0.0358
   29MOL    O2026956   1.522   5.903   6.841 -0.0708  0.4008  0.3528
   29MOL    H2126957   1.473   5.859   7.311  0.0081 -1.1455 -0.2914
   29MOL    H2226958   1.586   5.966   7.219 -1.4392  1.3889 -0.9610
   29MOL    H2326959   1.419   6.022   7.063  2.8169  1.5235  0.5536
   29MOL    H2426960   1.362   6.076   7.224  0.9318  0.6193 -0.6580
   29MOL    H2526961   1.276   5.826   7.082 -1.2074 -0.3186 -0.0064
   29MOL    H2626962   1.219   5.869   7.235 -2.6118 -1.7355 -1.5219
   29MOL    H2726963   1.193   6.079   7.024  1.3433  0.9685  1.2425
   29MOL    H2826964   1.128   6.071   7.180 -0.0413  1.8899 -1.3827
   29MOL    H2926965   0.969   5.891   7.114  0.3129 -2.3879 -0.3067
   29MOL    H3026966   1.038   5.885   6.949 -0.1592 -0.0691  0.4550
   29MOL    H3126967   0.971   6.129   6.925 -3.5826  0.3333 -1.2196
   29MOL    H3226968   0.913   6.140   7.089 -2.0819 -0.2468 -0.1976
   29MOL    H3326969   0.728   6.116   6.935 -2.4111 -1.6021 -0.8525
   29MOL    H3426970   0.761   5.961   7.020  0.4515 -0.2822 -2.2999
   29MOL    H3526971   0.676   5.919   6.816 -0.2537 -1.6495  0.4413
   29MOL    H3626972   0.834   5.856   6.825 -0.6236 -0.0094  1.2006
   29MOL    H3726973   0.765   6.128   6.678  1.6199  1.2338 -0.0840
   29MOL    H3826974   0.925   6.065   6.686  0.0914  0.0137 -2.6773
   29MOL    H3926975   0.814   6.006   6.475  0.9297  1.7109  1.6092
   29MOL    H4026976   0.694   5.909   6.556 -0.0550 -0.2042 -0.0816
   29MOL    H4126977   1.024   5.625   6.535  0.5955 -0.6638 -2.6067
   29MOL    H4226978   1.138   5.700   6.417  0.6520  1.3692  0.3341
   29MOL    H4326979   1.131   5.766   6.721 -0.1819 -1.2634  0.0195
   29MOL    H4426980   1.212   5.868   6.603 -1.6547  1.1307 -0.0273
   29MOL    H4526981   1.348   5.673   6.549 -2.5741 -1.3670 -0.7957
   29MOL    H4626982   1.263   5.582   6.660 -0.4691  0.2304  1.6387
   29MOL    H4726983   1.462   5.641   6.762 -1.8095 -0.2565  0.3700
   29MOL    H4826984   1.341   5.719   6.844 -1.2401  1.7607 -0.8987
   29MOL    H4926985   1.533   5.834   7.030 -1.4043  0.0834 -0.0488
   29MOL    O5026986   1.481   5.901   6.618  0.3952  0.4714 -0.3331
   29MOL    C5126987   1.553   6.024   6.595 -0.3806  0.2815  0.1267
   29MOL    C5226988   1.455   6.132   6.551 -0.2149 -0.1425  0.1612
   29MOL    C5326989   1.373   6.075   6.434 -0.3894  0.1224  0.4813
   29MOL    C5426990   1.252   6.167   6.401  0.3126 -0.2303  0.0984
   29MOL    C5526991   1.181   6.145   6.263  0.1363  0.9501 -0.2590
   29MOL    C5626992   1.079   6.257   6.233 -0.2155 -0.3297 -0.1404
   29MOL    C5726993   0.945   6.247   6.308  0.7625  0.4524  0.0777
   29MOL    C5826994   0.849   6.354   6.263 -0.2471 -0.2771  0.1257
   29MOL    C5926995   0.732   6.378   6.358 -0.0708  0.4944  0.4253
   29MOL    C6026996   0.660   6.514   6.330 -0.1219 -0.2971  0.2282
   29MOL    O6126997   0.612   6.527   6.193 -0.1170 -0.2786 -0.2388
   29MOL    C6226998   0.677   6.606   6.099 -0.0350  0.4725 -0.1719
   29MOL    O6326999   0.778   6.669   6.129  0.2483  0.3440 -0.4744
   29MOL    C6427000   0.609   6.602   5.962 -0.3716 -0.4612 -0.4358
   29MOL    C6527001   0.606   6.456   5.897  0.5381 -0.5277 -0.1754
   29MOL    C6627002   0.741   6.395   5.851  1.2363 -0.2246 -0.1047
   29MOL    C6727003   0.736   6.265   5.778  0.1718 -0.1171  0.7317
   29MOL    C6827004   0.635   6.257   5.656 -0.2521 -0.6076 -0.3244
   29MOL    O6927005   0.677   6.272   5.539  0.5790  0.6004  0.2675
   29MOL    H7027006   1.615   6.062   6.676 -3.5938  2.2657  1.7760
   29MOL    H7127007   1.617   6.007   6.509 -0.7688  1.2066 -0.3475
   29MOL    H7227008   1.514   6.214   6.511  0.6402 -1.5408 -1.5296
   29MOL    H7327009   1.387   6.164   6.629  1.1759  1.1764  0.8768
   29MOL    H7427010   1.441   6.073   6.349 -1.5828  2.4042 -0.5821
   29MOL    H7527011   1.331   5.974   6.444 -1.6398  0.7203  1.3240
   29MOL    H7627012   1.275   6.273   6.398 -2.2908  0.3377 -0.9297
   29MOL    H7727013   1.175   6.154   6.477 -0.4039 -2.7182 -0.9908
   29MOL    H7827014   1.139   6.045   6.261  0.0743  0.9784 -0.4185
   29MOL    H7927015   1.254   6.143   6.182 -1.4885 -0.2036 -1.7230
   29MOL    H8027016   1.052   6.252   6.128 -1.8088 -0.7098  0.2842
   29MOL    H8127017   1.128   6.354   6.243 -2.3905  0.6674  1.1225
   29MOL    H8227018   0.965   6.267   6.414  1.5077 -0.4575  0.1259
   29MOL    H8327019   0.907   6.147   6.286 -1.2148  1.0651  0.6444
   29MOL    H8427020   0.805   6.316   6.171 -0.3470 -4.1113  1.6733
   29MOL    H8527021   0.895   6.453   6.264  0.5136 -0.6293  0.0687
   29MOL    H8627022   0.661   6.296   6.345 -0.1189  0.3832  1.3721
   29MOL    H8727023   0.772   6.388   6.458 -1.6022  0.7848  1.0228
   29MOL    H8827024   0.723   6.599   6.356 -0.3459  0.0896 -0.4748
   29MOL    H8927025   0.578   6.522   6.401  0.5689 -0.4500  1.0452
   29MOL    H9027026   0.504   6.630   5.964 -0.7190 -1.7774  1.5941
   29MOL    H9127027   0.655   6.670   5.891 -1.3672 -0.7042 -1.3408
   29MOL    H9227028   0.528   6.466   5.821  3.1329  1.9712 -2.6151
   29MOL    H9327029   0.568   6.390   5.975  1.8845  0.0977  1.0263
   29MOL    H9427030   0.797   6.383   5.943 -0.9869 -1.3474  1.1448
   29MOL    H9527031   0.783   6.470   5.783 -2.3062  0.6860 -1.4289
   29MOL    H9627032   0.721   6.179   5.844 -0.9679 -1.6259 -1.4410
   29MOL    H9727033   0.823   6.245   5.715 -1.2617  1.8915 -1.9543
   29MOL    O9827034   0.509   6.248   5.699 -0.0396  0.0801  0.5512
   29MOL    C9927035   0.408   6.268   5.609 -0.1631 -0.0567  0.2696
   29MOL   C10027036   0.280   6.304   5.689 -0.0737 -0.4506  0.3916
   29MOL   C10127037   0.243   6.215   5.804  0.1970 -0.0504  0.1663
   29MOL   C10227038   0.102   6.246   5.871  0.6741 -0.0674 -0.1872
   29MOL   C10327039   7.743   6.197   5.794  0.0737 -0.9756 -0.3429
   29MOL   C10427040   7.612   6.203   5.877 -0.1047  0.2172  0.5703
   29MOL   C10527041   7.482   6.178   5.799  0.0974 -0.2482  0.2256
   29MOL   C10627042   7.355   6.180   5.889 -0.5900  0.8727  0.6879
   29MOL   C10727043   7.230   6.207   5.804  0.7607 -0.4000  0.8388
   29MOL   C10827044   7.093   6.210   5.872 -0.4079 -0.5262 -0.9661
   29MOL   O10927045   7.103   6.288   5.994  0.2635  0.2960 -0.7768
   29MOL   C11027046   7.070   6.415   5.987 -0.0886  0.1238 -0.2498
   29MOL   O11127047   7.053   6.484   5.884  0.3238 -0.2276 -0.7707
   29MOL   C11227048   7.077   6.476   6.122 -0.1351 -0.2049 -0.3369
   29MOL   C11327049   7.219   6.521   6.174 -0.0347 -0.4678 -0.5166
   29MOL   C11427050   7.292   6.405   6.248  0.4674 -0.2170 -0.4589
   29MOL   C11527051   7.235   6.383   6.395 -0.2111  0.6565  0.1154
   29MOL   C11627052   7.223   6.506   6.489  0.5362  0.3017  0.3276
   29MOL   O11727053   7.316   6.563   6.540  0.1787  0.1276 -0.6813
   29MOL   H11827054   0.440   6.354   5.550  1.7045 -0.6463  0.3980
   29MOL   H11927055   0.402   6.175   5.552  0.0392  0.0353  0.0973
   29MOL   H12027056   0.199   6.313   5.617 -0.6689 -2.4777  0.7859
   29MOL   H12127057   0.283   6.398   5.745  2.1918 -1.9836  2.9627
   29MOL   H12227058   0.236   6.110   5.776  1.5619  0.1519 -0.9739
   29MOL   H12327059   0.324   6.222   5.877 -0.1200 -3.1849  0.9104
   29MOL   H12427060   0.100   6.354   5.890 -3.1499  0.2565 -1.9758
   29MOL   H12527061   0.105   6.198   5.968  0.7063 -0.7742 -0.5332
   29MOL   H12627062   0.004   6.094   5.767  2.0568 -0.3169 -1.0850
   29MOL   H12727063   7.710   6.255   5.708 -0.8328 -1.2948 -0.2125
   29MOL   H12827064   7.608   6.298   5.930 -0.6670  1.1758 -1.1698
   29MOL   H12927065   7.622   6.125   5.953  0.0087 -1.1264 -0.7927
   29MOL   H13027066   7.480   6.073   5.770  0.2146 -1.0578  2.9569
   29MOL   H13127067   7.478   6.233   5.706 -1.1791 -1.0149 -0.1738
   29MOL   H13227068   7.365   6.250   5.971  0.2197 -1.3056  2.5169
   29MOL   H13327069   7.345   6.085   5.942 -0.5136  0.7826  0.5444
   29MOL   H13427070   7.238   6.312   5.775 -1.8669 -0.0285  1.3672
   29MOL   H13527071   7.232   6.149   5.712 -2.5098  2.7380 -1.3378
   29MOL   H13627072   7.068   6.106   5.893  1.0730 -0.9062 -1.0725
   29MOL   H13727073   7.018   6.244   5.800 -1.4196  1.2203  0.8628
   29MOL   H13827074   7.024   6.569   6.102  2.8416  1.3576 -1.2704
   29MOL   H13927075   7.022   6.431   6.205  2.0203 -1.9753  0.1712
   29MOL   H14027076   7.212   6.612   6.234 -1.3370 -2.0688  1.7973
   29MOL   H14127077   7.272   6.543   6.081  0.9136 -0.0965  0.1135
   29MOL   H14227078   7.400   6.415   6.260  0.2937  1.1877  0.1214
   29MOL   H14327079   7.280   6.318   6.184 -0.6734 -0.9936  0.7716
   29MOL   H14427080   7.292   6.309   6.451 -1.0119 -0.5435 -0.6238
   29MOL   H14527081   7.141   6.331   6.378  0.6909 -1.2170  0.6292
   29MOL   O14627082   7.097   6.544   6.522 -0.2236  0.0790 -0.1971
   29MOL   C14727083   7.062   6.625   6.632 -0.1894 -0.4642 -0.0463
   29MOL   C14827084   6.983   6.748   6.584  0.4522 -0.1139 -0.1890
   29MOL   C14927085   6.836   6.712   6.529  0.6374  0.5786 -0.0140
   29MOL   C15027086   6.774   6.834   6.460 -0.0715  0.0753 -0.3013
   29MOL   C15127087   6.739   6.955   6.549  0.0952 -0.5059 -0.3606
   29MOL   C15227088   6.662   7.056   6.462 -0.2691  0.4192  0.5329
   29MOL   C15327089   6.653   7.193   6.536 -1.2854  0.1361  0.2929
   29MOL   C15427090   6.564   7.300   6.465 -0.4913  0.1458 -0.0698
   29MOL   C15527091   6.606   7.331   6.320  0.3023 -0.6354  0.4878
   29MOL   C15627092   6.518   7.441   6.258  0.7845  0.1886 -0.1093
   29MOL   O15727093   6.562   7.567   6.307 -0.1720  0.1808  0.5879
   29MOL   C15827094   6.666   7.633   6.249 -0.1222  0.4402  1.3514
   29MOL   O15927095   6.719   7.608   6.143  0.1439  0.0999  0.3909
   29MOL   C16027096   6.712   7.755   6.332  0.4611  0.1210 -0.0896
   29MOL   C16127097   6.649   0.133   6.328  0.4479  0.0350 -0.0132
   29MOL   C16227098   6.495   0.135   6.316 -0.1844  0.6289 -0.4222
   29MOL   C16327099   6.444   0.284   6.312  0.9734 -0.6147  0.2915
   29MOL   C16427100   6.297   0.299   6.281  0.3665 -0.2348 -0.7489
   29MOL   O16527101   6.216   0.215   6.323 -0.3876 -0.4036  0.0795
   29MOL   H16627102   7.000   6.559   6.693  1.0064 -1.3162  0.2503
   29MOL   H16727103   7.154   6.657   6.679 -0.0653 -0.1350 -0.5098
   29MOL   H16827104   7.036   6.805   6.507 -2.0503  0.8082 -1.2822
   29MOL   H16927105   6.971   6.801   6.678 -0.2319  0.1730 -0.4343
   29MOL   H17027106   6.836   6.627   6.461 -2.3298  1.2389 -0.8828
   29MOL   H17127107   6.782   6.689   6.620 -1.4745  2.4971 -0.7399
   29MOL   H17227108   6.676   6.808   6.419 -0.3320  0.3386  0.1460
   29MOL   H17327109   6.840   6.871   6.381  0.6596 -0.2526  0.1556
   29MOL   H17427110   6.829   7.008   6.581 -1.4665  3.5812 -2.4774
   29MOL   H17527111   6.674   6.930   6.632  0.8931  0.4464  0.5722
   29MOL   H17627112   6.562   7.017   6.443 -0.2037  1.2066 -1.4777
   29MOL   H17727113   6.706   7.068   6.363  2.4660 -2.6065  1.2892
   29MOL   H17827114   6.752   7.237   6.545 -1.1909  0.4090 -1.7592
   29MOL   H17927115   6.613   7.170   6.635 -3.1369  1.4184 -0.1299
   29MOL   H18027116   6.550   7.388   6.528  0.0626  0.7044 -0.7166
   29MOL   H18127117   6.463   7.260   6.468 -0.2861 -0.3468  0.3633
   29MOL   H18227118   6.708   7.364   6.305 -0.0478  0.0502 -0.4239
   29MOL   H18327119   6.579   7.237   6.271 -4.6795  0.6290  0.5634
   29MOL   H18427120   6.419   7.413   6.294 -0.0220  0.2566 -2.1878
   29MOL   H18527121   6.510   7.444   6.149  1.0748  0.2048 -0.1300
   29MOL   H18627122   6.719   7.730   6.438  4.1434  0.7046 -0.1236
   29MOL   H18727123   6.819   0.004   6.320  0.6835 -2.7443 -1.6144
   29MOL   H18827124   6.695   0.189   6.246  1.3453  1.5389  1.4828
   29MOL   H18927125   6.673   0.194   6.415 -0.4038 -0.5599  0.6389
   29MOL   H19027126   6.444   0.082   6.397 -1.7226  1.1810 -0.9936
   29MOL   H19127127   6.461   0.081   6.227 -1.9241 -2.0066  1.7598
   29MOL   H19227128   6.507   0.335   6.240  2.8665 -1.4849  1.2820
   29MOL   H19327129   6.475   0.325   6.408 -0.2244  0.6932  0.1322
   29MOL   O19427130   6.261   0.417   6.222 -0.4453  0.1339 -0.1215
   29MOL   C19527131   6.130   0.434   6.175  0.2056 -0.8019  0.4696
   29MOL   C19627132   6.131   0.418   6.025  0.8996  0.5746  1.0480
   29MOL   C19727133   6.003   0.483   5.967 -0.3934 -0.4243  0.8806
   29MOL   C19827134   6.020   0.523   5.826  0.1468 -0.0256 -0.0379
   29MOL   C19927135   6.014   0.407   5.727 -0.1246 -0.3717  0.1494
   29MOL   C20027136   6.028   0.440   5.582 -0.0837 -0.1931 -0.2411
   29MOL   C20127137   5.934   0.555   5.524  0.1557  0.5556  0.5668
   29MOL   C20227138   5.951   0.576   5.372 -0.6207  0.5678 -0.2223
   29MOL   C20327139   5.885   0.701   5.315  0.5275 -0.6488  0.4061
   29MOL   C20427140   5.912   0.707   5.166  0.1792  0.2477  0.3995
   29MOL   O20527141   5.857   0.589   5.112  0.4475 -0.2114 -0.3066
   29MOL   C20627142   5.774   0.590   5.010 -0.0261  0.7347  0.5118
   29MOL   O20727143   5.736   0.685   4.944  0.1182 -0.1113  0.5967
   29MOL   C20827144   5.748   0.445   4.964  0.4089  0.5127  0.2735
   29MOL   C20927145   5.666   0.424   4.836 -0.7511 -0.4369 -0.2378
   29MOL   C21027146   5.652   0.278   4.794  0.4483  0.1644  0.3025
   29MOL   C21127147   5.614   0.180   4.910 -0.4348  0.3635 -0.4397
   29MOL   C21227148   5.593   0.034   4.861 -0.4093 -0.0956 -0.1446
   29MOL   O21327149   5.482   7.751   4.845  0.5446  0.7005  0.6164
   29MOL   H21427150   6.062   0.358   6.213 -1.3155  0.0158 -0.5646
   29MOL   H21527151   6.099   0.533   6.209 -1.6423 -1.6303  1.2998
   29MOL   H21627152   6.154   0.316   5.994 -1.3234  0.0620  0.9603
   29MOL   H21727153   6.221   0.471   5.996  1.2184 -0.0133  0.9643
   29MOL   H21827154   5.924   0.408   5.973  0.0398 -0.8416  1.4329
   29MOL   H21927155   5.972   0.568   6.028  0.8926  0.8499 -0.2213
   29MOL   H22027156   6.111   0.582   5.830 -1.0542  1.7995  0.5918
   29MOL   H22127157   5.945   0.587   5.780  0.6177  0.5588  0.0108
   29MOL   H22227158   5.917   0.359   5.738  0.7133 -2.1308  0.0037
   29MOL   H22327159   6.091   0.334   5.749  0.6197  0.1114 -0.8174
   29MOL   H22427160   6.013   0.348   5.525  0.0286  0.2367 -0.9711
   29MOL   H22527161   6.132   0.467   5.567 -0.1761  0.3538  0.0929
   29MOL   H22627162   5.947   0.649   5.577 -2.2679  1.1440  0.1762
   29MOL   H22727163   5.834   0.519   5.549  0.3857 -0.5130 -0.0141
   29MOL   H22827164   5.915   0.487   5.320  0.2792  0.0294  0.0596
   29MOL   H22927165   6.053   0.586   5.336 -0.7145 -0.1302 -0.6845
   29MOL   H23027166   5.779   0.706   5.341  0.1868 -0.9900 -0.8882
   29MOL   H23127167   5.925   0.790   5.363  1.8557  0.5858 -2.8296
   29MOL   H23227168   6.018   0.704   5.139 -0.0408 -3.2149 -0.2345
   29MOL   H23327169   5.862   0.794   5.124  0.9119  0.5185  0.0761
   29MOL   H23427170   5.840   0.387   4.956  0.7678  1.0307  0.6218
   29MOL   H23527171   5.704   0.397   5.051 -0.3692 -1.2010 -1.0351
   29MOL   H23627172   5.687   0.497   4.758 -1.5429  0.7293  0.6257
   29MOL   H23727173   5.571   0.461   4.874 -0.1059 -1.0447  2.0595
   29MOL   H23827174   5.742   0.245   4.742  0.8120  0.0679  0.9932
   29MOL   H23927175   5.570   0.267   4.723  1.2214  1.5871 -0.8222
   29MOL   H24027176   5.529   0.216   4.968  1.9259  1.8829  2.2068
   29MOL   H24127177   5.693   0.178   4.985 -1.2142  1.4837  0.4411
   29MOL   O24227178   5.707   7.736   4.838  0.0117 -0.5022  0.3620
   29MOL   C24327179   5.704   7.603   4.782 -0.2701 -0.7504  0.2220
   29MOL   C24427180   5.842   7.567   4.719 -0.2341  0.1227  0.2569
   29MOL   C24527181   5.957   7.566   4.824 -0.1448 -0.0734  0.3455
   29MOL   C24627182   6.097   7.522   4.783 -0.6442 -0.3526  0.8169
   29MOL   C24727183   6.177   7.490   4.906 -0.0169 -0.5461 -0.2553
   29MOL   C24827184   6.327   7.469   4.869  0.3629  0.1003  0.0290
   29MOL   C24927185   6.409   7.422   4.991  0.7403 -0.4953 -0.2160
   29MOL   C25027186   6.436   7.541   5.090  0.0786 -0.0336 -0.3092
   29MOL   C25127187   6.528   7.487   5.191  1.3100 -0.5031 -0.2359
   29MOL   C25227188   6.563   7.588   5.301 -0.1314  0.1738 -0.2910
   29MOL   O25327189   6.643   7.682   5.239  0.4088 -0.2975 -0.3046
   29MOL   C25427190   6.746   7.732   5.306 -0.4162 -0.2817  0.5188
   29MOL   O25527191   6.793   7.699   5.414 -0.5978 -0.3204  0.3959
   29MOL   C25627192   6.812   0.085   5.238  0.9231  0.2802 -0.0126
   29MOL   C25727193   6.734   0.217   5.261  0.0213  0.0438 -0.4681
   29MOL   C25827194   6.805   0.325   5.174 -0.1572  0.2133 -0.3246
   29MOL   C25927195   6.744   0.466   5.189 -0.0369  0.8485  0.1957
   29MOL   C26027196   6.800   0.576   5.095 -0.2090 -0.4109  0.3267
   29MOL   O26127197   6.802   0.692   5.121 -0.5047 -0.3443  0.6759
   29MOL   H26227198   5.692   7.527   4.859 -0.5213 -1.2747 -0.3281
   29MOL   H26327199   5.621   7.594   4.712  0.7147  0.3704 -1.1228
   29MOL   H26427200   5.871   7.636   4.639  3.6510 -0.0835  1.3873
   29MOL   H26527201   5.844   7.472   4.667 -3.0360  1.0727 -1.7352
   29MOL   H26627202   5.962   7.669   4.861 -1.9979  0.3408 -0.4947
   29MOL   H26727203   5.931   7.496   4.903 -0.4773 -3.7481 -2.8610
   29MOL   H26827204   6.151   7.590   4.716  0.2010 -1.4033  0.4087
   29MOL   H26927205   6.084   7.433   4.722 -0.3931  0.6416 -0.7269
   29MOL   H27027206   6.133   7.415   4.971 -0.2068  0.6405  1.0135
   29MOL   H27127207   6.174   7.580   4.967  1.2133 -0.5737 -0.1300
   29MOL   H27227208   6.378   7.557   4.830 -3.1136  0.5735 -3.7804
   29MOL   H27327209   6.327   7.399   4.785  1.4461  2.0796 -1.6572
   29MOL   H27427210   6.508   7.397   4.953  1.0257  0.4747 -0.1203
   29MOL   H27527211   6.379   7.325   5.031  2.6803 -1.1201 -0.2326
   29MOL   H27627212   6.351   7.584   5.143  0.2602 -1.8852  1.5050
   29MOL   H27727213   6.489   7.619   5.034  0.5230 -0.1728 -0.0802
   29MOL   H27827214   6.482   7.405   5.246 -1.5016  1.3058  0.2078
   29MOL   H27927215   6.621   7.457   5.144  1.4226  0.2193 -0.4854
   29MOL   H28027216   6.616   7.560   5.392  0.9510  1.8845 -0.3700
   29MOL   H28127217   6.477   7.643   5.339  0.3919  0.7971 -0.0050
   29MOL   H28227218   6.918   0.087   5.265  0.6603 -2.3786  1.4159
   29MOL   H28327219   6.809   0.060   5.132 -2.5996  2.0620 -0.3975
   29MOL   H28427220   6.732   0.250   5.365  0.4305 -0.5619 -0.2657
   29MOL   H28527221   6.632   0.211   5.225 -1.0859 -1.0033  2.6745
   29MOL   H28627222   6.798   0.297   5.069  0.8532  0.5182 -0.4806
   29MOL   H28727223   6.911   0.327   5.197  0.0533 -0.2093 -1.2239
   29MOL   H28827224   6.765   0.496   5.292  0.4059  1.4833 -0.0718
   29MOL   H28927225   6.636   0.453   5.185  0.1223 -0.1610 -0.9413
   29MOL   O29027226   6.856   0.527   4.984  0.2030  0.1442 -0.3797
   29MOL   C29127227   6.921   0.618   4.892  0.0074 -0.0030 -0.2677
   29MOL   C29227228   7.007   0.541   4.790 -0.5620 -0.0707  0.0608
   29MOL   C29327229   7.062   0.616   4.664 -0.5365 -0.1098  0.3156
   29MOL   C29427230   7.165   0.549   4.584 -0.2536 -0.1128  0.8243
   29MOL   C29527231   7.204   0.607   4.446  0.1710  0.0860 -0.5702
   29MOL   C29627232   7.333   0.543   4.394 -0.5490 -0.0078 -0.5138
   29MOL   C29727233   7.359   0.579   4.251 -1.0533  0.2785 -0.2237
   29MOL   C29827234   7.267   0.493   4.156 -0.7829 -0.1637 -0.5608
   29MOL   C29927235   7.317   0.504   4.012  0.3840  0.0602 -0.3393
   29MOL   C30027236   7.209   0.451   3.919  0.1823  0.4605  0.0880
   29MOL   O30127237   7.181   0.313   3.939 -0.3252  0.2760 -0.0284
   29MOL   C30227238   7.108   0.249   3.848 -0.1342 -0.0195  0.5899
   29MOL   O30327239   7.060   0.299   3.750  0.2473  0.1814  0.3195
   29MOL   C30427240   7.081   0.108   3.878  0.1458  0.6843  0.3336
   29MOL   C30527241   6.961   0.092   3.976 -0.5607  1.0214  0.6004
   29MOL   C30627242   6.926   7.706   4.019  0.1318 -0.1249  0.1095
   29MOL   C30727243   6.828   7.682   4.135 -0.4557  0.1748 -1.2785
   29MOL   C30827244   6.875   7.724   4.276 -0.5642  0.3684 -0.1596
   29MOL   O30927245   6.918   7.642   4.356  0.2577  0.3465 -0.0028
   29MOL   H31027246   6.848   0.678   4.837  1.7486 -0.0758 -2.7394
   29MOL   H31127247   6.975   0.695   4.948 -0.8782  0.2572  0.2514
   29MOL   H31227248   6.960   0.463   4.730 -0.2576  0.4254 -0.8399
   29MOL   H31327249   7.091   0.495   4.843 -0.6946 -0.2736  0.0973
   29MOL   H31427250   6.968   0.614   4.608 -0.8665 -1.9028  0.9136
   29MOL   H31527251   7.090   0.720   4.680 -1.8267  0.4312 -0.7942
   29MOL   H31627252   7.135   0.444   4.573  0.4876 -0.4333  1.7545
   29MOL   H31727253   7.256   0.524   4.639  0.3337 -1.4582 -0.7226
   29MOL   H31827254   7.213   0.715   4.442 -2.1094  0.2386 -3.2265
   29MOL   H31927255   7.125   0.583   4.375  1.6022 -3.6255 -1.0587
   29MOL   H32027256   7.317   0.436   4.404  2.5621 -0.5482 -0.6155
   29MOL   H32127257   7.420   0.580   4.449  0.9972 -0.3933 -2.6239
   29MOL   H32227258   7.460   0.550   4.221 -0.8018  1.2413 -0.3135
   29MOL   H32327259   7.344   0.685   4.232  1.4316  0.7117  0.1396
   29MOL   H32427260   7.171   0.542   4.165  0.1174  1.2171  1.9137
   29MOL   H32527261   7.256   0.389   4.189  0.9636 -1.2045 -3.0472
   29MOL   H32627262   7.353   0.601   3.979  2.5918 -0.1532  1.2966
   29MOL   H32727263   7.413   0.453   3.998  0.7959  1.2840 -2.1988
   29MOL   H32827264   7.239   0.473   3.816 -1.3327 -3.0438 -1.1572
   29MOL   H32927265   7.115   0.505   3.928  0.6695  1.2581  0.4246
   29MOL   H33027266   7.063   0.048   3.788  2.4047 -0.5378  0.6504
   29MOL   H33127267   7.173   0.066   3.919  0.8805  1.8734 -0.0587
   29MOL   H33227268   6.875   0.141   3.930 -1.5876 -1.2751  0.0291
   29MOL   H33327269   6.982   0.148   4.067 -0.8980 -0.1988  1.4279
   29MOL   H33427270   7.025   7.673   4.052 -1.2585 -2.2955  2.2991
   29MOL   H33527271   6.902   7.646   3.931  0.2768  0.4038 -0.2933
   29MOL   H33627272   6.813   7.575   4.148  0.8934  0.1223 -0.0152
   29MOL   H33727273   6.722   7.701   4.119 -1.4989 -3.5201  0.6168
   29MOL   O33827274   6.853   0.089   4.301  0.1905 -0.4058  0.0823
   29MOL   C33927275   6.917   0.144   4.413  0.5181 -0.2856  0.4463
   29MOL   C34027276   6.870   0.291   4.447  0.1694 -0.9679  0.2055
   29MOL   C34127277   6.895   0.383   4.317 -0.7515 -0.2972  0.2512
   29MOL   C34227278   6.826   0.513   4.304 -0.6490 -0.2404  0.1238
   29MOL   C34327279   6.670   0.499   4.299  0.1252  0.0091  0.1344
   29MOL   C34427280   6.595   0.631   4.280 -0.4531 -0.2681 -0.7941
   29MOL   C34527281   6.446   0.615   4.259 -0.0398 -0.1789  0.0708
   29MOL   C34627282   6.381   0.752   4.243  0.4802 -0.4815  0.9505
   29MOL   C34727283   6.227   0.748   4.221 -0.3206 -0.2988 -0.0500
   29MOL   C34827284   6.144   0.876   4.254  0.1052 -0.1891  0.3176
   29MOL   O34927285   6.193   0.930   4.377 -0.7444  0.7426 -0.7975
   29MOL   C35027286   6.138   1.027   4.436  0.0476  0.1616 -0.5648
   29MOL   O35127287   6.021   1.061   4.429  0.5940 -0.0227 -0.0599
   29MOL   C35227288   6.242   1.096   4.521 -0.0709  0.0925 -0.1303
   29MOL   C35327289   6.355   1.165   4.444  0.0090  0.2305  0.7180
   29MOL   C35427290   6.315   1.262   4.333 -0.1453  0.0205  0.5756
   29MOL   C35527291   6.436   1.313   4.255 -0.3397  0.1969 -0.0799
   29MOL   C35627292   6.500   1.214   4.164  0.1144  0.4132 -0.2574
   29MOL   O35727293   6.443   1.106   4.150 -0.0204  0.7373 -0.1275
   29MOL   H35827294   6.899   0.093   4.508 -1.3182 -1.8678 -0.7318
   29MOL   H35927295   7.025   0.154   4.403  0.5494 -1.5887 -0.5074
   29MOL   H36027296   6.925   0.328   4.533  1.0466  1.6933 -1.4170
   29MOL   H36127297   6.769   0.302   4.484 -0.1926 -0.0787 -1.0209
   29MOL   H36227298   7.001   0.401   4.299 -0.2765 -2.7930  0.4332
   29MOL   H36327299   6.867   0.322   4.231  0.6120  0.0960 -0.4881
   29MOL   H36427300   6.851   0.552   4.205  0.3586 -2.8855 -0.6814
   29MOL   H36527301   6.854   0.578   4.387  1.0573 -0.3274 -0.3834
   29MOL   H36627302   6.634   0.443   4.385  1.4062 -0.5092  0.3445
   29MOL   H36727303   6.655   0.430   4.216 -1.8198  0.3840  0.1679
   29MOL   H36827304   6.646   0.692   4.205  0.2593 -2.4533 -2.1455
   29MOL   H36927305   6.603   0.693   4.369  1.8348 -0.0844 -1.1117
   29MOL   H37027306   6.400   0.564   4.345  0.1651 -1.1224 -0.3688
   29MOL   H37127307   6.425   0.562   4.166  2.3406 -1.7394  0.3906
   29MOL   H37227308   6.433   0.801   4.162 -0.6075 -1.8110 -0.5799
   29MOL   H37327309   6.411   0.809   4.331  2.1309 -0.9372  0.6844
   29MOL   H37427310   6.206   0.728   4.116  1.2754  0.7928 -0.5976
   29MOL   H37527311   6.189   0.667   4.283 -1.4755 -0.4518 -0.9490
   29MOL   H37627312   6.037   0.863   4.270 -0.5600 -0.5739 -3.7486
   29MOL   H37727313   6.147   0.944   4.168 -0.4498  0.4349  0.7835
   29MOL   H37827314   6.196   1.176   4.578 -1.7348 -1.3684  0.6221
   29MOL   H37927315   6.269   1.021   4.595  0.7388 -0.8848 -1.4008
   29MOL   H38027316   6.424   1.092   4.401  1.1717  0.3927  2.2661
   29MOL   H38127317   6.426   1.211   4.513  0.8641 -1.4983  1.0132
   29MOL   H38227318   6.267   1.338   4.394  0.5250  2.5836 -1.9990
   29MOL   H38327319   6.240   1.228   4.262 -1.3310 -0.0841  1.8652
   29MOL   H38427320   6.509   1.360   4.321  0.5839  0.1338 -1.0426
   29MOL   H38527321   6.411   1.397   4.190  1.3437  1.5893  1.0427
   29MOL   O38627322   6.618   1.251   4.106  0.1410  0.0484  0.2057
   29MOL   C38727323   6.676   1.177   3.999  0.9572 -0.9797 -1.1184
   29MOL   C38827324   6.807   1.239   3.960 -0.3154  0.2904 -0.0381
   29MOL   C38927325   6.781   1.367   3.873 -0.2438 -0.8192 -0.0107
   29MOL   C39027326   6.901   1.469   3.860  0.2080 -0.8452 -0.1663
   29MOL   C39127327   6.858   1.576   3.766 -0.0915  0.1449  0.2923
   29MOL   C39227328   6.943   1.697   3.780  0.3029 -0.1066 -0.0088
   29MOL   C39327329   6.905   1.796   3.671  0.6943  0.5883 -0.6091
   29MOL   C39427330   6.957   1.939   3.688 -0.9056  0.5088  0.7216
   29MOL   C39527331   6.898   2.034   3.579  0.2902  0.7769  0.1713
   29MOL   C39627332   6.954   2.183   3.576 -0.0432  0.3083 -1.1912
   29MOL   O39727333   6.933   2.227   3.443  0.3982 -0.3266  0.3113
   29MOL   C39827334   6.979   2.347   3.400  0.5898  1.0096  0.4572
   29MOL   O39927335   7.029   2.437   3.468  0.8137 -0.5712  0.2371
   29MOL   C40027336   6.955   2.365   3.249  0.5811  0.1558 -0.3310
   29MOL   C40127337   7.006   2.246   3.172  0.0056  0.0856  0.7375
   29MOL   C40227338   7.019   2.265   3.015  0.4820  0.3600 -0.5605
   29MOL   C40327339   7.001   2.130   2.942 -0.3834  0.4725  0.2563
   29MOL   C40427340   7.029   2.144   2.792 -0.0697  0.4764  0.2129
   29MOL   O40527341   6.940   2.165   2.710 -0.1272  0.3674  0.3548
   29MOL   H40627342   6.695   1.074   4.027  3.9212 -0.3435 -0.6217
   29MOL   H40727343   6.606   1.168   3.915 -0.4965  1.9158 -0.2952
   29MOL   H40827344   6.869   1.171   3.902 -2.4899 -1.3426 -0.5558
   29MOL   H40927345   6.858   1.261   4.054 -0.4451  0.3904  0.0097
   29MOL   H41027346   6.745   1.334   3.776 -1.0254 -0.4607  0.1558
   29MOL   H41127347   6.700   1.423   3.920  0.6695  1.1216 -0.7157
   29MOL   H41227348   6.991   1.418   3.826 -0.2107 -0.1630 -2.3734
   29MOL   H41327349   6.919   1.513   3.959  1.1051 -2.8592  0.5894
   29MOL   H41427350   6.754   1.607   3.777 -1.2201 -3.3426 -0.1721
   29MOL   H41527351   6.869   1.549   3.661  2.5438  1.2732  0.2319
   29MOL   H41627352   7.049   1.678   3.766  0.4708  0.4772  0.4518
   29MOL   H41727353   6.949   1.749   3.876 -1.0445 -0.4887  0.3003
   29MOL   H41827354   6.796   1.806   3.672  0.4099 -2.2041 -1.0843
   29MOL   H41927355   6.923   1.751   3.573 -0.0567  1.1564 -1.0236
   29MOL   H42027356   7.065   1.947   3.677 -0.9226 -0.5411 -0.2811
   29MOL   H42127357   6.935   1.978   3.787 -0.9820  2.2799  0.0292
   29MOL   H42227358   6.929   1.986   3.486  0.6931 -0.0783  0.7420
   29MOL   H42327359   6.790   2.016   3.577  0.5925 -1.1577  0.1927
   29MOL   H42427360   7.060   2.203   3.590  0.3468 -1.3726 -1.6216
   29MOL   H42527361   6.898   2.246   3.645  1.3835 -1.5063  1.7133
   29MOL   H42627362   6.848   2.385   3.241  0.7329  1.6411  1.1145
   29MOL   H42727363   7.004   2.461   3.232  0.1665  0.7772  1.7807
   29MOL   H42827364   6.938   2.162   3.185  0.6965 -0.5564  0.2460
   29MOL   H42927365   7.100   2.213   3.218  1.4532  1.5137 -1.1146
   29MOL   H43027366   7.117   2.311   3.002  0.8912 -0.3209  0.0687
   29MOL   H43127367   6.935   2.326   2.984  1.8922  2.3140 -0.5803
   29MOL   H43227368   6.899   2.094   2.955 -0.2613  0.7408  1.9690
   29MOL   H43327369   7.080   2.063   2.978  0.8624  2.4537  1.2720
   29MOL   O43427370   7.160   2.110   2.756 -0.6734 -0.1468  0.2496
   29MOL   C43527371   7.203   2.127   2.624  0.3414  0.3670  0.2024
   29MOL   C43627372   7.246   2.270   2.598  0.9086  0.6180  0.2995
   29MOL   C43727373   7.356   2.307   2.701  0.1661  0.0002  0.9167
   29MOL   C43827374   7.387   2.452   2.694 -0.0573  0.6172 -0.5710
   29MOL   C43927375   7.495   2.490   2.803  0.3244 -0.5278 -0.5949
   29MOL   C44027376   7.452   2.490   2.954 -0.2797  0.3381  0.5017
   29MOL   C44127377   7.350   2.593   2.993  0.6758 -0.4071 -0.3372
   29MOL   C44227378   7.311   2.588   3.141  0.8369 -0.1273  0.2288
   29MOL   C44327379   7.209   2.696   3.177  0.9319 -0.2184  0.0572
   29MOL   C44427380   7.193   2.706   3.330 -0.0581 -0.2829  0.2539
   29MOL   O44527381   7.069   2.762   3.374 -0.3329 -0.0630 -0.7771
   29MOL   C44627382   7.058   2.791   3.503 -0.3911 -0.1445 -0.1354
   29MOL   O44727383   7.153   2.790   3.579  0.3514  0.0652 -0.6345
   29MOL   C44827384   6.921   2.824   3.557 -0.5892 -0.4885 -0.3257
   29MOL   C44927385   6.807   2.806   3.460  0.2158 -0.2244  0.1554
   29MOL   C45027386   6.770   2.662   3.424  0.4171  0.2875 -0.8955
   29MOL   C45127387   6.637   2.652   3.349 -0.5580  0.4559 -0.1399
   29MOL   C45227388   6.648   2.626   3.198  0.0917 -0.0539 -0.1844
   29MOL   O45327389   6.658   2.515   3.144 -0.2272 -0.0149  0.6859
   29MOL   H45427390   7.283   2.058   2.596  0.2740 -0.6841  2.4962
   29MOL   H45527391   7.118   2.098   2.562 -0.3218  0.6455  0.9735
   29MOL   H45627392   7.157   2.329   2.620 -0.5889 -1.2790 -0.5252
   29MOL   H45727393   7.266   2.301   2.496 -3.0819  0.7748 -0.5034
   29MOL   H45827394   7.318   2.286   2.801  3.6448 -0.1725  2.2615
   29MOL   H45927395   7.441   2.249   2.666  0.3430  0.7251  0.1238
   29MOL   H46027396   7.302   2.519   2.694  0.0633  0.8217  1.5351
   29MOL   H46127397   7.440   2.462   2.600 -0.0509  0.6294 -0.5657
   29MOL   H46227398   7.521   2.591   2.773 -0.9025  0.0303  0.1759
   29MOL   H46327399   7.575   2.417   2.789 -0.2980 -1.4064  0.3249
   29MOL   H46427400   7.542   2.505   3.013  0.8525 -0.7246 -0.9204
   29MOL   H46527401   7.409   2.391   2.972 -0.9230  0.4196 -0.5164
   29MOL   H46627402   7.258   2.575   2.937 -0.3679 -2.1166  1.8420
   29MOL   H46727403   7.389   2.693   2.976 -0.6939  0.2049  0.0857
   29MOL   H46827404   7.401   2.600   3.202 -0.2031 -2.2735  2.2802
   29MOL   H46927405   7.283   2.486   3.165 -0.6528 -0.0709 -1.2349
   29MOL   H47027406   7.228   2.796   3.140 -1.8346 -0.1468 -1.2264
   29MOL   H47127407   7.120   2.656   3.129  0.4763  0.0460  0.6839
   29MOL   H47227408   7.280   2.750   3.380 -0.3290  1.2672 -0.6052
   29MOL   H47327409   7.185   2.606   3.371 -0.6185  0.1811  1.2970
   29MOL   H47427410   6.907   2.764   3.647  1.7846 -0.1407  0.3172
   29MOL   H47527411   6.929   2.933   3.562 -0.2179 -0.3437 -3.1722
   29MOL   H47627412   6.808   2.867   3.369 -3.3656  2.6627  1.9012
   29MOL   H47727413   6.723   2.854   3.511  0.4149  1.0961 -0.7218
   29MOL   H47827414   6.753   2.603   3.513 -3.0083  0.9381 -1.0694
   29MOL   H47927415   6.849   2.607   3.372 -0.4045 -1.9069  0.1476
   29MOL   H48027416   6.569   2.737   3.364 -1.3064 -0.0994 -0.3521
   29MOL   H48127417   6.583   2.571   3.398  0.5064 -0.3430 -0.2866
   29MOL   O48227418   6.680   2.741   3.128  0.2598 -0.1285 -0.2600
   29MOL   C48327419   6.698   2.742   2.985  0.3767 -0.3759 -0.2364
   29MOL   C48427420   6.840   2.796   2.954 -0.6597  0.5008  0.0094
   29MOL   C48527421   6.842   2.945   2.966 -0.2616  0.9242 -0.7132
   29MOL   C48627422   6.980   3.002   2.930 -0.8293  0.6577  0.1463
   29MOL   C48727423   6.982   3.155   2.906 -0.2963 -0.0613 -0.2952
   29MOL   C48827424   7.120   3.219   2.884 -0.6509  0.4486 -0.5522
   29MOL   C48927425   7.161   3.219   2.737  0.6314  0.2235  0.7162
   29MOL   C49027426   7.314   3.221   2.699  0.0308 -0.0674 -0.3082
   29MOL   C49127427   7.390   3.340   2.751 -0.4775 -0.9207  0.6028
   29MOL   C49227428   7.524   3.357   2.691  0.4867  0.2436  0.2524
   29MOL   O49327429   7.609   3.247   2.721 -0.4994  0.3148 -0.0999
   29MOL   C49427430   7.722   3.222   2.658  0.1962 -0.0657 -0.0906
   29MOL   O49527431   0.010   3.295   2.572  0.3220 -0.1025  0.2923
   29MOL   C49627432   0.010   3.083   2.686 -0.0469  0.7148 -0.6581
   29MOL   C49727433   7.764   3.039   2.831 -0.7196 -0.1114  0.0014
   29MOL   C49827434   7.629   2.987   2.875 -0.1420 -0.7638 -0.3157
   29MOL   C49927435   7.632   2.930   3.014 -0.4107  0.1353 -0.0159
   29MOL   C50027436   7.711   2.800   3.040  0.5040 -0.3598 -0.7298
   29MOL   O50127437   7.745   2.725   2.946  0.6381  0.2378 -0.3433
   29MOL   H50227438   6.695   2.641   2.943  2.2506  0.2375 -1.8912
   29MOL   H50327439   6.621   2.805   2.942 -0.2806 -0.6100  0.5751
   29MOL   H50427440   6.863   2.773   2.850 -1.2212  1.5712 -0.3545
   29MOL   H50527441   6.920   2.747   3.009  0.5999  1.5246 -0.8755
   29MOL   H50627442   6.762   2.994   2.911 -0.5478  1.2278 -0.0347
   29MOL   H50727443   6.838   2.980   3.069  2.6888  0.3075 -0.3320
   29MOL   H50827444   7.018   2.960   2.837  1.7431 -1.0257  1.8693
   29MOL   H50927445   7.053   2.964   3.002 -0.1295  0.9418 -0.4025
   29MOL   H51027446   6.938   3.200   2.995 -0.7520 -0.4192 -0.3377
   29MOL   H51127447   6.906   3.173   2.830  0.6666  1.5748 -0.8876
   29MOL   H51227448   7.187   3.159   2.946 -1.6098 -0.3913 -0.3197
   29MOL   H51327449   7.126   3.317   2.932 -1.9998 -0.4443  1.5546
   29MOL   H51427450   7.100   3.294   2.686 -0.4328 -0.5443  0.8462
   29MOL   H51527451   7.118   3.128   2.695  2.5014 -0.3398 -0.0434
   29MOL   H51627452   7.317   3.217   2.590 -0.0934  0.0729 -0.3174
   29MOL   H51727453   7.364   3.131   2.734 -0.8716  0.3086  2.0542
   29MOL   H51827454   7.335   3.432   2.731 -0.7406 -1.1969  0.0406
   29MOL   H51927455   7.392   3.338   2.860  0.7379 -1.1714  0.5797
   29MOL   H52027456   7.568   3.449   2.731 -0.1642  0.3745  0.6790
   29MOL   H52127457   7.520   3.375   2.584 -1.5597  0.2753  0.3183
   29MOL   H52227458   7.724   3.014   2.620 -0.3152  0.0283  0.2629
   29MOL   H52327459   0.117   3.088   2.667  0.5767  2.3052  2.8136
   29MOL   H52427460   0.028   3.111   2.907  1.1170  1.1798 -1.8407
   29MOL   H52527461   0.071   2.957   2.841  1.1786  1.5278  0.1743
   29MOL   H52627462   7.590   2.908   2.812 -0.7312 -0.5997 -0.1612
   29MOL   H52727463   7.557   3.069   2.876  3.4992  2.6248  0.1497
   29MOL   H52827464   7.530   2.904   3.043 -1.1173  2.6384 -0.1917
   29MOL   H52927465   7.664   3.003   3.088 -0.2779  1.7943 -1.6622
   29MOL   O53027466   7.733   2.783   3.173  0.1955 -0.3906 -0.1581
   29MOL   C53127467   0.055   2.678   3.211  0.4828  0.1329 -0.2766
   29MOL   C53227468   7.736   2.587   3.293  0.4789  0.6579 -0.6260
   29MOL   C53327469   7.643   2.650   3.402 -0.1456  0.4316 -0.3004
   29MOL   C53427470   7.575   2.534   3.466  0.4793  0.6285 -0.5391
   29MOL   C53527471   7.467   2.568   3.572 -0.0820  0.1840 -0.3023
   29MOL   C53627472   7.354   2.460   3.601  0.8252  0.3861 -0.0315
   29MOL   C53727473   7.421   2.348   3.678  0.2438 -0.0401  0.2363
   29MOL   C53827474   7.328   2.234   3.727 -0.6483  0.5071 -0.1345
   29MOL   C53927475   7.231   2.276   3.841 -0.1722 -0.2131 -0.4175
   29MOL   C54027476   7.166   2.162   3.913  0.1463  0.3301 -0.2519
   29MOL   O54127477   7.239   2.093   4.016 -1.0739 -0.1336  0.1180
   29MOL   C54227478   7.236   1.959   4.029 -0.0785  0.4330 -0.1791
   29MOL   O54327479   7.175   1.886   3.950 -0.3741  0.2465  1.2266
   29MOL   C54427480   7.299   1.912   4.157  0.3209 -0.3364  0.0827
   29MOL   C54527481   7.443   1.863   4.134  0.5422 -0.0051 -0.3425
   29MOL   C54627482   7.515   1.848   4.268  0.4964 -0.3382 -0.4292
   29MOL   C54727483   7.661   1.808   4.264  0.2152  1.3264  0.8862
   29MOL   C54827484   7.729   1.835   4.397 -0.4722 -0.0034 -0.2072
   29MOL   O54927485   7.668   1.852   4.497 -0.1367  0.0647 -0.0546
   29MOL   H55027486   0.098   2.623   3.127  0.3157  0.6740 -0.7217
   29MOL   H55127487   0.141   2.725   3.258 -1.4909  2.1161  1.4632
   29MOL   H55227488   0.031   2.513   3.346  0.9211  0.7779 -0.9561
   29MOL   H55327489   7.679   2.528   3.221  2.6519  0.1088 -1.9228
   29MOL   H55427490   7.698   2.703   3.480  4.0189 -1.4624 -1.8280
   29MOL   H55527491   7.572   2.717   3.353 -0.0986  1.4920  1.0412
   29MOL   H55627492   7.642   2.475   3.529  1.7621  0.6026 -1.9123
   29MOL   H55727493   7.537   2.473   3.384  1.1269 -2.7106  1.5440
   29MOL   H55827494   7.417   2.659   3.538  1.3686  1.7918  1.7527
   29MOL   H55927495   7.521   2.603   3.659 -0.1756 -0.4300  0.0014
   29MOL   H56027496   7.305   2.432   3.508 -0.0234  0.9389  0.2488
   29MOL   H56127497   7.280   2.517   3.656  0.3005  0.7085 -1.0517
   29MOL   H56227498   7.479   2.401   3.754  0.7737  0.8052 -0.7598
   29MOL   H56327499   7.500   2.299   3.621 -1.7471  0.3925 -2.9585
   29MOL   H56427500   7.377   2.141   3.755 -1.4649  0.9399  2.9445
   29MOL   H56527501   7.262   2.195   3.650 -3.5697 -0.8857  2.9359
   29MOL   H56627502   7.295   2.331   3.910 -0.1338 -0.9951  0.1726
   29MOL   H56727503   7.161   2.346   3.794 -0.4202 -0.0961  0.1183
   29MOL   H56827504   7.150   2.087   3.835  3.0447 -0.6627  0.0705
   29MOL   H56927505   7.071   2.201   3.949 -0.0490  1.0387 -1.4816
   29MOL   H57027506   7.297   1.992   4.231 -0.2457 -1.9566  1.8695
   29MOL   H57127507   7.246   1.826   4.198 -1.2352 -0.0070 -1.1730
   29MOL   H57227508   7.499   1.928   4.067 -0.7910  0.2083 -1.2490
   29MOL   H57327509   7.448   1.765   4.089 -1.0793 -0.5763  0.6871
   29MOL   H57427510   7.463   1.777   4.332  0.4488  0.1506  0.0777
   29MOL   H57527511   7.501   1.943   4.320 -0.1966 -1.1980  0.9781
   29MOL   H57627512   7.717   1.866   4.191 -2.6084  1.8195 -0.9547
   29MOL   H57727513   7.680   1.705   4.233  1.0754  1.1958  1.8220
   29MOL   O57827514   0.098   1.827   4.398 -0.3434  0.1918  0.9008
   29MOL   C57927515   0.165   1.849   4.519 -0.2688  0.0417 -0.0135
   29MOL   C58027516   0.278   1.940   4.481 -0.4454  0.1708 -0.3473
   29MOL   C58127517   0.372   1.956   4.604  0.1378 -0.3930  0.0494
   29MOL   C58227518   0.480   2.059   4.577  0.0418 -0.0866  0.1139
   29MOL   C58327519   0.568   2.083   4.706  0.8717  0.0208  0.4580
   29MOL   C58427520   0.539   2.215   4.780  0.1269 -1.1358  0.4250
   29MOL   C58527521   0.597   2.220   4.924  0.4832  0.0578  0.0896
   29MOL   C58627522   0.532   2.323   5.020  0.6080 -0.3980 -0.1422
   29MOL   C58727523   0.396   2.272   5.073  0.5081 -0.6654 -0.1254
   29MOL   C58827524   0.324   2.378   5.158  0.0353 -0.8048 -0.5515
   29MOL   O58927525   0.209   2.317   5.215 -0.2887 -0.5900 -0.7731
   29MOL   C59027526   0.083   2.363   5.200  0.0529  0.6764  0.2578
   29MOL   O59127527   0.046   2.462   5.135  0.4698 -0.5127 -0.4465
   29MOL   C59227528   7.748   2.284   5.285 -0.4004  0.4028  0.2941
   29MOL   C59327529   7.615   2.365   5.316  0.6361  0.5311  0.7106
   29MOL   C59427530   7.512   2.362   5.198 -0.1998 -0.6251 -0.2463
   29MOL   C59527531   7.409   2.473   5.207 -0.1493 -0.5034 -0.2187
   29MOL   C59627532   7.457   2.609   5.147 -0.7393  0.0458  0.2207
   29MOL   O59727533   7.454   2.713   5.213 -0.3026 -0.1740 -0.4575
   29MOL   H59827534   0.097   1.891   4.593  2.9849  0.0647  3.0868
   29MOL   H59927535   0.206   1.753   4.551  1.1684 -0.1832 -2.3812
   29MOL   H60027536   0.252   2.037   4.437 -3.2288 -0.2320  0.2871
   29MOL   H60127537   0.339   1.905   4.398  0.0863 -0.2082  0.2033
   29MOL   H60227538   0.301   1.989   4.681 -0.6267  0.2291 -0.9073
   29MOL   H60327539   0.427   1.863   4.620  0.0397 -0.4605 -0.0080
   29MOL   H60427540   0.439   2.157   4.553  1.6178  0.5711  0.0409
   29MOL   H60527541   0.556   2.031   4.504  0.4715 -0.7001  0.7844
   29MOL   H60627542   0.675   2.083   4.684  0.8881  1.3147  0.4844
   29MOL   H60727543   0.550   2.001   4.776  1.2774  0.2149  0.7878
   29MOL   H60827544   0.430   2.221   4.785  0.0322 -1.9043 -0.6222
   29MOL   H60927545   0.566   2.305   4.724  0.4854 -1.9136 -0.6505
   29MOL   H61027546   0.705   2.230   4.913  0.3183 -0.2139 -2.0796
   29MOL   H61127547   0.586   2.129   4.984  1.3255 -0.2522 -0.2104
   29MOL   H61227548   0.507   2.420   4.976  0.6717 -0.8368 -1.1719
   29MOL   H61327549   0.601   2.338   5.103 -2.4373  1.6552  2.1402
   29MOL   H61427550   0.334   2.266   4.984  0.5463  1.0608 -0.2738
   29MOL   H61527551   0.409   2.176   5.124 -2.3283 -0.7508  0.5842
   29MOL   H61627552   0.283   2.464   5.105 -0.0209 -0.9764 -0.7895
   29MOL   H61727553   0.391   2.428   5.228 -2.2974  1.2923  0.2640
   29MOL   H61827554   7.704   2.192   5.246  1.1890 -0.8673  1.4498
   29MOL   H61927555   0.028   2.257   5.380 -0.3475  0.7677  0.3706
   29MOL   H62027556   7.647   2.466   5.340  1.1577  0.9156 -1.4993
   29MOL   H62127557   7.567   2.329   5.407  0.0119 -0.6911 -0.0819
   29MOL   H62227558   7.465   2.265   5.209  1.0763 -1.0430  1.8180
   29MOL   H62327559   7.565   2.353   5.102  2.9391  0.7196  1.2693
   29MOL   H62427560   7.381   2.490   5.311  0.6647 -2.6130  0.3737
   29MOL   H62527561   7.310   2.447   5.171 -1.7627  1.6427  2.5406
   29MOL   O62627562   7.503   2.596   5.029 -0.4450 -0.1305  0.0511
   29MOL   C62727563   7.587   2.708   4.979  0.7594  0.7687  0.2205
   29MOL   C62827564   7.635   2.681   4.833  0.3759 -0.0813 -0.2062
   29MOL   C62927565   7.727   2.556   4.837  0.1304  0.1267  0.0029
   29MOL   C63027566   0.007   2.512   4.696  0.1567 -0.2161 -1.2317
   29MOL   C63127567   0.118   2.410   4.688 -0.2823  0.2672  0.3166
   29MOL   C63227568   0.096   2.288   4.777 -0.3021 -0.6400  0.1453
   29MOL   C63327569   7.736   2.206   4.741 -0.8793  0.3769  0.0151
   29MOL   C63427570   7.735   2.077   4.837  0.8461  0.2879  0.0216
   29MOL   C63527571   7.613   1.996   4.809 -0.0211 -0.2189 -0.4386
   29MOL   C63627572   7.618   1.868   4.888  0.0180  0.8100  0.2213
   29MOL   O63727573   7.627   1.884   5.027 -0.1466  0.2757  0.4512
   29MOL   C63827574   7.510   1.893   5.099 -0.2376 -0.3403 -0.2305
   29MOL   O63927575   7.393   1.871   5.064 -0.3973 -0.3739  0.0255
   29MOL   C64027576   7.545   1.936   5.234 -0.2049 -0.0086  0.0343
   29MOL   C64127577   7.441   1.898   5.339  0.4182 -0.6278 -0.1527
   29MOL   C64227578   7.495   1.929   5.477 -0.3508  0.6529  0.1065
   29MOL   C64327579   7.501   2.075   5.522 -0.1582 -0.9043 -0.7742
   29MOL   C64427580   7.601   2.100   5.634  0.4518  1.0537  0.0685
   29MOL   O64527581   7.712   2.135   5.600 -0.3443  0.3644  0.5249
   29MOL   H64627582   7.554   2.810   5.001 -0.7019  0.3428  0.0193
   29MOL   H64727583   7.674   2.696   5.044  1.3911 -3.2018 -1.2197
   29MOL   H64827584   7.698   2.768   4.813  1.1864  0.4370  4.1679
   29MOL   H64927585   7.561   2.675   4.753  0.7844  1.2833 -0.6996
   29MOL   H65027586   0.051   2.585   4.894  1.6861 -0.7143 -1.9536
   29MOL   H65127587   7.679   2.475   4.892  1.2388 -0.6901 -0.2234
   29MOL   H65227588   0.033   2.603   4.641 -0.7284  1.2644  0.7531
   29MOL   H65327589   7.687   2.477   4.637 -1.2742  2.1228 -0.6228
   29MOL   H65427590   0.210   2.461   4.718  0.8093 -0.7029 -1.2602
   29MOL   H65527591   0.135   2.387   4.582 -1.6253 -0.3603  0.2282
   29MOL   H65627592   0.095   2.329   4.878  3.5516  0.9608 -0.3972
   29MOL   H65727593   0.187   2.230   4.770  0.3109  0.4224 -0.9614
   29MOL   H65827594   7.733   2.166   4.639 -1.2474 -1.1600  0.6224
   29MOL   H65927595   7.639   2.252   4.759  0.1487  2.2640  0.8624
   29MOL   H66027596   7.735   2.121   4.936 -3.2292  1.8231 -0.5874
   29MOL   H66127597   0.062   2.018   4.837 -0.8991 -2.5259  0.1950
   29MOL   H66227598   7.528   2.057   4.840  0.0652 -0.5859  0.5514
   29MOL   H66327599   7.607   1.965   4.705  1.0451 -2.1808  0.0489
   29MOL   H66427600   7.699   1.799   4.864  0.2577  0.6048  1.5898
   29MOL   H66527601   7.522   1.824   4.862  0.4007  0.7808 -1.1836
   29MOL   H66627602   7.647   1.902   5.250  0.5722  1.6755 -1.1911
   29MOL   H66727603   7.561   2.043   5.237 -0.1991 -0.0140  0.1772
   29MOL   H66827604   7.431   1.790   5.341 -1.2902 -0.4570  1.5031
   29MOL   H66927605   7.340   1.935   5.324 -0.6973 -1.6461  4.1574
   29MOL   H67027606   7.594   1.883   5.473 -0.3132  0.4420  2.9375
   29MOL   H67127607   7.433   1.876   5.549 -1.2968  1.0709 -0.3993
   29MOL   H67227608   7.406   2.117   5.555  0.3002 -0.2433 -0.2700
   29MOL   H67327609   7.534   2.133   5.436 -1.7435 -2.7362 -2.6562
   29MOL   O67427610   7.565   2.051   5.749 -0.0489  0.1149 -0.4622
   29MOL   C67527611   7.638   2.063   5.868 -0.6194  0.6966  0.1765
   29MOL   C67627612   7.601   2.200   5.934  0.9749 -1.1872  0.4035
   29MOL   C67727613   7.712   2.249   6.043 -0.2262  0.8695 -0.0085
   29MOL   C67827614   7.693   2.386   6.101  0.7651  0.5163  0.2238
   29MOL   C67927615   0.047   2.438   6.180 -0.3609  0.8525  0.8293
   29MOL   C68027616   0.047   2.594   6.192  0.0167 -1.0160  0.1560
   29MOL   C68127617   0.169   2.658   6.252  0.0280  0.1685 -0.5617
   29MOL   C68227618   0.153   2.805   6.257 -0.5673  0.9568 -1.3963
   29MOL   C68327619   0.277   2.879   6.298  0.4826 -0.5940  0.3383
   29MOL   C68427620   0.272   3.036   6.272 -0.1722  0.7104 -0.1211
   29MOL   O68527621   0.184   3.090   6.364 -0.1821 -0.1826 -0.4233
   29MOL   C68627622   0.223   3.157   6.460  1.2523 -0.5333 -0.2658
   29MOL   O68727623   0.341   3.192   6.483 -0.1871 -0.4740 -0.2172
   29MOL   C68827624   0.115   3.198   6.553  0.6203 -0.1893 -0.1684
   29MOL   C68927625   0.077   3.090   6.660 -0.1917 -0.3289  1.0521
   29MOL   C69027626   0.024   2.955   6.594  0.5353 -0.5893  0.2171
   29MOL   C69127627   7.730   2.852   6.691 -0.2979 -0.1523  0.2592
   29MOL   C69227628   7.682   2.730   6.612  0.5488  0.1923  0.2676
   29MOL   O69327629   7.618   2.752   6.509 -0.3927  0.2385  0.5209
   29MOL   H69427630   7.607   1.973   5.921 -1.2558  0.7668 -0.0835
   29MOL   H69527631   7.743   2.070   5.837 -1.2203 -0.6583 -2.2926
   29MOL   H69627632   7.503   2.191   5.981 -0.6359  0.9075 -2.4101
   29MOL   H69727633   7.588   2.278   5.859 -1.4030  0.1554  2.1501
   29MOL   H69827634   7.713   2.179   6.127  0.5215 -0.1839 -0.8883
   29MOL   H69927635   0.044   2.252   5.993  0.6981  2.1794  1.8152
   29MOL   H70027636   7.613   2.381   6.175  1.4479  0.7858  0.9849
   29MOL   H70127637   7.671   2.448   6.014  0.2756 -0.4646 -0.3670
   29MOL   H70227638   0.134   2.410   6.122 -1.5997  0.4398 -0.8908
   29MOL   H70327639   0.054   2.400   6.282  2.8849 -2.9708 -0.7056
   29MOL   H70427640   7.729   2.619   6.258  1.2905  0.5095  1.1770
   29MOL   H70527641   0.031   2.634   6.092  3.5554 -1.3487 -0.5966
   29MOL   H70627642   0.260   2.627   6.200 -0.0302 -0.4334 -0.3085
   29MOL   H70727643   0.166   2.627   6.356  1.2451 -1.9342 -1.1266
   29MOL   H70827644   0.066   2.835   6.315  0.3404 -0.0839  0.5699
   29MOL   H70927645   0.123   2.835   6.157 -0.3228 -1.1773 -2.1341
   29MOL   H71027646   0.300   2.856   6.402 -0.9331 -1.8173  0.3978
   29MOL   H71127647   0.347   2.837   6.226 -3.7248 -0.3079 -4.2446
   29MOL   H71227648   0.233   3.055   6.172 -1.8098 -1.6428  0.0339
   29MOL   H71327649   0.373   3.077   6.284  0.4602 -1.0250  0.7641
   29MOL   H71427650   0.131   3.294   6.600 -0.2238 -0.7020  1.1826
   29MOL   H71527651   0.025   3.219   6.495  0.0023 -2.3988 -0.0583
   29MOL   H71627652   7.764   3.134   6.723 -0.5681  0.1617  0.2473
   29MOL   H71727653   0.163   3.067   6.722  0.2802 -1.9825 -0.1747
   29MOL   H71827654   0.103   2.909   6.536 -0.9091 -2.2822 -0.4779
   29MOL   H71927655   7.706   2.983   6.529  1.3420 -1.3216 -1.1331
   29MOL   H72027656   7.645   2.897   6.743  0.2811  0.7188  0.4537
   29MOL   H72127657   0.030   2.830   6.776  0.4688 -0.6545 -0.4455
   29MOL   O72227658   7.708   2.619   6.669 -0.0193  0.4210  0.1648
   29MOL   C72327659   7.682   2.501   6.599 -0.4703  0.6997  0.0296
   29MOL   C72427660   0.048   2.423   6.592 -0.3288  1.6357  0.1032
   29MOL   C72527661   0.086   2.356   6.726 -0.3827  0.5738  0.6538
   29MOL   C72627662   0.219   2.275   6.731  0.6049  0.5750 -0.0024
   29MOL   C72727663   0.236   2.203   6.864 -0.6456  0.0178  0.2121
   29MOL   C72827664   0.379   2.141   6.874  0.2159  0.6350 -0.1462
   29MOL   C72927665   0.419   2.043   6.764 -0.0314 -0.4558  1.3030
   29MOL   C73027666   0.569   1.991   6.763 -0.1677  0.1285  0.5151
   29MOL   C73127667   0.596   1.905   6.635  0.5037 -0.4765  0.7461
   29MOL   C73227668   0.635   1.980   6.504 -0.1440  0.1141  0.2114
   29MOL   O73327669   0.655   1.886   6.399 -0.8380  0.0632  0.1279
   29MOL   C73427670   0.737   1.913   6.302  0.1974  0.3316  0.1334
   29MOL   O73527671   0.791   2.024   6.285 -0.1342  0.0652  0.1683
   29MOL   C73627672   0.767   1.790   6.221  0.4143 -0.3700 -0.4285
   29MOL   C73727673   0.662   1.673   6.221  0.1619  0.2492 -0.3553
   29MOL   C73827674   0.525   1.708   6.154 -0.0277 -0.0703 -0.9190
   29MOL   C73927675   0.425   1.588   6.132  0.4711  0.7004 -0.0621
   29MOL   C74027676   0.469   1.495   6.013  1.2017 -0.3901  0.5264
   29MOL   O74127677   0.537   1.393   6.024 -0.0573  0.2851 -0.1432
   29MOL   H74227678   7.605   2.445   6.652 -0.9597  0.5950 -0.7797
   29MOL   H74327679   7.651   2.525   6.497  1.6349 -1.1987 -1.0861
   29MOL   H74427680   0.118   2.495   6.551 -0.6256  1.4164 -0.7883
   29MOL   H74527681   0.038   2.348   6.513 -0.8260  1.9503 -0.1315
   29MOL   H74627682   0.095   2.439   6.796 -0.6482  1.9764 -0.9411
   29MOL   H74727683   0.006   2.287   6.753 -0.1177  0.0915  0.2176
   29MOL   H74827684   0.310   2.331   6.705  1.0739 -0.7044 -1.1671
   29MOL   H74927685   0.210   2.200   6.653 -4.1670  1.3976 -0.3430
   29MOL   H75027686   0.164   2.122   6.879 -1.0216  0.7224  2.3613
   29MOL   H75127687   0.223   2.280   6.940 -1.8436  3.1902 -3.0517
   29MOL   H75227688   0.396   2.098   6.973 -1.2845  0.8152  0.2009
   29MOL   H75327689   0.444   2.229   6.878  0.0563  0.7349  0.4320
   29MOL   H75427690   0.392   2.091   6.670  2.4780  0.4006  0.9694
   29MOL   H75527691   0.365   1.949   6.760  0.0656 -0.4327 -1.4784
   29MOL   H75627692   0.574   1.922   6.848  0.8619  2.5145  2.4441
   29MOL   H75727693   0.646   2.066   6.771  0.2614 -0.4154  1.6685
   29MOL   H75827694   0.674   1.832   6.654  0.0401 -1.0833  0.3199
   29MOL   H75927695   0.509   1.850   6.599  0.7989 -0.0122 -0.6969
   29MOL   H76027696   0.723   2.039   6.530 -0.1934  1.5680 -2.7329
   29MOL   H76127697   0.553   2.041   6.467 -0.5398 -0.3164  0.3732
   29MOL   H76227698   0.793   1.811   6.117  0.0960 -1.2747 -0.6981
   29MOL   H76327699   0.865   1.751   6.249 -0.3556 -3.1019 -1.3377
   29MOL   H76427700   0.636   1.645   6.323  0.7132  0.1978 -0.2276
   29MOL   H76527701   0.688   1.574   6.185 -1.5013 -0.4248  0.2374
   29MOL   H76627702   0.543   1.751   6.056 -2.6429  0.4984 -1.1764
   29MOL   H76727703   0.482   1.790   6.212  2.1990  1.8328 -1.8823
   29MOL   H76827704   0.330   1.629   6.099  0.4629 -0.4539 -1.5164
   29MOL   H76927705   0.424   1.519   6.216  2.0925  0.6090 -0.1014
   29MOL   O77027706   0.443   1.544   5.895  0.1298 -0.9263 -0.1243
   29MOL   C77127707   0.487   1.480   5.777  0.3379  0.9285  0.4862
   29MOL   C77227708   0.455   1.553   5.647 -0.1988  0.0550  0.3621
   29MOL   C77327709   0.550   1.510   5.535 -0.2087  0.2182 -0.3893
   29MOL   C77427710   0.550   1.602   5.413 -0.5579 -0.3991 -0.0981
   29MOL   C77527711   0.662   1.576   5.318  0.2469  0.1369 -0.4656
   29MOL   C77627712   0.651   1.680   5.200  0.3110 -0.3817  0.0589
   29MOL   C77727713   0.753   1.660   5.094  0.7921 -0.5430  0.3960
   29MOL   C77827714   0.708   1.705   4.954  0.8184  0.5625  0.0184
   29MOL   C77927715   0.677   1.592   4.860 -0.2108 -0.8555 -0.0202
   29MOL   C78027716   0.652   1.636   4.711 -0.7381 -0.0744 -0.2088
   29MOL   O78127717   0.766   1.700   4.657 -0.2871 -0.6054 -0.3991
   29MOL   C78227718   0.766   1.768   4.539  0.6551  0.0489  0.0130
   29MOL   O78327719   0.670   1.769   4.460 -0.0799 -0.1215  0.1409
   29MOL   C78427720   0.891   1.850   4.520 -0.2095 -0.1901  0.3386
   29MOL   C78527721   1.018   1.775   4.494 -0.2786  0.0429 -0.2632
   29MOL   C78627722   1.146   1.867   4.493 -0.0384 -0.1500 -0.2122
   29MOL   C78727723   1.166   1.970   4.376  0.2931 -0.6206 -0.6123
   29MOL   C78827724   1.269   2.075   4.408 -0.0670 -0.5959  0.3620
   29MOL   O78927725   1.346   2.060   4.505  0.4966 -0.0440 -0.0010
   29MOL   H79027726   0.595   1.466   5.787  0.1087 -0.5608  0.8806
   29MOL   H79127727   0.444   1.381   5.769 -1.4635  1.7058  0.1721
   29MOL   H79227728   0.448   1.659   5.670 -0.1766 -0.1902  1.5370
   29MOL   H79327729   0.352   1.525   5.622  0.8050 -1.4843 -2.1183
   29MOL   H79427730   0.651   1.498   5.574 -0.6244  0.2752  0.7360
   29MOL   H79527731   0.515   1.416   5.494 -1.8444  0.6558 -0.0163
   29MOL   H79627732   0.558   1.704   5.450  0.4878 -0.4683 -0.1275
   29MOL   H79727733   0.453   1.598   5.363 -0.8645  0.4790  0.4094
   29MOL   H79827734   0.661   1.473   5.284 -1.7479 -0.4273  1.2028
   29MOL   H79927735   0.751   1.597   5.377 -0.3089  2.2615 -0.3341
   29MOL   H80027736   0.643   1.778   5.246 -2.3321 -1.0908  1.2282
   29MOL   H80127737   0.551   1.664   5.158  0.5146  0.5881 -0.8227
   29MOL   H80227738   0.777   1.554   5.087 -2.8946 -1.5343  1.4759
   29MOL   H80327739   0.845   1.707   5.128  1.2059  0.8339 -2.4835
   29MOL   H80427740   0.791   1.754   4.904  0.8802  0.6454  0.2046
   29MOL   H80527741   0.628   1.777   4.968  0.1013 -0.5982  2.0735
   29MOL   H80627742   0.758   1.519   4.854 -1.3256 -2.2160  1.0308
   29MOL   H80727743   0.582   1.550   4.895 -0.1024 -0.8644  0.2619
   29MOL   H80827744   0.574   1.711   4.704 -1.6529 -1.0024 -0.0285
   29MOL   H80927745   0.634   1.547   4.651  0.1001  0.2431 -0.9375
   29MOL   H81027746   0.862   1.914   4.437  0.3114 -0.3298  0.0456
   29MOL   H81127747   0.908   1.919   4.604  2.0909 -0.4085  0.0828
   29MOL   H81227748   1.015   1.709   4.408  0.6405  1.0763 -1.0935
   29MOL   H81327749   1.023   1.701   4.575  0.7294  1.4578  1.0073
   29MOL   H81427750   1.231   1.798   4.492  0.1726  0.0308  2.6256
   29MOL   H81527751   1.139   1.925   4.585 -3.1317 -0.2452 -0.3375
   29MOL   H81627752   1.069   2.020   4.372 -0.0609 -0.9371  2.4067
   29MOL   H81727753   1.184   1.919   4.281  2.8091 -0.9109 -0.0082
   29MOL   O81827754   1.262   2.177   4.317 -0.5069  0.1690  0.3537
   29MOL   C81927755   1.353   2.286   4.310  0.4445  0.0540 -0.3461
   29MOL   C82027756   1.286   2.420   4.283  0.5438  0.1089  0.2116
   29MOL   C82127757   1.165   2.442   4.379 -0.0722 -0.2752  1.2566
   29MOL   C82227758   1.083   2.565   4.367  0.0790  0.5419  0.2883
   29MOL   C82327759   0.957   2.558   4.458 -0.0545  0.3044 -0.7289
   29MOL   C82427760   0.852   2.446   4.444 -0.2528 -0.6781  0.1090
   29MOL   C82527761   0.728   2.455   4.535 -0.2525  0.1633 -0.5479
   29MOL   C82627762   0.643   2.581   4.518 -0.1952 -0.0529 -0.0834
   29MOL   C82727763   0.499   2.569   4.564 -0.5071 -0.8385  0.2618
   29MOL   C82827764   0.404   2.679   4.517  0.2543 -0.6606 -0.0244
   29MOL   O82927765   0.455   2.808   4.553  0.0957  0.2564  0.4205
   29MOL   C83027766   0.518   2.890   4.466 -0.4335 -0.5925  0.3784
   29MOL   O83127767   0.525   2.883   4.342 -0.5418  0.1458 -0.1576
   29MOL   C83227768   0.588   2.999   4.538  0.1154 -0.4985  0.6992
   29MOL   C83327769   0.591   3.135   4.473 -0.1754  0.3470  0.6947
   29MOL   C83427770   0.666   3.241   4.558  0.1760  0.0157 -0.5728
   29MOL   C83527771   0.636   3.382   4.503 -0.5496 -0.9489 -0.0165
   29MOL   C83627772   0.703   3.418   4.372  0.3963 -0.3624  0.4285
   29MOL   O83727773   0.661   3.507   4.300 -0.2537 -0.5148 -0.3509
   29MOL   H83827774   1.390   2.289   4.413  0.5573  1.8241 -0.4156
   29MOL   H83927775   1.434   2.265   4.241  0.0391 -0.2304 -0.7390
   29MOL   H84027776   1.262   2.430   4.177  2.4846  0.5434 -0.2067
   29MOL   H84127777   1.356   2.500   4.310  1.9109 -1.7446  2.3930
   29MOL   H84227778   1.094   2.359   4.372  2.4316 -2.3615 -0.8018
   29MOL   H84327779   1.200   2.444   4.482  1.0692  0.1014  0.8621
   29MOL   H84427780   1.054   2.583   4.263 -1.0404  2.2371  0.8712
   29MOL   H84527781   1.141   2.655   4.387  1.7074 -0.3477 -0.3035
   29MOL   H84627782   0.898   2.649   4.444 -2.6238 -1.0719  0.8084
   29MOL   H84727783   0.987   2.566   4.563  2.2457  0.5507 -1.3798
   29MOL   H84827784   0.894   2.347   4.462  1.6126  0.3072  1.2633
   29MOL   H84927785   0.817   2.456   4.341 -0.1848  1.4580  0.2697
   29MOL   H85027786   0.759   2.451   4.640 -0.2874 -2.0834 -0.6122
   29MOL   H85127787   0.668   2.366   4.518 -0.4520  0.0338  0.7499
   29MOL   H85227788   0.658   2.621   4.417 -0.7899 -0.8696 -0.5009
   29MOL   H85327789   0.688   2.653   4.586  1.6368 -0.0325 -1.2683
   29MOL   H85427790   0.467   2.470   4.532  0.8754 -1.2894  0.2129
   29MOL   H85527791   0.504   2.560   4.672  0.0709 -0.2889  0.2871
   29MOL   H85627792   0.313   2.673   4.576 -0.2422 -0.2229 -0.7400
   29MOL   H85727793   0.389   2.676   4.409 -0.4746 -1.7417  0.0898
   29MOL   H85827794   0.557   3.002   4.643 -0.8519 -0.5756  0.4247
   29MOL   H85927795   0.692   2.968   4.546 -0.0426 -1.4608 -0.8338
   29MOL   H86027796   0.490   3.172   4.453  1.1949  3.4474 -0.8430
   29MOL   H86127797   0.642   3.131   4.376 -0.7575  0.8359  0.3612
   29MOL   H86227798   0.771   3.215   4.570 -0.1156 -0.7192  0.4046
   29MOL   H86327799   0.620   3.237   4.657  1.1866  2.8021  0.0553
   29MOL   H86427800   0.664   3.458   4.575  0.6588 -0.3346 -1.1101
   29MOL   H86527801   0.529   3.397   4.488 -0.8932 -1.3631  1.9244
   29MOL   O86627802   0.820   3.351   4.355  0.6060 -0.2523  0.0038
   29MOL   C86727803   0.892   3.378   4.237  0.5053 -0.0762 -0.2286
   29MOL   C86827804   0.933   3.245   4.159  0.1107  0.1248 -0.9435
   29MOL   C86927805   0.982   3.136   4.256 -0.2434 -0.0683  0.0175
   29MOL   C87027806   1.010   3.001   4.187 -0.4614  0.2678  0.2049
   29MOL   C87127807   0.881   2.924   4.174  0.6761  0.3177 -0.4693
   29MOL   C87227808   0.877   2.792   4.087 -0.5501 -0.2028  0.3328
   29MOL   C87327809   0.743   2.727   4.110 -0.9764  0.4762  0.1461
   29MOL   C87427810   0.629   2.791   4.021 -0.2371 -0.1632  0.0345
   29MOL   C87527811   0.515   2.700   3.984  0.7673 -0.0225 -0.7064
   29MOL   C87627812   0.412   2.669   4.092  0.2027  0.0788 -0.5602
   29MOL   O87727813   0.300   2.615   4.023 -0.4041 -0.4158  0.8907
   29MOL   C87827814   0.206   2.540   4.080 -0.2529  0.1291  0.0392
   29MOL   O87927815   0.191   2.527   4.203  0.1671 -0.2742 -0.4608
   29MOL   C88027816   0.101   2.488   3.980 -0.5710  0.0787  0.4497
   29MOL   C88127817   0.010   2.592   3.930 -0.1207  0.0101  0.2676
   29MOL   C88227818   7.689   2.647   4.047  0.0431  0.0001 -0.0725
   29MOL   C88327819   7.573   2.738   3.991 -0.8730 -0.3447  0.4184
   29MOL   C88427820   7.431   2.676   4.006  0.0958 -0.0688 -0.6449
   29MOL   O88527821   7.421   2.556   4.018  0.0546  0.4798 -0.0295
   29MOL   H88627822   0.853   3.451   4.166 -1.3280 -1.9475 -1.1621
   29MOL   H88727823   0.987   3.423   4.267 -0.3412  1.0482  0.8484
   29MOL   H88827824   1.004   3.273   4.081 -0.5819 -1.4434 -2.1534
   29MOL   H88927825   0.850   3.202   4.103 -1.2356 -0.1627  1.2323
   29MOL   H89027826   1.070   3.169   4.310 -0.2376 -1.4264  0.8567
   29MOL   H89127827   0.909   3.129   4.337  0.6657  1.1742  0.9629
   29MOL   H89227828   1.089   2.940   4.232 -2.0853 -1.5724  0.6343
   29MOL   H89327829   1.056   3.027   4.091  3.4154 -0.0549  1.8610
   29MOL   H89427830   0.813   2.995   4.126 -1.6476 -0.7031  1.1732
   29MOL   H89527831   0.835   2.921   4.273  0.8048  1.4058 -0.3671
   29MOL   H89627832   0.959   2.731   4.125  0.5058  0.7314 -0.4109
   29MOL   H89727833   0.902   2.809   3.982  1.7482 -3.3835  0.3076
   29MOL   H89827834   0.725   2.718   4.217 -0.4857 -0.0062  0.1864
   29MOL   H89927835   0.747   2.623   4.077 -0.5231  0.3566  0.5793
   29MOL   H90027836   0.676   2.830   3.930  1.4071 -2.2795 -0.0722
   29MOL   H90127837   0.592   2.882   4.067 -0.1252 -1.6112  3.1161
   29MOL   H90227838   0.468   2.745   3.896  1.3573 -1.4219 -1.7581
   29MOL   H90327839   0.554   2.606   3.945  0.1769  0.4347 -2.4448
   29MOL   H90427840   0.379   2.763   4.136  1.7791 -0.0668  1.0030
   29MOL   H90527841   0.459   2.603   4.166  0.0664 -1.1777 -1.5747
   29MOL   H90627842   0.156   2.434   3.903  1.2437 -0.0353  1.7896
   29MOL   H90727843   0.056   2.400   4.027  1.1651 -2.5030 -2.5127
   29MOL   H90827844   7.710   2.550   3.853  0.6354 -1.6108  0.5024
   29MOL   H90927845   0.052   2.678   3.876  0.5032 -0.0183  0.7010
   29MOL   H91027846   7.758   2.709   4.104 -0.0125  0.6619 -0.7198
   29MOL   H91127847   7.645   2.566   4.106  0.5866 -1.2398 -1.3480
   29MOL   H91227848   7.598   2.753   3.886  0.4326  0.9002  0.8948
   29MOL   H91327849   7.574   2.840   4.030  0.3612 -0.3000  0.2695
   29MOL   O91427850   7.330   2.758   4.011 -0.1165 -0.3996  0.0523
   29MOL   C91527851   7.201   2.709   4.041  0.8073 -0.5976  0.2159
   29MOL   C91627852   7.128   2.656   3.915  0.7765  0.5751  0.2542
   29MOL   C91727853   6.981   2.602   3.932 -0.1484 -0.4030 -0.6573
   29MOL   C91827854   6.979   2.505   4.052  0.0051  0.7917  0.2176
   29MOL   C91927855   6.852   2.425   4.065  0.9463  0.0611 -0.4216
   29MOL   C92027856   6.832   2.347   4.192 -0.1603 -0.3065  0.1666
   29MOL   C92127857   6.919   2.220   4.207  0.1217  0.3552 -0.1261
   29MOL   C92227858   6.877   2.141   4.327  0.0779 -0.1959 -0.1976
   29MOL   C92327859   6.960   2.013   4.350  0.6921  0.3636  0.9506
   29MOL   C92427860   6.943   1.955   4.490 -0.1653 -0.0472  0.1155
   29MOL   O92527861   7.042   1.856   4.524  0.4801 -0.4183  0.3223
   29MOL   C92627862   7.160   1.895   4.588  0.4633  0.1397  0.8417
   29MOL   O92727863   7.195   2.008   4.621 -0.3497  0.0707  0.4352
   29MOL   C92827864   7.258   1.778   4.600 -0.1672  0.2125 -0.7154
   29MOL   C92927865   7.274   1.730   4.746  0.6803 -0.0045  1.2690
   29MOL   C93027866   7.149   1.672   4.812 -0.0334  0.4592 -0.3991
   29MOL   C93127867   7.189   1.595   4.941 -0.0042  0.5581  0.1455
   29MOL   C93227868   7.232   1.448   4.923  0.4502  0.4282  0.5806
   29MOL   O93327869   7.177   1.377   4.840 -0.5915 -0.0361  0.1289
   29MOL   H93427870   7.216   2.627   4.111  2.3031  0.7896  1.5602
   29MOL   H93527871   7.154   2.800   4.077 -1.1748 -1.0591 -1.1142
   29MOL   H93627872   7.192   2.586   3.862  0.7857 -1.6858  3.1532
   29MOL   H93727873   7.104   2.737   3.845 -0.5698 -0.3200 -0.3530
   29MOL   H93827874   6.920   2.690   3.950 -0.8269 -1.0836  0.3928
   29MOL   H93927875   6.944   2.557   3.840  1.0230 -2.1390 -0.3092
   29MOL   H94027876   7.007   2.557   4.144  3.6853 -0.9463  0.1770
   29MOL   H94127877   7.061   2.433   4.046 -0.0115  0.7729  0.2105
   29MOL   H94227878   6.834   2.361   3.979 -2.2179 -1.5315  1.3317
   29MOL   H94327879   6.771   2.498   4.065 -0.6623 -1.6063  3.2719
   29MOL   H94427880   6.725   2.331   4.199 -0.3938  0.8401 -0.5991
   29MOL   H94527881   6.852   2.409   4.279  1.3939 -2.0379  1.0787
   29MOL   H94627882   7.021   2.254   4.221  0.9810 -1.3436 -2.0446
   29MOL   H94727883   6.919   2.156   4.118 -0.1654 -0.2413  0.2945
   29MOL   H94827884   6.769   2.136   4.336 -0.1494  1.9911 -1.2813
   29MOL   H94927885   6.894   2.205   4.414  1.9132  1.2208 -1.5521
   29MOL   H95027886   6.949   1.929   4.281  1.9543  1.2937 -0.3850
   29MOL   H95127887   7.065   2.036   4.332  0.0920  2.0958 -0.3744
   29MOL   H95227888   6.844   1.919   4.516 -0.1567 -1.0470 -1.1429
   29MOL   H95327889   6.960   2.028   4.569 -0.3999 -1.8048  1.8347
   29MOL   H95427890   7.232   1.695   4.534  0.3753 -0.4747 -0.0803
   29MOL   H95527891   7.352   1.815   4.561  0.3583  0.6273  0.9081
   29MOL   H95627892   7.308   1.818   4.800 -1.1997  2.4101 -1.3785
   29MOL   H95727893   7.357   1.658   4.746 -0.0132 -0.8127  1.9415
   29MOL   H95827894   7.104   1.593   4.752  0.8465 -0.7911  0.5550
   29MOL   H95927895   7.076   1.750   4.832 -0.0950 -0.0541  1.4805
   29MOL   H96027896   7.111   1.608   5.016  1.4943 -0.9711  2.0224
   29MOL   H96127897   7.279   1.645   4.976  1.1412 -0.7563 -0.8654
   29MOL   H96227898   7.318   1.415   4.980 -0.3405 -2.4507  0.2021
   30MOL     O127899   7.489   2.561   1.691  0.1218 -0.0010  0.3176
   30MOL     C227900   7.547   2.535   1.813 -0.0222 -0.1242  0.3860
   30MOL     C327901   7.443   2.546   1.923 -0.2870  0.1493 -0.6354
   30MOL     C427902   7.505   2.565   2.061 -0.4884  0.0311  0.4414
   30MOL     C527903   7.611   2.462   2.101 -0.0281 -0.7464 -0.3268
   30MOL     C627904   7.592   2.389   2.235 -0.1801  0.2836 -0.1099
   30MOL     C727905   7.699   2.284   2.267 -0.2479 -0.6478 -0.3553
   30MOL     C827906   7.690   2.235   2.404 -0.3551  0.3094 -0.3188
   30MOL     C927907   0.030   2.126   2.428 -0.2889  0.8905  0.1231
   30MOL    C1027908   0.023   2.078   2.577  0.3021  0.1798 -0.5407
   30MOL    C1127909   7.668   1.987   2.603  0.6559  0.6426  0.2557
   30MOL    O1227910   7.642   1.975   2.740  0.6491  0.1301  0.0006
   30MOL    C1327911   7.538   1.901   2.779 -0.4388 -0.2711  0.2824
   30MOL    O1427912   7.461   1.836   2.703 -0.5074  0.1595  0.1890
   30MOL    C1527913   7.532   1.899   2.932  0.7966  0.6212 -0.5230
   30MOL    C1627914   7.430   1.806   3.004  1.0451  0.1679  0.0550
   30MOL    C1727915   7.289   1.854   2.982  0.0281 -0.9765 -1.2441
   30MOL    C1827916   7.182   1.745   3.010 -0.6283 -0.7826 -0.4108
   30MOL    C1927917   7.053   1.783   2.940 -1.4220 -0.3064 -0.0305
   30MOL    O2027918   6.966   1.843   3.000 -0.0321  0.0245 -0.0495
   30MOL    H2127919   7.597   2.438   1.813 -1.4210 -0.8686  1.5450
   30MOL    H2227920   7.637   2.595   1.828 -0.0400  0.5509 -1.9043
   30MOL    H2327921   7.384   2.455   1.929 -2.0329  1.2957 -0.1697
   30MOL    H2427922   7.377   2.631   1.909 -1.3155 -0.6678 -0.8705
   30MOL    H2527923   7.542   2.667   2.069 -0.2226 -0.1733  1.9776
   30MOL    H2627924   7.421   2.566   2.131 -1.0882  0.2841 -0.2790
   30MOL    H2727925   7.709   2.509   2.088 -1.0756  2.0272  1.3452
   30MOL    H2827926   7.627   2.384   2.026  0.4863 -1.6768  0.7387
   30MOL    H2927927   7.498   2.336   2.244  0.7147 -0.9230  2.7926
   30MOL    H3027928   7.598   2.463   2.316  2.0330  0.6778 -0.5789
   30MOL    H3127929   0.033   2.316   2.233 -0.0541  0.8141  1.4680
   30MOL    H3227930   7.684   2.196   2.204  2.0165 -0.8026 -0.7279
   30MOL    H3327931   7.593   2.191   2.426 -0.0406 -1.5662 -2.5512
   30MOL    H3427932   7.710   2.321   2.468  0.3782  0.7077 -1.0788
   30MOL    H3527933   0.127   2.162   2.396 -0.2785  1.8988  1.2326
   30MOL    H3627934   0.023   2.034   2.372 -1.6819  0.3779  1.0880
   30MOL    H3727935   0.119   2.033   2.603 -1.4441 -3.3558  0.0451
   30MOL    H3827936   0.017   2.163   2.644  0.7998 -1.1092  1.1556
   30MOL    H3927937   7.682   1.884   2.569 -0.7367  0.3645  0.4951
   30MOL    H4027938   7.580   2.039   2.564  0.9807  1.5710  0.7477
   30MOL    H4127939   7.631   1.872   2.967  0.6893  1.1136  0.1542
   30MOL    H4227940   7.517   2.001   2.965 -1.5930 -0.2120  1.0690
   30MOL    H4327941   7.458   1.808   3.110  2.1568  0.7444 -0.2329
   30MOL    H4427942   7.447   1.702   2.976 -0.5804  0.1534 -0.9447
   30MOL    H4527943   7.280   1.895   2.881 -1.4141 -0.5246 -0.9493
   30MOL    H4627944   7.265   1.944   3.038  0.6169 -1.1622 -0.6964
   30MOL    H4727945   7.158   1.739   3.116 -0.0175  2.0702 -0.0783
   30MOL    H4827946   7.210   1.642   2.988 -1.6779 -0.7717 -1.8818
   30MOL    H4927947   7.459   2.478   1.656  1.6318  0.2524 -1.5943
   30MOL    O5027948   7.046   1.733   2.811  0.7525  0.7716 -0.2183
   30MOL    C5127949   6.925   1.748   2.740 -0.6623  0.0009  0.5329
   30MOL    C5227950   6.958   1.729   2.588 -0.0094 -0.2930  0.3856
   30MOL    C5327951   6.832   1.738   2.499 -0.2631  0.6550 -0.3594
   30MOL    C5427952   6.854   1.673   2.360 -0.5915  0.0284  0.1111
   30MOL    C5527953   6.735   1.708   2.267  0.2590 -0.1709  0.5005
   30MOL    C5627954   6.606   1.648   2.328  0.7102 -0.6240  0.3347
   30MOL    C5727955   6.496   1.643   2.224 -0.0348 -0.1862  0.4010
   30MOL    C5827956   6.380   1.561   2.273 -0.4221  0.3786  0.3690
   30MOL    C5927957   6.269   1.556   2.169 -0.0194 -0.2330  0.3942
   30MOL    C6027958   6.139   1.476   2.205  0.3373  0.6803  0.1898
   30MOL    O6127959   6.101   1.523   2.333  0.5677 -0.2943 -0.3482
   30MOL    C6227960   5.970   1.534   2.360 -0.0830  0.2322  0.3425
   30MOL    O6327961   5.875   1.496   2.289 -0.1787 -0.5980 -0.4852
   30MOL    C6427962   5.952   1.609   2.494 -0.0673  0.2634  0.4727
   30MOL    C6527963   5.978   1.755   2.474 -0.6740 -0.2824  0.0016
   30MOL    C6627964   6.117   1.806   2.515 -0.2362  0.1058  0.2793
   30MOL    C6727965   6.136   1.937   2.445  1.0515 -0.1420 -0.3157
   30MOL    C6827966   6.277   1.987   2.439  0.7113  0.2221  0.4642
   30MOL    O6927967   6.375   1.918   2.397 -0.1368 -0.3558  0.1759
   30MOL    H7027968   6.862   1.672   2.787 -0.5645 -0.0866  0.5227
   30MOL    H7127969   6.893   1.850   2.762 -2.5341 -0.4622 -0.0002
   30MOL    H7227970   7.016   1.637   2.583  1.6294  0.5783  2.0965
   30MOL    H7327971   7.028   1.802   2.546 -1.7135  0.9314 -0.3562
   30MOL    H7427972   6.764   1.673   2.553  1.9094 -0.4543  1.1105
   30MOL    H7527973   6.793   1.840   2.497  1.2550  1.2253 -2.1748
   30MOL    H7627974   6.869   1.565   2.367  0.9884  0.2075 -0.3107
   30MOL    H7727975   6.949   1.710   2.322 -0.4190 -1.4051 -0.9112
   30MOL    H7827976   6.749   1.686   2.161  1.1380  0.9861  0.3598
   30MOL    H7927977   6.725   1.816   2.266  0.9896 -0.0857  1.6462
   30MOL    H8027978   6.574   1.697   2.420 -0.5205 -2.8032  1.1103
   30MOL    H8127979   6.619   1.543   2.352  0.3736 -1.1497 -1.7105
   30MOL    H8227980   6.535   1.608   2.128 -2.2227 -0.6413 -0.3614
   30MOL    H8327981   6.447   1.738   2.203  0.1757 -0.2083 -0.2141
   30MOL    H8427982   6.339   1.606   2.364  2.1810  1.2330  1.1759
   30MOL    H8527983   6.426   1.464   2.285 -0.6872 -0.1802 -2.7864
   30MOL    H8627984   6.227   1.655   2.153  0.8660 -0.2856 -2.5405
   30MOL    H8727985   6.317   1.524   2.077  1.4367 -1.7110  1.6204
   30MOL    H8827986   6.149   1.367   2.204  1.4575  0.7508  1.4795
   30MOL    H8927987   6.071   1.501   2.124  2.1401 -4.4847 -3.1723
   30MOL    H9027988   5.852   1.589   2.534 -0.2696 -0.6394 -0.4743
   30MOL    H9127989   6.022   1.572   2.569 -1.0173  0.0342  1.2689
   30MOL    H9227990   5.915   1.808   2.545  0.4635 -1.0355  1.6124
   30MOL    H9327991   5.941   1.786   2.377  1.0729  1.2965 -0.1965
   30MOL    H9427992   6.194   1.745   2.467 -2.4179 -2.8760  0.4235
   30MOL    H9527993   6.134   1.812   2.623 -0.2129 -0.7358  0.3270
   30MOL    H9627994   6.068   1.999   2.503 -1.1658 -2.4140 -0.3992
   30MOL    H9727995   6.107   1.928   2.340 -1.5693 -4.0133  0.6322
   30MOL    O9827996   6.285   2.114   2.495 -0.1322  0.5834  0.1135
   30MOL    C9927997   6.402   2.189   2.511  0.4676 -0.5201  0.3756
   30MOL   C10027998   6.446   2.186   2.661  1.1318 -0.2293  0.4097
   30MOL   C10127999   6.564   2.281   2.704  0.4087 -0.1199 -0.1605
   30MOL   C10228000   6.556   2.315   2.855  0.2471  0.6762  0.2358
   30MOL   C10328001   6.559   2.183   2.941 -0.3808 -0.0771  0.0936
   30MOL   C10428002   6.585   2.220   3.088 -0.3762  0.4323 -0.2064
   30MOL   C10528003   6.578   2.097   3.191  0.4820  0.0782  1.2685
   30MOL   C10628004   6.631   2.138   3.328 -0.2547 -0.4962  0.3313
   30MOL   C10728005   6.560   2.253   3.397 -0.8210  0.1984 -0.1026
   30MOL   C10828006   6.604   2.288   3.533  0.9657 -0.2449 -0.3522
   30MOL   O10928007   6.532   2.401   3.589  0.2362  0.2121  0.1289
   30MOL   C11028008   6.539   2.439   3.719  0.2007  0.4550  0.7709
   30MOL   O11128009   6.593   2.372   3.807 -0.0446  0.2637 -0.3648
   30MOL   C11228010   6.451   2.565   3.741  0.1390  0.2188  0.1730
   30MOL   C11328011   6.524   2.705   3.742 -0.7567 -0.0103  0.7808
   30MOL   C11428012   6.546   2.753   3.878 -0.3338  0.0978 -0.1493
   30MOL   C11528013   6.629   2.878   3.891  0.0350  0.0131 -0.1118
   30MOL   C11628014   6.684   2.894   4.033 -1.0228 -0.0701 -0.3295
   30MOL   O11728015   6.802   2.918   4.058  0.3960 -0.3789 -1.2270
   30MOL   H11828016   6.486   2.162   2.447  0.3235 -0.1995  0.0492
   30MOL   H11928017   6.379   2.291   2.481 -0.2991 -0.6555  0.4706
   30MOL   H12028018   6.473   2.083   2.685  0.7365 -0.3264  0.4490
   30MOL   H12128019   6.358   2.196   2.725  1.7674 -0.3356  1.3146
   30MOL   H12228020   6.659   2.246   2.663  1.3563  2.9956 -0.6836
   30MOL   H12328021   6.532   2.365   2.643 -1.5908 -1.0501 -0.4374
   30MOL   H12428022   6.470   2.375   2.884 -0.5572 -0.7944  0.9948
   30MOL   H12528023   6.653   2.361   2.873  1.2980 -0.7736 -1.6038
   30MOL   H12628024   6.640   2.112   2.923 -1.0824 -0.6798 -0.7300
   30MOL   H12728025   6.465   2.128   2.931 -0.0951 -0.4848 -0.4138
   30MOL   H12828026   6.523   2.304   3.119 -0.9676  0.5840 -1.7486
   30MOL   H12928027   6.690   2.247   3.092 -0.4815  0.6586  1.3145
   30MOL   H13028028   6.624   2.008   3.149  0.9797  1.1658 -0.5775
   30MOL   H13128029   6.470   2.080   3.196  0.2471  1.9330  3.7041
   30MOL   H13228030   6.739   2.151   3.324 -0.3566  1.8852  3.3200
   30MOL   H13328031   6.629   2.051   3.394  0.8061 -2.4263 -2.0807
   30MOL   H13428032   6.580   2.348   3.348  0.5614  0.7549  1.4868
   30MOL   H13528033   6.456   2.223   3.394 -0.1108 -2.2715 -1.4853
   30MOL   H13628034   6.710   2.311   3.546  0.5177  1.0329  1.2474
   30MOL   H13728035   6.594   2.206   3.605 -0.5815  0.4175  0.2176
   30MOL   H13828036   6.375   2.567   3.663  0.8178 -0.2600 -0.5165
   30MOL   H13928037   6.399   2.553   3.835  1.7269 -0.5240  0.9845
   30MOL   H14028038   6.469   2.779   3.685  0.3744  2.2293  2.5175
   30MOL   H14128039   6.614   2.682   3.684 -2.3962 -0.9254 -1.4492
   30MOL   H14228040   6.586   2.677   3.946 -0.0490  1.9470  1.8238
   30MOL   H14328041   6.449   2.773   3.924 -0.4140 -0.9574  0.1469
   30MOL   H14428042   6.564   2.958   3.857  0.1314  0.4042  0.6288
   30MOL   H14528043   6.714   2.886   3.823  1.6112 -1.3172  1.6528
   30MOL   O14628044   6.589   2.871   4.128  0.0325 -0.1325 -0.3477
   30MOL   C14728045   6.624   2.858   4.266 -0.1938 -0.1458  0.4042
   30MOL   C14828046   6.529   2.759   4.340 -0.1047 -0.0067  0.3061
   30MOL   C14928047   6.502   2.630   4.274  0.5971  0.6115  0.8085
   30MOL   C15028048   6.425   2.528   4.367 -0.6311 -0.3405  0.5798
   30MOL   C15128049   6.408   2.386   4.300  0.5868 -0.7140  0.4805
   30MOL   C15228050   6.320   2.281   4.381 -0.5220  0.2033  0.1860
   30MOL   C15328051   6.392   2.214   4.505 -0.0516  0.0257  0.4921
   30MOL   C15428052   6.359   2.286   4.637 -0.1679 -0.5444  0.1811
   30MOL   C15528053   6.424   2.211   4.756  0.5236 -0.2317  0.4565
   30MOL   C15628054   6.506   2.279   4.860  0.8945  0.5832 -0.5839
   30MOL   O15728055   6.622   2.328   4.795 -0.1709 -0.4746  0.2011
   30MOL   C15828056   6.649   2.458   4.763  0.2227 -0.1484 -0.5960
   30MOL   O15928057   6.573   2.545   4.802 -0.0038  0.4999 -0.4475
   30MOL   C16028058   6.772   2.472   4.668 -0.4355  0.1011  0.2684
   30MOL   C16128059   6.787   2.618   4.627  0.6869  0.6974 -0.0117
   30MOL   C16228060   6.878   2.653   4.504  0.0012  0.2425  0.2590
   30MOL   C16328061   6.907   2.806   4.496 -0.2751 -0.4116 -0.5051
   30MOL   C16428062   6.987   2.858   4.382 -0.6026  0.1624 -0.6207
   30MOL   O16528063   7.089   2.800   4.341 -0.4433 -0.7574  0.0697
   30MOL   H16628064   6.723   2.812   4.269  0.2670  0.7267 -0.9801
   30MOL   H16728065   6.621   2.957   4.312 -2.0798  0.0075 -0.0061
   30MOL   H16828066   6.436   2.817   4.345 -1.1032 -1.4245 -1.5839
   30MOL   H16928067   6.564   2.748   4.443  1.6677  0.9712 -0.1795
   30MOL   H17028068   6.462   2.637   4.173 -0.5937 -0.1401  1.2209
   30MOL   H17128069   6.599   2.586   4.249 -0.1618 -0.4778 -0.2587
   30MOL   H17228070   6.325   2.570   4.380 -1.0130 -0.3798 -1.9820
   30MOL   H17328071   6.465   2.520   4.468  0.3462  1.3784  0.3553
   30MOL   H17428072   6.501   2.334   4.276 -0.6634 -2.1380 -1.4632
   30MOL   H17528073   6.363   2.400   4.201 -1.0483  2.7417  1.6414
   30MOL   H17628074   6.295   2.204   4.308 -0.5751 -0.1764  0.6075
   30MOL   H17728075   6.219   2.314   4.407 -1.2970 -3.6963  2.5209
   30MOL   H17828076   6.500   2.218   4.490 -0.2281  1.1035 -0.4717
   30MOL   H17928077   6.349   2.114   4.517 -0.3803  0.0459 -0.4751
   30MOL   H18028078   6.250   2.290   4.649  0.0567  1.4928  1.6690
   30MOL   H18128079   6.394   2.386   4.612  0.5238 -0.7159  0.4605
   30MOL   H18228080   6.341   2.171   4.814 -0.6413  1.4180 -0.0480
   30MOL   H18328081   6.473   2.125   4.710 -1.2379 -0.7326 -0.5496
   30MOL   H18428082   6.538   2.209   4.938 -0.6801  1.7229  1.1347
   30MOL   H18528083   6.445   2.360   4.900 -1.2503 -1.5542  0.6545
   30MOL   H18628084   6.865   2.419   4.686  1.1140  2.6114 -0.0482
   30MOL   H18728085   6.735   2.415   4.583 -0.6078 -0.0654  0.4518
   30MOL   H18828086   6.808   2.674   4.718 -3.2508  1.9370  0.2163
   30MOL   H18928087   6.689   2.656   4.600  0.7440  0.2851 -0.8120
   30MOL   H19028088   6.839   2.624   4.406 -1.6733 -0.3494  1.0921
   30MOL   H19128089   6.968   2.594   4.520 -0.5522 -0.9749 -1.0324
   30MOL   H19228090   6.949   2.836   4.592 -0.5912 -0.0513 -0.4777
   30MOL   H19328091   6.811   2.859   4.492  0.3871  0.8678  0.1326
   30MOL   O19428092   6.944   2.974   4.333  0.0154 -0.2467 -0.1438
   30MOL   C19528093   7.022   3.026   4.227  0.9426 -0.0180  0.3715
   30MOL   C19628094   7.117   3.133   4.286  0.3882  0.1008  0.4069
   30MOL   C19728095   7.251   3.125   4.220 -0.1580 -0.0387 -0.3057
   30MOL   C19828096   7.332   3.249   4.262  0.0640 -0.3558  0.0650
   30MOL   C19928097   7.471   3.251   4.213 -0.3501 -0.0958 -0.0848
   30MOL   C20028098   7.494   3.295   4.070 -0.0508  1.0262  0.0353
   30MOL   C20128099   7.633   3.282   4.015 -0.3417  0.1483 -0.5634
   30MOL   C20228100   7.657   3.351   3.881  0.0910 -0.4505 -0.2489
   30MOL   C20328101   0.034   3.325   3.835 -0.4964 -0.0189  0.0406
   30MOL   C20428102   0.064   3.392   3.696 -0.5941 -0.0921 -0.1544
   30MOL   O20528103   0.182   3.331   3.642  0.3971 -0.2945 -0.4299
   30MOL   C20628104   0.217   3.358   3.518 -0.1039  0.5616 -0.0170
   30MOL   O20728105   0.155   3.426   3.442 -0.2207 -0.3429  0.8185
   30MOL   C20828106   0.333   3.274   3.472 -0.1511  0.6532 -0.5332
   30MOL   C20928107   0.308   3.123   3.477  0.1235  0.2168  0.3513
   30MOL   C21028108   0.220   3.050   3.368  0.2854 -0.6188 -0.4139
   30MOL   C21128109   0.069   3.053   3.393  0.2317 -0.5851 -0.2906
   30MOL   C21228110   0.028   2.969   3.506  0.0042 -0.3592 -0.2923
   30MOL   O21328111   0.113   2.902   3.572  0.3041 -0.2773 -0.3022
   30MOL   H21428112   7.065   2.945   4.168 -0.2366 -1.5393  1.5661
   30MOL   H21528113   6.953   3.070   4.155 -0.3276  0.4694  1.8587
   30MOL   H21628114   7.132   3.112   4.392  0.4416 -0.0214  0.3755
   30MOL   H21728115   7.071   3.230   4.273 -0.9760 -0.5547  0.2648
   30MOL   H21828116   7.302   3.043   4.270  1.2589  2.6535  2.9185
   30MOL   H21928117   7.247   3.112   4.112  0.8802  1.7704 -0.5809
   30MOL   H22028118   7.337   3.254   4.370  3.6126  1.6360 -0.1039
   30MOL   H22128119   7.279   3.327   4.207 -0.7734 -1.9686 -1.4847
   30MOL   H22228120   7.523   3.160   4.244  1.6678  1.3154  0.8290
   30MOL   H22328121   7.524   3.320   4.278 -0.2542 -0.3697  0.1298
   30MOL   H22428122   7.468   3.401   4.062 -1.8310  0.8138  2.3004
   30MOL   H22528123   7.423   3.237   4.012  1.8513 -2.5672  1.1612
   30MOL   H22628124   7.656   3.176   4.011 -1.3300 -0.1598  1.5391
   30MOL   H22728125   7.698   3.320   4.094  0.3583 -0.4023 -0.8685
   30MOL   H22828126   7.647   3.458   3.898  1.3815 -0.6554  1.9096
   30MOL   H22928127   7.590   3.309   3.805 -0.4543  1.8513 -1.0911
   30MOL   H23028128   0.111   3.364   3.902  2.4907 -2.0761 -2.0388
   30MOL   H23128129   0.042   3.217   3.825 -1.1367  0.1746 -3.0677
   30MOL   H23228130   0.074   3.498   3.717 -2.6241  0.2139 -0.6092
   30MOL   H23328131   7.749   3.370   3.625  0.1313 -2.3440 -0.3175
   30MOL   H23428132   0.354   3.294   3.367  0.0450 -1.0352 -0.8417
   30MOL   H23528133   0.417   3.296   3.537  0.6843 -0.4468 -1.2212
   30MOL   H23628134   0.275   3.099   3.579 -1.0160 -2.1809 -0.5455
   30MOL   H23728135   0.410   3.085   3.470 -0.6005 -1.5393 -0.9752
   30MOL   H23828136   0.245   2.945   3.350 -0.8664 -1.4499  2.6569
   30MOL   H23928137   0.251   3.099   3.275 -0.0992  1.3174  0.4616
   30MOL   H24028138   0.018   3.020   3.302 -1.1025 -2.1443  0.9762
   30MOL   H24128139   0.048   3.155   3.423 -1.8652 -0.8677 -0.6970
   30MOL   O24228140   7.667   2.975   3.525  0.4052  0.3484 -0.4503
   30MOL   C24328141   7.598   2.908   3.634 -0.2384  0.7924  0.3747
   30MOL   C24428142   7.451   2.958   3.652  0.4108 -0.0944 -0.9168
   30MOL   C24528143   7.435   3.109   3.672 -0.3211  0.0492 -0.2834
   30MOL   C24628144   7.294   3.156   3.653 -0.4308  0.2361  0.3664
   30MOL   C24728145   7.203   3.143   3.774  0.3139 -0.2196  0.1587
   30MOL   C24828146   7.068   3.214   3.767  0.3293  0.3372 -0.3407
   30MOL   C24928147   6.994   3.190   3.892  0.7693 -0.7290 -0.4585
   30MOL   C25028148   6.839   3.208   3.874  0.3456 -0.0190  0.0719
   30MOL   C25128149   6.784   3.317   3.969 -0.6693  0.3707 -0.3598
   30MOL   C25228150   6.630   3.334   3.955  1.3740 -0.5203 -0.3571
   30MOL   O25328151   6.562   3.213   3.986  0.2661  0.0858  0.5974
   30MOL   C25428152   6.428   3.229   4.021 -0.5916 -0.3495  0.3135
   30MOL   O25528153   6.357   3.331   4.010 -0.1540 -0.4634 -0.4555
   30MOL   C25628154   6.377   3.091   4.084  0.5767  0.4989 -0.4282
   30MOL   C25728155   6.230   3.097   4.114  0.1131  0.7175  0.0187
   30MOL   C25828156   6.146   2.956   4.115 -0.3971  0.2295  0.2227
   30MOL   C25928157   6.200   2.857   4.216  0.3343  0.4871  0.1038
   30MOL   C26028158   6.129   2.726   4.228 -0.3899  0.0189 -0.0648
   30MOL   O26128159   6.044   2.702   4.316 -0.1798  0.6247  0.2806
   30MOL   H26228160   7.600   2.803   3.606 -1.9833  1.0533 -0.8061
   30MOL   H26328161   7.653   2.919   3.727 -0.9420  3.0893  0.5552
   30MOL   H26428162   7.403   2.921   3.742  0.9715  2.0048  0.2563
   30MOL   H26528163   7.391   2.930   3.565 -1.7189  0.6308  0.2705
   30MOL   H26628164   7.477   3.144   3.766 -1.5523 -0.1282  0.3499
   30MOL   H26728165   7.505   3.160   3.607  0.1742 -0.5945 -0.2593
   30MOL   H26828166   7.259   3.105   3.563  0.9334 -0.1105  0.0289
   30MOL   H26928167   7.295   3.262   3.626  1.5993  0.3329  0.7395
   30MOL   H27028168   7.245   3.161   3.873 -0.6105  1.4338  0.2691
   30MOL   H27128169   7.174   3.038   3.770  1.3945 -0.4830 -0.7885
   30MOL   H27228170   7.007   3.195   3.679 -0.0192  1.8087 -0.4175
   30MOL   H27328171   7.099   3.317   3.754 -0.7988  0.6279 -0.7595
   30MOL   H27428172   7.033   3.250   3.975 -1.4299 -0.9628  0.7688
   30MOL   H27528173   7.012   3.091   3.934 -0.8654 -1.6808 -1.9852
   30MOL   H27628174   6.791   3.111   3.888  0.9742 -0.1971  1.0654
   30MOL   H27728175   6.813   3.236   3.772  2.2270  3.2868  0.4202
   30MOL   H27828176   6.801   3.294   4.074 -1.5759 -0.8237 -0.4683
   30MOL   H27928177   6.836   3.408   3.936 -0.4339  0.1609 -0.5685
   30MOL   H28028178   6.612   3.384   3.860 -0.2086  0.6703  0.5497
   30MOL   H28128179   6.598   3.414   4.021  0.2889 -1.2968  0.0591
   30MOL   H28228180   6.394   3.001   4.025 -0.4034  0.7051 -1.0452
   30MOL   H28328181   6.437   3.084   4.175 -1.6957  0.2192  1.0703
   30MOL   H28428182   6.176   3.150   4.036  0.0209  0.5609 -0.0233
   30MOL   H28528183   6.220   3.151   4.208 -2.3991  1.8402 -0.8565
   30MOL   H28628184   6.147   2.902   4.020 -0.2669 -2.1831  1.5413
   30MOL   H28728185   6.043   2.980   4.141 -0.6827 -0.3150 -0.3868
   30MOL   H28828186   6.192   2.899   4.317  0.4226  0.4592  0.1225
   30MOL   H28928187   6.306   2.844   4.195  0.2438 -2.7932  1.4765
   30MOL   O29028188   6.160   2.642   4.117  0.8645  0.4035  0.4230
   30MOL   C29128189   6.087   2.520   4.108 -0.3103 -0.2049 -0.3997
   30MOL   C29228190   6.109   2.449   3.980  0.2349  0.2233  0.2068
   30MOL   C29328191   6.062   2.530   3.864  0.0234  0.4330 -0.2084
   30MOL   C29428192   6.092   2.453   3.725 -0.5721 -0.2729 -0.1614
   30MOL   C29528193   6.023   2.520   3.607 -0.1297 -0.3053 -0.6968
   30MOL   C29628194   6.063   2.449   3.480  1.0802  0.2825 -0.3715
   30MOL   C29728195   6.006   2.305   3.468 -0.6967 -0.3735  1.0649
   30MOL   C29828196   6.009   2.245   3.332  0.4439 -0.0721 -0.7546
   30MOL   C29928197   6.155   2.240   3.284 -0.3869 -0.4323 -0.0780
   30MOL   C30028198   6.166   2.184   3.146 -0.2704 -0.0110  0.8985
   30MOL   O30128199   6.112   2.268   3.039  0.2291 -0.0364 -0.9445
   30MOL   C30228200   6.106   2.218   2.921 -0.7301 -0.7253 -0.4402
   30MOL   O30328201   6.137   2.101   2.896 -0.7109 -0.9169  0.0554
   30MOL   C30428202   6.066   2.322   2.816  0.4488  1.0900  0.2332
   30MOL   C30528203   6.016   2.259   2.685 -0.5156 -0.7432  0.4887
   30MOL   C30628204   6.053   2.356   2.569 -0.3170  0.1555 -0.1807
   30MOL   C30728205   6.032   2.302   2.430  0.4432  0.1463  0.8052
   30MOL   C30828206   5.883   2.281   2.397  0.0097  0.4683  0.1572
   30MOL   O30928207   5.832   2.163   2.394  0.0149 -0.5627 -0.0797
   30MOL   H31028208   6.112   2.458   4.195 -0.3726 -0.9834 -0.9286
   30MOL   H31128209   5.981   2.542   4.117  0.0402  1.7141 -0.8039
   30MOL   H31228210   6.072   2.346   3.981  1.9578 -0.5253 -3.3364
   30MOL   H31328211   6.216   2.430   3.978  0.2998  0.1893  2.4207
   30MOL   H31428212   5.965   2.579   3.860 -0.6260 -0.6229  1.6372
   30MOL   H31528213   6.129   2.616   3.865 -1.7716  1.8530  0.3796
   30MOL   H31628214   6.070   2.346   3.726  2.9734 -1.0822  0.7172
   30MOL   H31728215   6.201   2.446   3.714 -0.5097  0.6441 -0.1906
   30MOL   H31828216   6.052   2.623   3.589 -1.0995 -0.3243 -2.4933
   30MOL   H31928217   5.915   2.515   3.617 -0.1896 -0.1012 -1.2081
   30MOL   H32028218   6.172   2.443   3.478  1.0887  0.4972 -0.6096
   30MOL   H32128219   6.031   2.514   3.399 -2.3075 -1.1140 -0.2433
   30MOL   H32228220   5.902   2.307   3.500 -1.3284 -2.0654 -0.8303
   30MOL   H32328221   6.061   2.251   3.545  0.1045 -0.5012  0.4127
   30MOL   H32428222   5.937   2.289   3.264 -0.9468 -0.5656  0.3573
   30MOL   H32528223   5.984   2.140   3.350 -1.0952  0.4490  0.2414
   30MOL   H32628224   6.207   2.336   3.282  1.4789 -1.3669  1.6195
   30MOL   H32728225   6.214   2.178   3.351  0.0621  1.8723  1.7237
   30MOL   H32828226   6.109   2.092   3.145  0.8851 -0.7483 -0.0841
   30MOL   H32928227   6.263   2.140   3.121 -0.9913 -0.1801 -1.8333
   30MOL   H33028228   5.986   2.385   2.857 -1.7590 -1.2160 -0.3751
   30MOL   H33128229   6.160   2.372   2.796  0.8547 -0.1233 -0.9557
   30MOL   H33228230   5.907   2.251   2.685 -0.4468 -1.6675  0.8769
   30MOL   H33328231   6.056   2.158   2.681 -0.6025 -0.7914  0.8866
   30MOL   H33428232   6.159   2.381   2.574  0.0610 -1.2109 -1.2472
   30MOL   H33528233   5.998   2.450   2.571 -0.4629  0.0549  0.7357
   30MOL   H33628234   6.070   2.201   2.415 -0.9697 -0.2372 -0.2430
   30MOL   H33728235   6.073   2.365   2.351  0.0655 -0.5487  0.0527
   30MOL   O33828236   5.819   2.404   2.377 -0.7297  0.0660 -0.1263
   30MOL   C33928237   5.680   2.400   2.360  0.0286  0.3791  0.3616
   30MOL   C34028238   5.598   2.450   2.476 -0.3052 -0.0423 -0.1349
   30MOL   C34128239   5.448   2.426   2.462 -0.1422  0.2665  0.1559
   30MOL   C34228240   5.350   2.478   2.575  0.1993 -0.2696  0.4228
   30MOL   C34328241   5.376   2.427   2.717  0.4246  1.3143  0.2786
   30MOL   C34428242   5.280   2.473   2.815  0.2268 -0.4223 -0.1819
   30MOL   C34528243   5.318   2.433   2.961 -0.0071  0.4209 -0.2294
   30MOL   C34628244   5.265   2.534   3.076 -0.0247  0.5505  0.2866
   30MOL   C34728245   5.329   2.672   3.067 -0.1534  0.2133 -0.2441
   30MOL   C34828246   5.284   2.769   3.177  0.1201 -0.6363  0.0535
   30MOL   O34928247   5.353   2.747   3.297  0.3259  0.3298 -0.2415
   30MOL   C35028248   5.324   2.828   3.408  0.4957  0.2289  0.8177
   30MOL   O35128249   5.240   2.919   3.411 -0.1250 -0.3519  0.1385
   30MOL   C35228250   5.418   2.796   3.528  0.0778 -0.2256  0.1288
   30MOL   C35328251   5.422   2.903   3.641  0.3540  0.3670  0.4807
   30MOL   C35428252   5.487   3.040   3.604  0.3874  0.3922 -0.5557
   30MOL   C35528253   5.511   3.127   3.727  0.3281 -0.4039  0.0288
   30MOL   C35628254   5.553   3.268   3.688  0.3234  0.5216 -0.6179
   30MOL   O35728255   5.474   3.362   3.682  0.5655 -0.2312  0.6351
   30MOL   H35828256   5.663   2.455   2.268 -0.2658 -0.4773 -0.1083
   30MOL   H35928257   5.638   2.303   2.332 -1.0859  1.6823 -2.6695
   30MOL   H36028258   5.611   2.555   2.501  1.0817  0.3926 -2.5621
   30MOL   H36128259   5.630   2.400   2.568 -0.5821 -2.5786 -1.3655
   30MOL   H36228260   5.411   2.465   2.367 -0.1035 -4.0468 -1.7592
   30MOL   H36328261   5.433   2.320   2.442  1.0552 -0.1594  1.4069
   30MOL   H36428262   5.250   2.455   2.539 -0.1837  1.4514  0.3171
   30MOL   H36528263   5.365   2.586   2.584 -0.7649 -0.2038  1.3855
   30MOL   H36628264   5.481   2.450   2.738  0.5364  0.6665  0.4448
   30MOL   H36728265   5.373   2.319   2.703 -3.2285  1.6397 -2.0347
   30MOL   H36828266   5.182   2.426   2.803 -0.2504  0.6789 -0.6125
   30MOL   H36928267   5.272   2.581   2.822 -3.6066 -0.7139  0.8513
   30MOL   H37028268   5.426   2.424   2.972  0.0948  1.5940 -0.2240
   30MOL   H37128269   5.292   2.328   2.977  1.7699  0.1074  0.6295
   30MOL   H37228270   5.272   2.489   3.175  1.0781  0.1745  0.0461
   30MOL   H37328271   5.157   2.543   3.074 -0.0459  0.3045  0.3018
   30MOL   H37428272   5.437   2.663   3.058 -0.1102 -0.5710  0.9899
   30MOL   H37528273   5.285   2.707   2.973  0.5890 -0.7300 -0.9470
   30MOL   H37628274   5.177   2.763   3.197 -0.5794  2.3617 -2.3247
   30MOL   H37728275   5.298   2.873   3.146  0.1968 -1.5696 -3.2801
   30MOL   H37828276   5.404   2.695   3.568 -0.2602 -0.3236 -0.2441
   30MOL   H37928277   5.521   2.790   3.491 -0.4030  3.4034 -2.0385
   30MOL   H38028278   5.472   2.862   3.729 -1.3584  0.2172  1.4039
   30MOL   H38128279   5.319   2.932   3.664 -0.3606 -0.8018 -1.1000
   30MOL   H38228280   5.423   3.087   3.530 -1.1263 -1.3261 -0.3899
   30MOL   H38328281   5.580   3.014   3.554  1.0638 -1.1925  1.4170
   30MOL   H38428282   5.592   3.078   3.782  1.3365  0.3307 -0.7758
   30MOL   H38528283   5.421   3.124   3.789  0.9547 -2.0897  0.8768
   30MOL   O38628284   5.685   3.273   3.672 -0.8803 -0.4526  0.1313
   30MOL   C38728285   5.747   3.384   3.609 -0.5581  0.4188  0.3046
   30MOL   C38828286   5.817   3.352   3.476  0.3592  0.5175 -0.4462
   30MOL   C38928287   5.877   3.473   3.414 -0.0968 -0.5927  0.5971
   30MOL   C39028288   5.955   3.442   3.286 -0.6552  0.2306  0.0942
   30MOL   C39128289   6.015   3.565   3.210  0.5118  0.2039 -0.0512
   30MOL   C39228290   6.051   3.518   3.076 -0.4484  0.1129  0.7272
   30MOL   C39328291   6.074   3.633   2.991 -0.0169 -0.5532 -0.0537
   30MOL   C39428292   5.950   3.720   2.952 -0.0596  0.4643  0.1185
   30MOL   C39528293   5.982   3.851   2.884  0.4294 -1.2209 -0.4906
   30MOL   C39628294   5.855   3.940   2.848  0.0333 -0.5504 -0.2034
   30MOL   O39728295   5.783   3.882   2.740 -0.0007 -0.7202  0.8747
   30MOL   C39828296   5.737   3.950   2.643 -0.2618  0.0331 -0.1784
   30MOL   O39928297   5.728   4.073   2.638  0.6701 -0.5680  0.5879
   30MOL   C40028298   5.686   3.870   2.523  0.6595 -0.1999 -0.2970
   30MOL   C40128299   5.783   3.861   2.408  0.3906 -0.5331 -0.8757
   30MOL   C40228300   5.908   3.779   2.435 -0.8837 -0.0579 -0.3136
   30MOL   C40328301   5.878   3.646   2.486  0.3096 -0.0018  0.2944
   30MOL   C40428302   5.995   3.578   2.548 -0.2959 -0.3778  0.1429
   30MOL   O40528303   6.099   3.639   2.574  0.3479 -0.1634  0.4777
   30MOL   H40628304   5.675   3.463   3.591 -1.9213 -0.4256  1.9283
   30MOL   H40728305   5.823   3.424   3.676  1.2350 -1.2630 -0.6525
   30MOL   H40828306   5.749   3.305   3.405 -0.2577 -1.4039  1.3598
   30MOL   H40928307   5.898   3.282   3.493 -0.4405  0.5630  4.2455
   30MOL   H41028308   5.790   3.536   3.396  0.7726  0.5094  0.1892
   30MOL   H41128309   5.939   3.524   3.488 -3.8021 -0.2190  3.6057
   30MOL   H41228310   5.886   3.378   3.231  1.6684 -0.6939 -1.8268
   30MOL   H41328311   6.039   3.376   3.309 -2.5904 -2.5052 -0.5252
   30MOL   H41428312   6.104   3.597   3.265 -0.2577  1.1086  0.7020
   30MOL   H41528313   5.936   3.641   3.214  2.0233  1.7205  2.5074
   30MOL   H41628314   5.973   3.458   3.029  2.0809 -2.2128 -0.6461
   30MOL   H41728315   6.139   3.455   3.086 -1.7872 -1.9509 -0.0870
   30MOL   H41828316   6.107   3.584   2.899 -0.8114 -0.7964 -0.2149
   30MOL   H41928317   6.152   3.696   3.032 -0.8477 -1.5276  3.1916
   30MOL   H42028318   5.885   3.735   3.039  0.0964 -1.2961  0.5603
   30MOL   H42128319   5.890   3.660   2.884 -0.3947 -1.1742  1.7978
   30MOL   H42228320   6.047   3.906   2.953  0.6154 -1.2049 -0.6783
   30MOL   H42328321   6.054   3.837   2.803 -1.6421  1.5631 -2.9274
   30MOL   H42428322   5.886   4.038   2.811  2.2519 -1.8709 -2.0118
   30MOL   H42528323   5.781   3.954   2.926  0.2718  0.5864 -0.1817
   30MOL   H42628324   5.659   3.768   2.550  1.2586 -1.0817 -2.8587
   30MOL   H42728325   5.604   3.927   2.479  0.7827 -0.3807 -0.7719
   30MOL   H42828326   5.813   3.963   2.384  1.7518 -0.0410  2.6902
   30MOL   H42928327   5.728   3.824   2.322 -2.1192  1.1703 -0.0530
   30MOL   H43028328   5.980   3.831   2.497 -0.8627 -1.7311  1.1279
   30MOL   H43128329   5.962   3.766   2.341  0.9161  1.3966  0.4986
   30MOL   H43228330   5.830   3.580   2.414 -0.4641  0.6012  0.2524
   30MOL   H43328331   5.814   3.668   2.572 -0.5801  2.8903 -1.0328
   30MOL   O43428332   5.971   3.454   2.571  0.2254  0.2647  0.6731
   30MOL   C43528333   6.067   3.374   2.643  0.5244 -0.8509 -0.1230
   30MOL   C43628334   5.982   3.272   2.735  0.1258  0.0928  0.7460
   30MOL   C43728335   6.076   3.156   2.782 -0.3099  0.0370  0.0004
   30MOL   C43828336   6.013   3.058   2.881  0.3594  0.5973 -0.0743
   30MOL   C43928337   5.986   3.110   3.027 -0.1438 -0.0691 -0.4912
   30MOL   C44028338   5.970   2.993   3.124  0.7055 -0.4382  0.0235
   30MOL   C44128339   5.898   3.036   3.255 -0.1367 -0.8534 -0.3703
   30MOL   C44228340   5.921   2.947   3.370 -0.2254 -0.2242  0.3298
   30MOL   C44328341   5.890   3.001   3.504 -0.5418 -0.2583 -0.4171
   30MOL   C44428342   5.891   2.901   3.611  0.6872 -0.5788  0.1917
   30MOL   O44528343   5.832   2.939   3.732  0.3317  0.2963 -0.7605
   30MOL   C44628344   5.904   2.988   3.831 -0.1844  0.4545 -0.1175
   30MOL   O44728345   6.025   3.005   3.831  0.2977  0.0595 -0.2477
   30MOL   C44828346   5.817   3.043   3.945  0.4696 -0.4725  0.3798
   30MOL   C44928347   5.722   2.932   3.997  0.1201 -0.6221  1.0178
   30MOL   C45028348   5.791   2.807   4.068  0.6604 -0.5812  0.5367
   30MOL   C45128349   5.688   2.724   4.132 -0.7241  0.3009  0.1164
   30MOL   C45228350   5.619   2.631   4.026  0.2465 -0.1463  0.0890
   30MOL   O45328351   5.499   2.639   4.011  0.2642  0.0086 -0.8189
   30MOL   H45428352   6.121   3.317   2.567  2.5948  0.6502  0.1790
   30MOL   H45528353   6.153   3.420   2.693  1.1387 -2.6418  0.5491
   30MOL   H45628354   5.895   3.228   2.685  2.9873 -3.9447 -1.0097
   30MOL   H45728355   5.943   3.337   2.812  0.0797  1.9564 -0.8238
   30MOL   H45828356   6.110   3.101   2.694 -0.3142  0.1264 -0.0566
   30MOL   H45928357   6.169   3.201   2.817 -1.5427  1.9348  0.9147
   30MOL   H46028358   6.075   2.969   2.893 -1.2719 -0.2004  3.0009
   30MOL   H46128359   5.928   3.010   2.832  0.7958 -0.5370  0.2684
   30MOL   H46228360   5.896   3.171   3.026 -0.4481 -0.5204 -2.8142
   30MOL   H46328361   6.068   3.173   3.062  0.4902 -1.1064 -0.0815
   30MOL   H46428362   6.073   2.972   3.154  0.8694  0.5986  0.1991
   30MOL   H46528363   5.921   2.906   3.080 -1.7872  1.0053 -0.1467
   30MOL   H46628364   5.793   3.057   3.235  0.3133  0.0192 -1.8867
   30MOL   H46728365   5.949   3.129   3.284 -1.3631 -0.8146  1.7063
   30MOL   H46828366   6.029   2.937   3.361 -0.0141  2.4270 -0.5605
   30MOL   H46928367   5.862   2.858   3.351 -2.4516  1.0102  1.2592
   30MOL   H47028368   5.976   3.066   3.523  0.3407 -1.1487 -1.2717
   30MOL   H47128369   5.796   3.055   3.504 -0.9953 -1.0395 -0.8432
   30MOL   H47228370   5.992   2.864   3.628  0.6972  0.3570  2.3218
   30MOL   H47328371   5.834   2.814   3.580  1.1825 -0.7432 -0.2555
   30MOL   H47428372   5.879   3.072   4.030 -1.0741 -0.6751  1.5963
   30MOL   H47528373   5.753   3.124   3.910  0.7746 -0.7725 -0.8978
   30MOL   H47628374   5.652   2.905   3.917 -0.4001  2.0788  0.4842
   30MOL   H47728375   5.663   2.990   4.068  0.0236 -0.4248  0.7776
   30MOL   H47828376   5.854   2.839   4.152 -0.9020 -2.2918  2.3926
   30MOL   H47928377   5.858   2.755   4.000 -0.6756 -0.3106 -0.9937
   30MOL   H48028378   5.605   2.763   4.190 -0.6116  0.8630 -0.1001
   30MOL   H48128379   5.741   2.656   4.199  0.1071  1.7922  0.9758
   30MOL   O48228380   5.707   2.556   3.953  0.1125  0.1396 -0.0979
   30MOL   C48328381   5.667   2.462   3.850  0.1503  1.1748 -0.4358
   30MOL   C48428382   5.669   2.326   3.924  0.5503  0.5952 -0.3300
   30MOL   C48528383   5.616   2.210   3.830 -0.1432 -0.0934  0.4782
   30MOL   C48628384   5.713   2.178   3.720  0.6374 -0.0653 -0.0652
   30MOL   C48728385   5.670   2.053   3.642  1.5649  0.2708 -0.6793
   30MOL   C48828386   5.771   2.021   3.525 -0.6005 -1.1225  0.1775
   30MOL   C48928387   5.740   1.888   3.459 -0.1332 -0.2613 -0.7978
   30MOL   C49028388   5.817   1.868   3.325 -0.0331  0.3860  0.4896
   30MOL   C49128389   5.759   1.749   3.245 -0.2594  0.2360 -0.3190
   30MOL   C49228390   5.824   1.752   3.103  0.4654  0.0256  0.0704
   30MOL   O49328391   5.966   1.741   3.105 -0.8518 -0.1597 -0.5297
   30MOL   C49428392   6.028   1.725   2.988  0.2107  0.3211 -0.3956
   30MOL   O49528393   5.971   1.679   2.885  0.2732  0.3845 -0.2500
   30MOL   C49628394   6.175   1.747   3.002  0.0460  0.4027 -0.0744
   30MOL   C49728395   6.236   1.654   3.101 -0.5752 -0.0407 -0.3732
   30MOL   C49828396   6.252   1.509   3.044 -0.1347 -0.0513  0.4263
   30MOL   C49928397   6.314   1.398   3.141  0.1838 -0.1589  0.3208
   30MOL   C50028398   6.267   1.415   3.288 -0.1402 -1.1803 -0.5288
   30MOL   O50128399   6.345   1.443   3.378 -0.5038 -0.2228 -0.5713
   30MOL   H50228400   5.570   2.482   3.803 -1.3373 -1.2481  1.4526
   30MOL   H50328401   5.739   2.462   3.768 -1.4942  2.7217 -1.9352
   30MOL   H50428402   5.612   2.338   4.016  0.5873  0.4000 -0.2802
   30MOL   H50528403   5.771   2.291   3.942  0.7079  0.3369 -1.6283
   30MOL   H50628404   5.615   2.120   3.891  2.4214 -0.8046 -0.4675
   30MOL   H50728405   5.517   2.236   3.791  0.2357  0.9871  0.2200
   30MOL   H50828406   5.803   2.151   3.776 -0.3914 -3.3329  0.1147
   30MOL   H50928407   5.730   2.265   3.657  1.9184 -1.1264 -1.2353
   30MOL   H51028408   5.568   2.058   3.606  0.7300 -0.5318  1.5017
   30MOL   H51128409   5.673   1.971   3.714  1.8093  0.9291  0.0722
   30MOL   H51228410   5.871   2.015   3.568 -0.9393  1.1611  1.3270
   30MOL   H51328411   5.771   2.098   3.448  1.1672 -0.1938  1.1011
   30MOL   H51428412   5.632   1.883   3.440 -0.4612 -0.0690  0.8779
   30MOL   H51528413   5.771   1.811   3.530 -0.7645 -0.5109 -0.7849
   30MOL   H51628414   5.923   1.851   3.342  0.1556  2.4511  1.4990
   30MOL   H51728415   5.818   1.963   3.272  1.9092  0.8332  1.2741
   30MOL   H51828416   5.788   1.654   3.289  0.5064 -1.1024 -3.5741
   30MOL   H51928417   5.652   1.750   3.229 -0.1954 -0.5527 -0.7795
   30MOL   H52028418   5.802   1.843   3.048  0.4982  0.5462  0.9110
   30MOL   H52128419   5.775   1.668   3.053  1.6838 -2.0499  2.2436
   30MOL   H52228420   6.220   1.735   2.903  0.0038  3.0988 -0.4692
   30MOL   H52328421   6.198   1.846   3.042  0.3929 -0.2476  1.3473
   30MOL   H52428422   6.176   1.654   3.192 -1.6834  1.5694 -1.0644
   30MOL   H52528423   6.336   1.675   3.139 -1.0219  0.2579  0.6629
   30MOL   H52628424   6.319   1.511   2.958 -0.4744  3.7094  0.1774
   30MOL   H52728425   6.158   1.470   3.004  0.6501  0.1385 -1.6416
   30MOL   H52828426   6.422   1.389   3.137  0.0181 -2.2580 -0.2685
   30MOL   H52928427   6.271   1.299   3.122 -1.1835  0.6130 -0.7203
   30MOL   O53028428   6.143   1.376   3.306 -0.6471  0.5219  0.6968
   30MOL   C53128429   6.086   1.401   3.439 -0.2591  0.0845  0.3465
   30MOL   C53228430   5.949   1.470   3.434  0.0464  0.3963 -0.3619
   30MOL   C53328431   5.890   1.501   3.577  0.0125 -0.1799  0.1702
   30MOL   C53428432   5.961   1.623   3.639 -0.7093  0.2194  0.2959
   30MOL   C53528433   5.877   1.675   3.764  0.4585  0.1660 -1.0039
   30MOL   C53628434   5.949   1.798   3.823 -0.0481  0.4527  0.1863
   30MOL   C53728435   5.891   1.840   3.954 -0.0914  0.2643 -0.0603
   30MOL   C53828436   5.974   1.946   4.036 -0.0341  0.8085  0.3387
   30MOL   C53928437   5.904   2.019   4.153  0.2904  0.6365  0.2989
   30MOL   C54028438   6.006   2.119   4.203 -0.5299 -0.1852 -0.3926
   30MOL   O54128439   5.955   2.181   4.326  0.6596 -0.3327 -0.2407
   30MOL   C54228440   5.874   2.290   4.312 -0.0479 -0.1359 -0.5136
   30MOL   O54328441   5.829   2.328   4.209 -0.6050  0.2287  0.1069
   30MOL   C54428442   5.852   2.361   4.445  0.1937  0.3263  0.3671
   30MOL   C54528443   5.729   2.452   4.450  0.1921  0.3855 -0.3795
   30MOL   C54628444   5.594   2.397   4.416 -0.5373 -0.2651  0.2457
   30MOL   C54728445   5.476   2.503   4.389  0.4649  0.1595  0.7234
   30MOL   C54828446   5.342   2.445   4.334 -0.5257 -0.3055 -0.4680
   30MOL   O54928447   5.306   2.330   4.362 -0.3129 -0.7436 -0.0847
   30MOL   H55028448   6.071   1.304   3.487  0.9161 -0.0341  0.4916
   30MOL   H55128449   6.154   1.456   3.504 -0.6799  1.1156 -0.0886
   30MOL   H55228450   5.867   1.425   3.379 -1.2116  0.1407  1.6619
   30MOL   H55328451   5.973   1.562   3.381 -0.5653  0.4995 -0.4550
   30MOL   H55428452   5.784   1.520   3.563 -0.4428 -0.8858  2.5022
   30MOL   H55528453   5.894   1.415   3.643  1.6981  0.0126  0.3571
   30MOL   H55628454   5.981   1.701   3.566  1.2626 -0.8607 -0.3406
   30MOL   H55728455   6.062   1.598   3.671  0.1017  0.5758 -1.8954
   30MOL   H55828456   5.883   1.596   3.840  0.8683 -1.1891 -2.4106
   30MOL   H55928457   5.778   1.701   3.726  0.5510  0.6657 -0.9052
   30MOL   H56028458   5.928   1.882   3.756  2.4584  0.0821 -1.1212
   30MOL   H56128459   6.056   1.781   3.829  0.2781  2.1753 -0.4084
   30MOL   H56228460   5.867   1.752   4.014  3.6450 -0.2946  0.7311
   30MOL   H56328461   5.795   1.884   3.927 -0.9065 -0.6666  1.2770
   30MOL   H56428462   5.979   2.024   3.960  1.7161  2.0196  1.6504
   30MOL   H56528463   6.078   1.923   4.059 -0.6024 -0.8084  1.3890
   30MOL   H56628464   5.812   2.068   4.121 -0.1998  1.1862  2.5087
   30MOL   H56728465   5.875   1.948   4.230  1.0577 -0.7088 -0.6411
   30MOL   H56828466   6.025   2.203   4.136  1.7633  0.6505  1.2620
   30MOL   H56928467   6.106   2.081   4.222 -0.8191  0.5077  2.8449
   30MOL   H57028468   5.848   2.287   4.525  0.0824  1.0930  1.0766
   30MOL   H57128469   5.936   2.429   4.457 -0.6257  1.4515 -0.1213
   30MOL   H57228470   5.748   2.538   4.385  0.7782  0.5608  0.0168
   30MOL   H57328471   5.726   2.498   4.548 -2.2100 -2.0116  0.7327
   30MOL   H57428472   5.563   2.316   4.482  0.0047 -0.8942 -0.2629
   30MOL   H57528473   5.607   2.334   4.327  0.4011  1.2823 -0.7354
   30MOL   H57628474   5.504   2.580   4.317  0.8747 -1.8631 -1.3517
   30MOL   H57728475   5.445   2.549   4.482 -0.7127  1.7458 -0.4234
   30MOL   O57828476   5.266   2.527   4.256 -0.3455  0.1505  0.2386
   30MOL   C57928477   5.142   2.481   4.204  0.0323 -0.3371 -0.7972
   30MOL   C58028478   5.164   2.463   4.054  0.4004  0.3453  0.7947
   30MOL   C58128479   5.257   2.345   4.014  0.4872  0.1876 -0.4483
   30MOL   C58228480   5.216   2.201   4.054 -0.1998 -0.5032 -0.5849
   30MOL   C58328481   5.311   2.092   4.001 -0.1764 -0.4092 -0.4766
   30MOL   C58428482   5.270   1.948   4.040  1.0319  0.1059 -0.2643
   30MOL   C58528483   5.379   1.839   4.002 -0.7865  0.0055  0.0782
   30MOL   C58628484   5.376   1.811   3.851  0.8382 -1.2235  0.2887
   30MOL   C58728485   5.471   1.705   3.803 -0.3279  0.3818  0.5251
   30MOL   C58828486   5.477   1.718   3.646  0.3493 -0.8027 -0.3753
   30MOL   O58928487   5.360   1.683   3.583  0.6160 -0.5542  0.0338
   30MOL   C59028488   5.343   1.654   3.452  0.5067  0.3473 -0.4593
   30MOL   O59128489   5.428   1.660   3.365  0.1489  0.9352  0.5600
   30MOL   C59228490   5.192   1.635   3.417 -0.4357  0.1795  0.4316
   30MOL   C59328491   5.132   1.510   3.488 -0.3188  0.3114 -0.0908
   30MOL   C59428492   4.989   1.470   3.452 -0.0519  0.1009 -0.0014
   30MOL   C59528493   4.929   1.345   3.525  0.1507  0.2350  0.0933
   30MOL   C59628494   4.934   1.356   3.680 -0.4836  0.6014  0.2875
   30MOL   O59728495   5.016   1.286   3.744  0.5730 -0.3515  0.7924
   30MOL   H59828496   5.092   2.390   4.238  0.7484 -0.7649 -0.8842
   30MOL   H59928497   5.072   2.564   4.213  1.7059  1.1049 -0.7829
   30MOL   H60028498   5.213   2.549   4.009 -0.3555  0.6005  0.4502
   30MOL   H60128499   5.073   2.455   3.995  0.4837 -3.0210  1.0104
   30MOL   H60228500   5.263   2.359   3.906 -2.5543  2.6524 -0.3542
   30MOL   H60328501   5.356   2.359   4.057  0.4688 -2.3778  0.5149
   30MOL   H60428502   5.127   2.179   3.996 -0.9165  0.3043  0.2114
   30MOL   H60528503   5.203   2.189   4.162  1.7431 -1.6916 -0.4561
   30MOL   H60628504   5.416   2.109   4.026 -0.2408  1.3683 -1.3875
   30MOL   H60728505   5.306   2.090   3.892  0.6237 -0.9835 -0.5090
   30MOL   H60828506   5.171   1.923   4.003  1.1792 -0.0025 -0.5866
   30MOL   H60928507   5.260   1.948   4.148 -0.7740 -2.1091 -0.3954
   30MOL   H61028508   5.363   1.742   4.050  0.0509 -0.5879 -0.8005
   30MOL   H61128509   5.482   1.864   4.029 -0.8396 -0.7174  0.9705
   30MOL   H61228510   5.404   1.897   3.790 -1.2534 -0.1906  0.7230
   30MOL   H61328511   5.275   1.779   3.824  0.2712  1.2567 -0.7193
   30MOL   H61428512   5.572   1.715   3.844 -0.2686  1.0463  0.2261
   30MOL   H61528513   5.433   1.606   3.828  1.3963 -0.7916 -1.4343
   30MOL   H61628514   5.556   1.651   3.614 -0.5534 -1.4836 -1.2084
   30MOL   H61728515   5.508   1.818   3.615 -1.1672 -1.1121 -3.0509
   30MOL   H61828516   5.143   1.729   3.445 -0.3178 -0.0567  1.4733
   30MOL   H61928517   5.171   1.626   3.311  1.3679 -1.7485  0.2058
   30MOL   H62028518   5.141   1.533   3.594 -0.2036  1.8875 -0.4345
   30MOL   H62128519   5.204   1.428   3.487 -0.5139  0.1087  1.6084
   30MOL   H62228520   4.973   1.459   3.345 -0.9099  0.5761  0.0729
   30MOL   H62328521   4.927   1.556   3.477 -0.0892  0.2307 -0.5353
   30MOL   H62428522   4.980   1.257   3.487  0.1658 -0.4802  1.7084
   30MOL   H62528523   4.824   1.350   3.497  0.4579  0.6946 -0.9768
   30MOL   O62628524   4.856   1.448   3.732  0.3558  0.2117 -0.4678
   30MOL   C62728525   4.852   1.443   3.880  0.1024  0.0758 -0.0997
   30MOL   C62828526   4.946   1.554   3.928  0.2125  0.1402 -0.5017
   30MOL   C62928527   4.944   1.553   4.082  0.1781  0.2711  0.6571
   30MOL   C63028528   5.045   1.654   4.129 -0.2554 -0.3817  0.2640
   30MOL   C63128529   5.060   1.657   4.284 -0.2359  0.0465  0.5571
   30MOL   C63228530   4.955   1.735   4.354 -0.7881 -0.1954  0.0754
   30MOL   C63328531   4.987   1.883   4.343 -0.7701  0.0866 -0.4143
   30MOL   C63428532   4.870   1.980   4.372  0.4663  0.8516  0.2495
   30MOL   C63528533   4.903   2.129   4.373  0.4778 -0.4329  0.7616
   30MOL   C63628534   4.781   2.215   4.413  0.0715  0.3224  0.4818
   30MOL   O63728535   4.809   2.352   4.392  0.7251  0.1240  0.3742
   30MOL   C63828536   4.724   2.439   4.435  0.1680 -0.9831 -0.1541
   30MOL   O63928537   4.623   2.415   4.506  0.4904 -0.4236 -0.2046
   30MOL   C64028538   4.758   2.578   4.390 -0.2716 -0.3557  0.5953
   30MOL   C64128539   4.695   2.599   4.246 -0.4676  0.2153  0.1348
   30MOL   C64228540   4.779   2.531   4.128  0.0155 -0.3207 -0.3511
   30MOL   C64328541   4.737   2.560   3.982 -0.1006  0.2914  0.7124
   30MOL   C64428542   4.587   2.537   3.955 -0.2593  0.2630 -0.1601
   30MOL   O64528543   4.516   2.618   3.905  0.2396 -0.1447  0.5836
   30MOL   H64628544   4.754   1.459   3.925  1.1221  1.6708  1.6029
   30MOL   H64728545   4.878   1.348   3.926 -0.6988  0.1593  0.5300
   30MOL   H64828546   4.903   1.647   3.891  0.7140 -0.0923 -1.6757
   30MOL   H64928547   5.050   1.529   3.912 -0.2896 -2.8782  0.4863
   30MOL   H65028548   4.844   1.568   4.123  0.8952  1.4463  2.0544
   30MOL   H65128549   4.974   1.453   4.112  0.7485  0.4658  0.7331
   30MOL   H65228550   5.008   1.748   4.089  0.9350 -0.8089 -1.8560
   30MOL   H65328551   5.141   1.634   4.083 -1.1227  1.0052 -2.2008
   30MOL   H65428552   5.158   1.700   4.300 -0.2827  0.3252  0.1048
   30MOL   H65528553   5.075   1.556   4.321 -2.4016  0.2953  2.2246
   30MOL   H65628554   4.948   1.704   4.459  1.0174 -0.7536  0.0403
   30MOL   H65728555   4.861   1.720   4.301 -0.1364 -0.7566 -0.9334
   30MOL   H65828556   5.031   1.902   4.245 -1.0205  0.4143 -0.4628
   30MOL   H65928557   5.070   1.914   4.407  1.1373 -0.7381 -2.4170
   30MOL   H66028558   4.842   1.952   4.473  1.4817 -1.7246 -0.1667
   30MOL   H66128559   4.783   1.961   4.309  1.3127  1.9182 -1.2957
   30MOL   H66228560   4.992   2.146   4.433 -0.1036 -1.0997  1.8202
   30MOL   H66328561   4.935   2.168   4.276  1.4989 -1.9374  0.4632
   30MOL   H66428562   4.765   2.201   4.520 -0.6085  0.2748  0.3764
   30MOL   H66528563   4.693   2.184   4.356  2.3659 -1.9837 -1.9421
   30MOL   H66628564   4.729   2.653   4.463  0.8325 -0.4370  1.1211
   30MOL   H66728565   4.866   2.585   4.392 -0.2303 -1.2885  1.8634
   30MOL   H66828566   4.690   2.708   4.237  0.0115  0.3838  1.8477
   30MOL   H66928567   4.589   2.574   4.249 -0.4122 -0.3615 -1.8887
   30MOL   H67028568   4.759   2.424   4.139 -1.7076  0.0245  0.0654
   30MOL   H67128569   4.887   2.541   4.134  0.2575 -0.1613 -3.7128
   30MOL   H67228570   4.785   2.502   3.903 -3.1346  1.5324 -2.1993
   30MOL   H67328571   4.760   2.662   3.950 -1.2948 -0.1213 -1.6162
   30MOL   O67428572   4.549   2.413   3.990  0.1174  0.7279 -0.0633
   30MOL   C67528573   4.420   2.362   3.979 -0.1532 -0.9091  0.1092
   30MOL   C67628574   4.405   2.223   4.046 -0.1270 -0.4363 -0.6848
   30MOL   C67728575   4.419   2.238   4.201 -0.0054 -0.6517  0.5678
   30MOL   C67828576   4.396   2.100   4.267 -0.0905 -0.1071 -0.3156
   30MOL   C67928577   4.405   2.105   4.421  0.2854 -0.5663  0.0194
   30MOL   C68028578   4.403   1.964   4.481 -0.0017 -0.1892  0.1589
   30MOL   C68128579   4.422   1.959   4.628 -0.7822 -0.5636  0.1540
   30MOL   C68228580   4.459   1.824   4.692  0.1532  0.0783 -0.2533
   30MOL   C68328581   4.587   1.755   4.644 -0.2958 -0.3532  0.6921
   30MOL   C68428582   4.603   1.637   4.730 -0.3909 -0.8263  0.1629
   30MOL   O68528583   4.716   1.566   4.674  0.4021  0.6600 -0.1526
   30MOL   C68628584   4.767   1.474   4.765  0.3440  0.1184 -0.1473
   30MOL   O68728585   4.721   1.446   4.873  0.0611  0.7170 -0.4552
   30MOL   C68828586   4.892   1.403   4.724  0.2281  0.4469 -0.0189
   30MOL   C68928587   4.883   1.272   4.659  0.2488 -0.0579 -0.2099
   30MOL   C69028588   4.795   1.262   4.533 -0.3988 -0.9783  0.1112
   30MOL   C69128589   4.841   1.348   4.415 -0.1729 -0.3738  0.2542
   30MOL   C69228590   4.725   1.357   4.314 -0.5433  0.1609 -0.4684
   30MOL   O69328591   4.694   1.265   4.248  0.1334 -0.0144 -0.6583
   30MOL   H69428592   4.343   2.432   4.009  0.1386  0.2946 -1.7981
   30MOL   H69528593   4.403   2.347   3.872  0.0032 -3.7690  0.4527
   30MOL   H69628594   4.476   2.159   3.994 -0.6804  0.3874 -2.4582
   30MOL   H69728595   4.305   2.185   4.026 -0.0311 -1.1167  0.0979
   30MOL   H69828596   4.508   2.283   4.244  0.9639 -0.3884 -1.6146
   30MOL   H69928597   4.338   2.303   4.233  2.2013  1.7204  1.4129
   30MOL   H70028598   4.451   2.015   4.225  0.1304 -1.2487  2.1982
   30MOL   H70128599   4.297   2.059   4.246 -0.4460  0.3539  0.4313
   30MOL   H70228600   4.326   2.159   4.471  0.3372 -0.0931 -0.4055
   30MOL   H70328601   4.501   2.152   4.441  0.5564 -0.9945 -0.2383
   30MOL   H70428602   4.490   1.913   4.441  1.3377 -0.5003  3.3017
   30MOL   H70528603   4.309   1.914   4.455 -1.4532  1.5954  1.7688
   30MOL   H70628604   4.337   2.007   4.678 -0.5412  0.9142 -0.8213
   30MOL   H70728605   4.504   2.026   4.651 -0.6772 -0.8804  0.7190
   30MOL   H70828606   4.378   1.760   4.655 -0.3061 -0.5396  1.7481
   30MOL   H70928607   4.453   1.829   4.801 -0.0539  1.0459 -0.3028
   30MOL   H71028608   4.574   1.724   4.540  1.6697 -2.2886  0.9910
   30MOL   H71128609   4.672   1.824   4.640 -1.4301  0.9879 -1.2009
   30MOL   H71228610   4.519   1.568   4.728 -2.0938  1.2340 -0.7065
   30MOL   H71328611   4.634   1.665   4.831  1.5705  0.4130 -0.7579
   30MOL   H71428612   4.951   1.468   4.660  0.4640 -0.0578 -0.3164
   30MOL   H71528613   4.951   1.390   4.816  1.4894  0.6008 -0.7932
   30MOL   H71628614   4.844   1.205   4.735  2.5374 -0.6098  0.5058
   30MOL   H71728615   4.984   1.237   4.636  0.8525  0.6541  1.2838
   30MOL   H71828616   4.701   1.312   4.558  0.8794  1.9130 -0.6025
   30MOL   H71928617   4.788   1.162   4.490 -0.7733 -0.9958  0.2131
   30MOL   H72028618   4.920   1.298   4.360  0.6886 -1.5861  2.5340
   30MOL   H72128619   4.879   1.445   4.446 -0.3293 -0.3400  0.3441
   30MOL   O72228620   4.664   1.481   4.307 -0.0750 -0.0813  0.2075
   30MOL   C72328621   4.551   1.501   4.223 -0.5310  0.1201  0.6474
   30MOL   C72428622   4.539   1.648   4.173  0.7988 -0.0471  0.5564
   30MOL   C72528623   4.456   1.645   4.046 -0.7185  0.5138  0.6705
   30MOL   C72628624   4.425   1.779   3.970  0.5515  0.2547 -0.3306
   30MOL   C72728625   4.321   1.763   3.864  0.2794  0.1107  0.1931
   30MOL   C72828626   4.304   1.897   3.791  0.4221  0.0101  1.2160
   30MOL   C72928627   4.173   1.901   3.706  0.0999 -1.0399  0.2349
   30MOL   C73028628   4.155   2.033   3.625 -0.0723 -0.5400 -0.6253
   30MOL   C73128629   4.122   2.148   3.727 -0.2802 -0.5732 -0.7342
   30MOL   C73228630   4.095   2.283   3.664  0.1291 -0.0630  0.2842
   30MOL   O73328631   3.994   2.266   3.560 -0.5659  0.6554 -0.1305
   30MOL   C73428632   4.014   2.295   3.430 -0.2981 -0.7105 -0.3875
   30MOL   O73528633   4.121   2.342   3.386  0.2760 -0.3668  0.8296
   30MOL   C73628634   3.888   2.280   3.347  0.5340  0.7257 -0.3079
   30MOL   C73728635   3.894   2.173   3.238  0.4485  0.2471  0.2098
   30MOL   C73828636   3.775   2.187   3.140  0.0148 -0.2383  0.8175
   30MOL   C73928637   3.635   2.183   3.199 -0.2260 -0.3974 -0.3897
   30MOL   C74028638   3.603   2.071   3.291  0.4270 -0.0298 -0.0142
   30MOL   O74128639   3.629   2.080   3.410  0.6556 -0.1676  0.4556
   30MOL   H74228640   4.563   1.446   4.129  0.4374  1.4079 -0.0125
   30MOL   H74328641   4.461   1.471   4.275 -0.5752  3.3600  2.6185
   30MOL   H74428642   4.632   1.702   4.156  0.2491  0.1202 -2.0028
   30MOL   H74528643   4.481   1.703   4.247 -0.5588 -1.4136  0.5355
   30MOL   H74628644   4.493   1.570   3.977 -1.1076  0.5782  0.3893
   30MOL   H74728645   4.363   1.595   4.074 -1.0647 -0.2110 -1.6654
   30MOL   H74828646   4.515   1.811   3.918  0.7994 -2.8069 -1.8856
   30MOL   H74928647   4.394   1.861   4.036 -0.4930 -1.5887  1.5416
   30MOL   H75028648   4.225   1.742   3.912 -0.5249 -0.6051 -1.6882
   30MOL   H75128649   4.345   1.678   3.800 -0.7615 -0.2310  0.2433
   30MOL   H75228650   4.386   1.908   3.721 -1.3871  2.4717 -0.6243
   30MOL   H75328651   4.278   1.985   3.850 -1.0434  0.9935 -0.8227
   30MOL   H75428652   4.083   1.886   3.767 -1.2909  1.0846 -1.2473
   30MOL   H75528653   4.171   1.811   3.644 -0.9425 -1.2038  0.5014
   30MOL   H75628654   4.067   2.022   3.561 -0.2476  0.3083 -0.5484
   30MOL   H75728655   4.237   2.056   3.558  1.0120 -1.3378  0.4148
   30MOL   H75828656   4.042   2.120   3.795  1.6315 -0.2801  1.7016
   30MOL   H75928657   4.212   2.171   3.784 -1.1918 -1.9205  1.2831
   30MOL   H76028658   4.175   2.329   3.607  0.2999  0.1725  0.7134
   30MOL   H76128659   4.071   2.358   3.739 -2.0035  1.2721 -1.6392
   30MOL   H76228660   3.804   2.265   3.415  0.2095 -0.8071 -1.0231
   30MOL   H76328661   3.865   2.378   3.305  1.1942  1.1113  0.2171
   30MOL   H76428662   3.892   2.079   3.293 -1.2447 -0.2084 -0.5909
   30MOL   H76528663   3.992   2.170   3.190 -0.3313  0.0738 -1.4138
   30MOL   H76628664   3.787   2.111   3.062  2.0219  2.2335 -1.3777
   30MOL   H76728665   3.782   2.284   3.091  0.2283 -0.6125  0.0984
   30MOL   H76828666   3.566   2.172   3.115  0.4121  1.2058 -1.1369
   30MOL   H76928667   3.614   2.277   3.248  2.5281 -0.7162  1.5124
   30MOL   O77028668   3.550   1.964   3.229  0.9040  0.3889  0.0660
   30MOL   C77128669   3.488   1.858   3.303 -0.8557  0.3536  0.5759
   30MOL   C77228670   3.448   1.749   3.204  0.7060 -0.3915 -0.0062
   30MOL   C77328671   3.368   1.637   3.271 -0.2660 -0.9903  0.6011
   30MOL   C77428672   3.439   1.562   3.378  0.1148  0.7490  0.1399
   30MOL   C77528673   3.551   1.468   3.336 -0.1849  0.2604 -0.4378
   30MOL   C77628674   3.661   1.446   3.440  0.3595 -0.6299  0.1184
   30MOL   C77728675   3.767   1.360   3.376  0.4053 -0.7153  0.4871
   30MOL   C77828676   3.904   1.366   3.450 -0.0549  0.3032  0.2935
   30MOL   C77928677   3.994   1.256   3.396 -0.1003 -0.0131 -0.0585
   30MOL   C78028678   4.148   1.274   3.444  0.1782  0.4104  1.2802
   30MOL   O78128679   4.214   1.376   3.377 -0.4720 -0.5714  0.1588
   30MOL   C78228680   4.276   1.349   3.263 -0.1354 -0.2340  0.9231
   30MOL   O78328681   4.312   1.236   3.224 -0.4915 -0.0052 -0.4997
   30MOL   C78428682   4.316   1.479   3.187 -0.1076 -0.2297  0.4239
   30MOL   C78528683   4.464   1.481   3.148 -0.2311  0.0345 -0.2570
   30MOL   C78628684   4.491   1.590   3.046  0.2159 -0.1536  0.6779
   30MOL   C78728685   4.638   1.593   2.998 -0.6533 -0.2995  0.0590
   30MOL   C78828686   4.690   1.468   2.915 -0.0043 -0.2612 -0.1796
   30MOL   O78928687   4.776   1.390   2.961 -0.2950 -0.1684  0.2776
   30MOL   H79028688   3.562   1.821   3.375  0.2832 -1.2015 -1.3595
   30MOL   H79128689   3.396   1.894   3.349 -1.2557  0.9380 -0.6568
   30MOL   H79228690   3.534   1.709   3.151  2.3334  1.9621  0.7693
   30MOL   H79328691   3.389   1.794   3.125  1.9638  2.4419  0.6367
   30MOL   H79428692   3.274   1.675   3.311 -0.5296 -1.1674  0.1570
   30MOL   H79528693   3.340   1.570   3.190  1.2656 -0.1390 -0.6658
   30MOL   H79628694   3.372   1.493   3.430  1.2176 -0.0617  0.5116
   30MOL   H79728695   3.462   1.632   3.459 -0.1914 -1.6099  2.3456
   30MOL   H79828696   3.595   1.519   3.250 -0.0553 -1.3613 -1.3665
   30MOL   H79928697   3.517   1.372   3.297  0.4511  0.4639 -1.5269
   30MOL   H80028698   3.615   1.382   3.516 -0.6414 -1.1117 -0.8793
   30MOL   H80128699   3.695   1.537   3.490 -2.2704  0.6594 -0.3630
   30MOL   H80228700   3.781   1.399   3.276 -0.8396 -1.1685  0.1296
   30MOL   H80328701   3.727   1.263   3.346 -1.2628  0.2000 -0.3304
   30MOL   H80428702   3.868   1.350   3.551  1.6635 -2.8967  0.4525
   30MOL   H80528703   3.965   1.456   3.439  0.0710  0.6430  3.5359
   30MOL   H80628704   3.967   1.153   3.418  0.8203 -0.1902  0.2915
   30MOL   H80728705   3.991   1.254   3.287  2.5196  3.1040 -0.2732
   30MOL   H80828706   4.207   1.183   3.428 -0.2028  0.5511 -1.1608
   30MOL   H80928707   4.169   1.308   3.545  0.3435  0.5840  1.1877
   30MOL   H81028708   4.263   1.492   3.092 -0.6684 -0.6732  0.6739
   30MOL   H81128709   4.288   1.566   3.246  2.8790 -0.9253  3.0292
   30MOL   H81228710   4.501   1.386   3.108 -1.1931 -0.4965  0.0744
   30MOL   H81328711   4.528   1.499   3.234  0.4343 -4.4198  0.3079
   30MOL   H81428712   4.470   1.685   3.094  0.5644  0.1490  0.2280
   30MOL   H81528713   4.428   1.572   2.958 -0.6626  0.0655  1.2581
   30MOL   H81628714   4.706   1.600   3.082  0.7148 -1.4303 -0.9219
   30MOL   H81728715   4.656   1.680   2.934 -0.9162  0.3858  0.9081
   30MOL   O81828716   4.627   1.457   2.801 -0.5257 -0.4581  0.0653
   30MOL   C81928717   4.647   1.347   2.718 -0.6070 -0.0952 -0.1367
   30MOL   C82028718   4.532   1.351   2.616 -0.2661 -0.0100  0.8100
   30MOL   C82128719   4.518   1.225   2.530  0.1736 -0.3892  0.0849
   30MOL   C82228720   4.429   1.263   2.406 -0.2920  0.9794  0.2081
   30MOL   C82328721   4.385   1.141   2.335 -0.0872  0.5536 -0.7664
   30MOL   C82428722   4.276   1.057   2.410 -0.3107  0.1872 -0.3268
   30MOL   C82528723   4.231   0.932   2.332 -0.1460  0.3338  0.9426
   30MOL   C82628724   4.137   0.846   2.426 -0.3392 -0.2220  0.4907
   30MOL   C82728725   4.080   0.719   2.353  0.1629 -0.0046  0.3484
   30MOL   C82828726   4.028   0.609   2.449  0.3969  0.5132  0.7862
   30MOL   O82928727   3.981   0.491   2.383  0.1164 -0.2979 -0.0520
   30MOL   C83028728   4.064   0.391   2.342 -0.9677 -0.7202  0.1972
   30MOL   O83128729   4.187   0.401   2.350  0.1354 -0.7058 -0.0592
   30MOL   C83228730   3.995   0.277   2.268  0.6254 -0.1481  0.5691
   30MOL   C83328731   3.948   0.317   2.122  0.5574  0.4314  0.3390
   30MOL   C83428732   3.847   0.216   2.061  0.4499 -0.4248 -0.1603
   30MOL   C83528733   3.824   0.249   1.917 -0.7384  0.0187 -0.2091
   30MOL   C83628734   3.713   0.355   1.906  0.2153 -0.3024  0.2580
   30MOL   O83728735   3.591   0.328   1.898  0.1845  0.7263 -0.1221
   30MOL   H83828736   4.744   1.352   2.669 -0.6031  0.0359 -0.1139
   30MOL   H83928737   4.644   1.247   2.760  2.9737 -0.3593 -0.3969
   30MOL   H84028738   4.542   1.428   2.540 -2.2864  0.7994  1.3295
   30MOL   H84128739   4.435   1.372   2.662 -0.5759 -1.0480  0.6565
   30MOL   H84228740   4.616   1.182   2.510  0.3855  0.2984 -0.3857
   30MOL   H84328741   4.465   1.151   2.589  2.0434 -0.6149  1.5438
   30MOL   H84428742   4.488   1.332   2.345  0.2569  0.0491 -0.3265
   30MOL   H84528743   4.336   1.311   2.435 -0.4768 -0.0848  1.3822
   30MOL   H84628744   4.472   1.076   2.326 -0.0999  0.4730 -0.3218
   30MOL   H84728745   4.336   1.162   2.240 -1.3188 -2.3046 -0.8244
   30MOL   H84828746   4.184   1.111   2.431 -0.1306 -0.3140  1.8135
   30MOL   H84928747   4.324   1.025   2.502  0.3379  0.8098 -0.4428
   30MOL   H85028748   4.315   0.876   2.291 -0.7368  2.0991 -2.8927
   30MOL   H85128749   4.176   0.970   2.246 -0.4191  1.3250  1.5447
   30MOL   H85228750   4.059   0.912   2.461  1.2670  0.4712  2.8686
   30MOL   H85328751   4.195   0.812   2.511  0.2435  1.7103  0.8914
   30MOL   H85428752   4.006   0.764   2.287  0.2146 -1.4668 -0.7116
   30MOL   H85528753   4.153   0.681   2.281  0.6985  0.4623  0.6374
   30MOL   H85628754   3.946   0.652   2.507 -1.3632 -1.9026  0.1589
   30MOL   H85728755   4.098   0.584   2.528  1.1104 -0.8342 -0.2421
   30MOL   H85828756   4.058   0.189   2.256 -1.0870 -1.0778 -2.0493
   30MOL   H85928757   3.906   0.245   2.323 -0.0544  0.7817  0.0326
   30MOL   H86028758   4.039   0.316   2.061  1.9122  0.4668  2.2922
   30MOL   H86128759   3.913   0.420   2.119 -1.4273 -0.2438 -0.8161
   30MOL   H86228760   3.750   0.195   2.107 -0.2213 -1.5510 -2.0677
   30MOL   H86328761   3.894   0.118   2.061  0.4427 -0.4445 -2.2857
   30MOL   H86428762   3.771   0.165   1.872 -0.5503  0.9197 -2.1350
   30MOL   H86528763   3.919   0.262   1.865 -0.5191  0.3866  0.2766
   30MOL   O86628764   3.762   0.482   1.923  0.1793  0.1749 -0.4762
   30MOL   C86728765   3.671   0.593   1.928 -0.2228  1.0353 -0.4473
   30MOL   C86828766   3.692   0.672   1.801  0.0222 -0.4375  0.2993
   30MOL   C86928767   3.593   0.789   1.803 -0.0582  0.1932 -0.5029
   30MOL   C87028768   3.603   0.879   1.682  0.3966  0.1270 -0.0807
   30MOL   C87128769   3.722   0.975   1.697 -0.3463  0.4847  0.1398
   30MOL   C87228770   3.766   1.063   1.580  0.3381  0.8122 -0.6632
   30MOL   C87328771   3.884   1.152   1.612  0.7155  0.0655  0.8034
   30MOL   C87428772   3.927   1.244   1.496 -0.4444 -0.2057  0.2094
   30MOL   C87528773   4.070   1.308   1.516 -0.3150  0.0061 -0.0144
   30MOL   C87628774   4.105   1.387   1.388 -0.7893 -0.1713  0.2843
   30MOL   O87728775   4.229   1.462   1.409  0.4128 -0.5866 -0.6950
   30MOL   C87828776   4.302   1.494   1.307 -0.7029  0.2713 -0.3991
   30MOL   O87928777   4.281   1.479   1.187 -0.5147  0.2968  0.7464
   30MOL   C88028778   4.427   1.570   1.350  0.6296  0.0546  0.4863
   30MOL   C88128779   4.494   1.671   1.250 -0.5617 -0.4895  0.0042
   30MOL   C88228780   4.416   1.792   1.214 -0.2302 -0.5562 -0.1418
   30MOL   C88328781   4.483   1.871   1.093  0.4526 -0.4082  0.2481
   30MOL   C88428782   4.470   1.802   0.964 -0.5547  0.4927 -0.2401
   30MOL   O88528783   4.364   1.817   0.902  0.1061  0.1968 -0.2879
   30MOL   H88628784   3.566   0.572   1.951 -1.2359  1.9703 -3.9617
   30MOL   H88728785   3.705   0.653   2.013 -2.0508  1.4889  0.0008
   30MOL   H88828786   3.675   0.616   1.710  0.4382  1.5307 -1.0281
   30MOL   H88928787   3.793   0.713   1.793 -0.1349  0.3022  1.8655
   30MOL   H89028788   3.489   0.758   1.798  0.1236 -0.3132 -1.1973
   30MOL   H89128789   3.606   0.853   1.890 -1.1527 -1.3371  0.8247
   30MOL   H89228790   3.513   0.940   1.673  0.2043  0.3357  2.8674
   30MOL   H89328791   3.612   0.812   1.596 -0.6821  1.9081 -1.6293
   30MOL   H89428792   3.813   0.923   1.728 -0.9302 -2.4400 -2.8085
   30MOL   H89528793   3.703   1.055   1.769 -0.9390  1.6638 -1.3142
   30MOL   H89628794   3.670   1.110   1.559  1.1117  2.0907 -1.4137
   30MOL   H89728795   3.787   1.017   1.483  2.7306  0.3178  0.0511
   30MOL   H89828796   3.967   1.085   1.632  0.0947 -0.9045  0.2141
   30MOL   H89928797   3.860   1.212   1.700  0.8593  2.2618 -0.6043
   30MOL   H90028798   3.858   1.327   1.483 -0.6647 -0.4292 -0.0566
   30MOL   H90128799   3.908   1.184   1.407 -1.4852 -1.6601  1.3793
   30MOL   H90228800   4.062   1.364   1.610 -1.3836  0.6338 -0.4647
   30MOL   H90328801   4.141   1.226   1.529  0.9711  1.5447  3.6168
   30MOL   H90428802   4.022   1.452   1.360 -0.6822 -0.3820 -0.5570
   30MOL   H90528803   4.120   1.314   1.308  1.0527  0.6851 -0.1842
   30MOL   H90628804   4.424   1.617   1.449  1.3800 -0.6578  0.8563
   30MOL   H90728805   4.504   1.495   1.367 -0.1531 -1.4622 -2.3883
   30MOL   H90828806   4.518   1.612   1.161 -0.4509 -0.4248 -0.0100
   30MOL   H90928807   4.589   1.692   1.299 -0.1706 -0.0374 -0.9366
   30MOL   H91028808   4.418   1.853   1.305 -0.5579 -0.0095 -0.4971
   30MOL   H91128809   4.312   1.764   1.194 -0.4733  0.2740 -0.0513
   30MOL   H91228810   4.588   1.885   1.120  0.7074  2.6818 -2.1178
   30MOL   H91328811   4.435   1.969   1.097 -2.6168 -1.6607 -3.5250
   30MOL   O91428812   4.585   1.744   0.930 -0.1804 -0.0075  0.0416
   30MOL   C91528813   4.592   1.656   0.819  0.6333  0.0219  0.0150
   30MOL   C91628814   4.690   1.711   0.719  0.6471  0.6590 -0.2055
   30MOL   C91728815   4.834   1.735   0.771 -0.7401  0.1255 -0.2586
   30MOL   C91828816   4.943   1.734   0.670  0.1735  0.4845  0.0080
   30MOL   C91928817   5.087   1.712   0.728  0.5580 -0.1480 -0.3491
   30MOL   C92028818   5.134   1.812   0.839 -0.1692  1.2682 -0.2368
   30MOL   C92128819   5.137   1.954   0.793  0.4569 -0.4307  0.0386
   30MOL   C92228820   5.154   2.063   0.900  0.4689  0.2468 -0.0549
   30MOL   C92328821   5.156   2.201   0.844 -0.6749  0.1942  0.0418
   30MOL   C92428822   5.181   2.312   0.955  0.0605 -0.7593 -0.0537
   30MOL   O92528823   5.316   2.325   0.977 -0.9237 -0.0353 -0.1524
   30MOL   C92628824   5.367   2.412   1.073  0.7000 -0.3032 -0.3971
   30MOL   O92728825   5.307   2.492   1.146  0.5773 -0.3518  0.4802
   30MOL   C92828826   5.517   2.396   1.073 -0.5147  0.6571  0.4305
   30MOL   C92928827   5.563   2.265   1.128 -0.5834  0.6737 -0.3693
   30MOL   C93028828   5.551   2.244   1.282  0.5095 -0.4584 -0.3634
   30MOL   C93128829   5.608   2.340   1.378 -0.0861  0.0943 -0.3337
   30MOL   C93228830   5.755   2.374   1.346 -0.6817  0.6445  0.1293
   30MOL   O93328831   5.846   2.289   1.370  0.1630  0.0801  0.2816
   30MOL   H93428832   4.612   1.552   0.843 -0.8496  0.0656  1.5039
   30MOL   H93528833   4.492   1.650   0.777  0.7525 -1.7291 -0.0545
   30MOL   H93628834   4.657   1.806   0.679 -1.1006  0.2627  0.2781
   30MOL   H93728835   4.674   1.647   0.632  1.4338  0.2517 -0.0566
   30MOL   H93828836   4.846   1.821   0.836  0.0328 -0.7965  0.8525
   30MOL   H93928837   4.848   1.652   0.841  0.0425  0.5999  0.1510
   30MOL   H94028838   4.940   1.826   0.611  0.9298  1.1963  1.0550
   30MOL   H94128839   4.916   1.651   0.604  0.3415 -0.2358  0.8348
   30MOL   H94228840   5.155   1.724   0.643 -1.0883  3.5364 -1.2418
   30MOL   H94328841   5.102   1.607   0.752  0.2334 -0.0485  0.2856
   30MOL   H94428842   5.222   1.778   0.894 -0.5623  1.2738  0.3945
   30MOL   H94528843   5.058   1.821   0.916  0.4411  1.8872  0.3073
   30MOL   H94628844   5.037   1.975   0.753  0.3796 -0.5902  0.1462
   30MOL   H94728845   5.216   1.963   0.718 -1.1146  2.8913 -1.3298
   30MOL   H94828846   5.251   2.039   0.944 -0.4492 -1.3247  1.1669
   30MOL   H94928847   5.081   2.050   0.980 -0.6336  0.7430 -0.9675
   30MOL   H95028848   5.225   2.209   0.760 -1.4209 -0.4752 -0.6377
   30MOL   H95128849   5.055   2.226   0.810 -1.2879 -0.9291  1.0190
   30MOL   H95228850   5.126   2.298   1.048  1.1984 -1.0066  0.5837
   30MOL   H95328851   5.149   2.408   0.912  0.2283 -0.7700 -0.2002
   30MOL   H95428852   5.542   2.412   0.968  1.7505  1.2508  1.0288
   30MOL   H95528853   5.556   2.477   1.134 -2.7432  2.1248 -0.0639
   30MOL   H95628854   5.665   2.247   1.095 -0.4274  1.7067 -0.4476
   30MOL   H95728855   5.511   2.180   1.083 -0.6067  1.3736 -1.6901
   30MOL   H95828856   5.585   2.143   1.302 -0.7056 -0.4019  2.1257
   30MOL   H95928857   5.445   2.236   1.302 -0.2553  2.8427 -2.5754
   30MOL   H96028858   5.601   2.308   1.482  1.2576 -0.6992 -0.4819
   30MOL   H96128859   5.572   2.443   1.370  1.4113  0.4470 -3.2118
   30MOL   H96228860   5.787   2.465   1.296  1.1471 -0.0854 -0.0699
   31MOL     O128861   0.120   2.207   1.407  0.1594 -0.7235 -0.7287
   31MOL     C228862   0.054   2.246   1.291  0.1476 -0.1352  0.1206
   31MOL     C328863   0.020   2.389   1.309  0.2157  0.6592 -0.0069
   31MOL     C428864   7.740   2.460   1.178  0.0810 -0.1688  0.1456
   31MOL     C528865   7.735   2.611   1.192  0.4048 -0.1880  0.4944
   31MOL     C628866   7.710   2.697   1.064  0.0264 -0.2452  0.5642
   31MOL     C728867   7.578   2.654   1.006 -0.2690  0.8964  0.1582
   31MOL     C828868   7.544   2.697   0.860  0.1024 -0.3134  0.2898
   31MOL     C928869   7.479   2.841   0.863  0.7375 -0.1550 -0.4362
   31MOL    C1028870   7.467   2.904   0.725  0.1267 -0.7007 -0.2600
   31MOL    C1128871   7.381   3.036   0.744 -0.3991  0.3325 -0.1353
   31MOL    O1228872   7.335   3.103   0.623  0.3017  0.1925 -0.1399
   31MOL    C1328873   7.230   3.042   0.558  0.2282  0.5217 -0.2733
   31MOL    O1428874   7.185   2.937   0.588  0.5350  0.5690  0.0470
   31MOL    C1528875   7.171   3.128   0.450 -1.1052  0.0570 -0.2603
   31MOL    C1628876   7.178   3.280   0.471 -0.0987  0.0601  0.6189
   31MOL    C1728877   7.052   3.342   0.539 -0.3673 -0.0470 -0.2388
   31MOL    C1828878   7.061   3.328   0.693 -0.2915 -0.0542  0.5076
   31MOL    C1928879   7.121   3.451   0.765 -0.0878  0.5631 -0.2180
   31MOL    O2028880   7.066   3.561   0.752  0.1539 -0.0851 -0.2244
   31MOL    H2128881   0.123   2.237   1.207 -0.4808  0.4216 -0.4613
   31MOL    H2228882   7.730   2.184   1.283  1.7070 -2.3310 -0.4824
   31MOL    H2328883   0.111   2.432   1.350  1.6536 -0.4841 -1.9193
   31MOL    H2428884   7.717   2.392   1.394  0.7471 -3.2369  0.6583
   31MOL    H2528885   0.048   2.434   1.101  0.2087  0.0987  0.1740
   31MOL    H2628886   7.644   2.420   1.147 -1.1409  1.8592  1.1597
   31MOL    H2728887   0.067   2.654   1.219 -0.1859  2.1801 -1.0166
   31MOL    H2828888   7.668   2.642   1.272  0.5020 -0.2019  0.5806
   31MOL    H2928889   0.028   2.681   0.995 -0.5507 -0.9954  0.0475
   31MOL    H3028890   7.706   2.804   1.089  0.2708 -0.5666  2.0282
   31MOL    H3128891   7.498   2.697   1.066 -0.5429 -0.0608  0.4854
   31MOL    H3228892   7.569   2.546   1.001 -2.2508  1.0065  0.8706
   31MOL    H3328893   7.480   2.622   0.815 -0.2382 -0.3308  0.8005
   31MOL    H3428894   7.633   2.698   0.797 -0.8907 -0.3644 -1.1362
   31MOL    H3528895   7.531   2.909   0.931  0.8039 -0.5840 -0.0592
   31MOL    H3628896   7.384   2.820   0.911  0.7291 -0.7856 -0.7248
   31MOL    H3728897   7.559   2.925   0.670  1.0101 -1.8630  0.7303
   31MOL    H3828898   7.412   2.831   0.667 -0.2846 -1.2574  0.8266
   31MOL    H3928899   7.436   3.096   0.816  0.7546 -0.9500  0.0734
   31MOL    H4028900   7.291   3.019   0.804  0.7429 -1.7039  1.0707
   31MOL    H4128901   7.205   3.087   0.355 -0.5674 -1.0519  0.4082
   31MOL    H4228902   7.066   3.101   0.438 -1.3224 -0.8971  3.4052
   31MOL    H4328903   7.175   3.322   0.370 -1.1373  1.3009  1.1523
   31MOL    H4428904   7.264   3.314   0.528 -0.3918 -0.1213  1.1694
   31MOL    H4528905   6.961   3.289   0.512 -0.4194 -0.1340  0.1076
   31MOL    H4628906   7.036   3.448   0.519 -4.3164  0.0135  2.7031
   31MOL    H4728907   7.116   3.240   0.726  1.3084  1.3288  1.6096
   31MOL    H4828908   6.963   3.337   0.738 -0.9629  0.8656 -1.0816
   31MOL    H4928909   0.117   2.112   1.409  0.1256 -0.7298 -1.0274
   31MOL    O5028910   7.245   3.434   0.806 -0.1750  0.2519  0.5731
   31MOL    C5128911   7.315   3.547   0.858  0.3693  0.1158  0.1508
   31MOL    C5228912   7.398   3.610   0.741  0.3278  0.1235 -1.3442
   31MOL    C5328913   7.321   3.635   0.613  0.0974 -0.1929  0.5226
   31MOL    C5428914   7.415   3.681   0.495 -0.3382 -0.3610 -0.7654
   31MOL    C5528915   7.338   3.695   0.359 -0.0234  0.5526 -0.0344
   31MOL    C5628916   7.422   3.733   0.237  0.0859 -0.1347 -0.1992
   31MOL    C5728917   7.490   3.870   0.253 -0.5909 -0.1381  0.2810
   31MOL    C5828918   7.412   4.000   0.264 -0.4028 -0.3533 -0.3669
   31MOL    C5928919   7.469   4.119   0.184 -0.1547 -1.2194  0.6691
   31MOL    C6028920   7.375   4.240   0.181  0.0415 -0.2820  0.0211
   31MOL    O6128921   7.440   4.337   0.104 -0.1623 -0.2844  0.5973
   31MOL    C6228922   7.383   4.459   0.104  0.6138 -0.6325 -1.0592
   31MOL    O6328923   7.268   4.485   0.158  0.0188  0.0551 -0.2827
   31MOL    C6428924   7.474   4.562   0.036  0.1528  0.2343  0.4435
   31MOL    C6528925   7.400   4.701   0.032  0.0935  0.4978  0.3860
   31MOL    C6628926   7.405   4.768   0.163  0.7054 -0.0201  0.4952
   31MOL    C6728927   7.316   4.896   0.159  0.1418 -0.0017  0.4046
   31MOL    C6828928   7.298   4.963   0.299  0.2423 -0.0865  0.1932
   31MOL    O6928929   7.190   5.004   0.334  0.0256 -0.2917 -0.6112
   31MOL    H7028930   7.249   3.628   0.888 -0.2873 -0.5675  0.5528
   31MOL    H7128931   7.371   3.512   0.944  2.9549 -0.5669 -1.7569
   31MOL    H7228932   7.485   3.548   0.721  0.8705  0.6181 -0.5853
   31MOL    H7328933   7.441   3.704   0.777  1.3010 -0.4758 -0.8938
   31MOL    H7428934   7.275   3.540   0.587 -0.9581  0.2332  0.7782
   31MOL    H7528935   7.246   3.710   0.640 -2.3195 -2.5696  0.6296
   31MOL    H7628936   7.492   3.605   0.479  0.3386  0.4040 -1.2312
   31MOL    H7728937   7.471   3.770   0.524  1.1291 -1.0747 -1.3791
   31MOL    H7828938   7.267   3.775   0.383  0.7625  1.2787 -0.1237
   31MOL    H7928939   7.269   3.615   0.333 -1.2868  1.6848 -0.2438
   31MOL    H8028940   7.356   3.739   0.151  1.5386  0.7946 -1.2761
   31MOL    H8128941   7.486   3.649   0.212  1.3832  0.4512  1.0971
   31MOL    H8228942   7.568   3.885   0.178 -0.1603 -2.0495  0.3278
   31MOL    H8328943   7.567   3.862   0.330 -1.4190  1.1036  1.2488
   31MOL    H8428944   7.406   4.030   0.369  3.6984 -0.6354  0.0281
   31MOL    H8528945   7.317   3.977   0.216 -1.0411 -0.4344  0.9002
   31MOL    H8628946   7.561   4.143   0.237  0.0328 -0.0075 -0.1819
   31MOL    H8728947   7.508   4.089   0.087 -0.4627 -0.7190  0.3923
   31MOL    H8828948   7.366   4.278   0.283  1.1202 -0.9895  0.4035
   31MOL    H8928949   7.277   4.226   0.137 -0.0390  0.6224 -0.0783
   31MOL    H9028950   7.567   4.559   0.092  0.8314 -2.0104 -0.7503
   31MOL    H9128951   7.505   4.523   7.703 -2.0195 -1.8779  0.5312
   31MOL    H9228952   7.300   4.678   7.759  0.2304  1.7472 -0.7913
   31MOL    H9328953   7.445   4.767   7.722  0.9593 -0.4585  0.0567
   31MOL    H9428954   7.509   4.785   0.191  1.0556 -0.4113 -0.5459
   31MOL    H9528955   7.357   4.696   0.230  1.6235  1.6113  2.9722
   31MOL    H9628956   7.216   4.880   0.121  0.6839 -3.9056  0.3974
   31MOL    H9728957   7.363   4.971   0.095  0.8371 -1.0903 -0.3767
   31MOL    O9828958   7.408   4.970   0.361 -0.2421  0.1795 -0.4433
   31MOL    C9928959   7.416   5.035   0.491  0.3362 -0.6681 -0.6573
   31MOL   C10028960   7.423   5.189   0.475 -0.0156  0.0272 -0.2707
   31MOL   C10128961   7.447   5.258   0.610 -0.2382 -0.6407  0.5132
   31MOL   C10228962   7.581   5.236   0.668 -0.7400 -0.5642  0.0063
   31MOL   C10328963   7.702   5.265   0.578 -0.5765  0.3475 -0.5737
   31MOL   C10428964   7.732   5.415   0.545  0.0395 -0.4045  0.4480
   31MOL   C10528965   7.713   5.496   0.666 -0.0916  0.4155 -0.4886
   31MOL   C10628966   7.757   5.642   0.646  0.2670  0.7584 -0.3642
   31MOL   C10728967   7.704   5.739   0.757 -0.1255 -0.1112 -0.1956
   31MOL   C10828968   7.753   5.884   0.740  0.2952  0.7289 -0.4012
   31MOL   O10928969   7.722   5.940   0.612  0.2223 -0.0311 -0.7215
   31MOL   C11028970   7.621   6.017   0.592  0.1357 -0.0171  0.0644
   31MOL   O11128971   7.530   6.044   0.676 -0.0435  0.1442 -0.3560
   31MOL   C11228972   7.607   6.083   0.455  0.3082  0.1105 -0.2296
   31MOL   C11328973   7.640   6.002   0.326 -0.7579 -0.4009 -0.2175
   31MOL   C11428974   7.549   5.869   0.316  0.2204 -0.0827 -0.2217
   31MOL   C11528975   7.536   5.811   0.179  0.0040 -0.3398  0.6703
   31MOL   C11628976   7.453   5.897   0.083  0.4081  0.4162  0.4603
   31MOL   O11728977   7.499   5.959   7.753 -0.1088 -0.3184  0.9039
   31MOL   H11828978   7.327   5.012   0.550  1.2472 -2.2726  0.1232
   31MOL   H11928979   7.512   5.002   0.529  0.5708 -0.5510 -1.1401
   31MOL   H12028980   7.328   5.226   0.438  0.4431  1.5769  0.0617
   31MOL   H12128981   7.492   5.217   0.396  0.7632 -1.7045 -0.2356
   31MOL   H12228982   7.450   5.367   0.598 -0.3636 -0.5195  1.4977
   31MOL   H12328983   7.366   5.232   0.679 -0.4810  2.1428  1.3850
   31MOL   H12428984   7.577   5.138   0.715  2.0207 -1.1990 -1.0215
   31MOL   H12528985   7.588   5.301   0.755 -2.1194 -1.0572  0.5071
   31MOL   H12628986   7.687   5.206   0.488 -0.2512 -1.1674  0.3420
   31MOL   H12728987   0.027   5.218   0.620  0.3199  2.8398  0.3941
   31MOL   H12828988   7.666   5.438   0.462 -0.6092 -1.6411  0.6156
   31MOL   H12928989   0.066   5.426   0.499 -0.2757  0.5993  0.0129
   31MOL   H13028990   0.015   5.454   0.740 -2.2166 -1.8757  0.1894
   31MOL   H13128991   7.612   5.502   0.706 -0.4791 -1.6694 -1.0721
   31MOL   H13228992   7.712   5.672   0.551  1.0629 -1.4560 -1.4592
   31MOL   H13328993   0.100   5.649   0.632  0.5698 -0.1065  1.4086
   31MOL   H13428994   7.596   5.739   0.748 -0.0341  1.1458 -1.5497
   31MOL   H13528995   7.729   5.703   0.857 -1.5259 -0.3961  0.0601
   31MOL   H13628996   0.096   5.895   0.748  0.2835  1.4520 -1.2427
   31MOL   H13728997   7.705   5.939   0.822  0.4592 -1.8148  1.4800
   31MOL   H13828998   7.501   6.105   0.444 -0.0204 -1.0965  0.3559
   31MOL   H13928999   7.662   6.177   0.457 -3.0417  2.2125  5.4312
   31MOL   H14029000   7.747   5.980   0.316 -0.5690 -0.4565  1.6089
   31MOL   H14129001   7.617   6.084   0.259  2.5862  1.6447  0.9836
   31MOL   H14229002   7.446   5.888   0.346 -0.2999  1.3402 -2.8100
   31MOL   H14329003   7.572   5.793   0.391 -0.7020  0.4910  0.6681
   31MOL   H14429004   7.481   5.717   0.181  0.4565 -0.6631 -1.0765
   31MOL   H14529005   7.632   5.783   0.136 -0.7740  0.2573 -1.5374
   31MOL   O14629006   7.322   5.880   0.108  0.5443  0.0130 -0.1886
   31MOL   C14729007   7.229   5.966   0.049  0.0976 -0.6965  0.2782
   31MOL   C14829008   7.220   6.105   0.117  0.2766  0.5307 -0.0729
   31MOL   C14929009   7.097   6.176   0.067 -0.0950 -0.0901 -0.2765
   31MOL   C15029010   7.050   6.299   0.139  0.6068 -0.0802 -0.6238
   31MOL   C15129011   6.913   6.343   0.097  0.8943  0.1159 -0.3839
   31MOL   C15229012   6.887   6.489   0.138 -0.4255 -0.4603  0.0376
   31MOL   C15329013   6.768   6.553   0.076 -0.3933  0.1860  0.0857
   31MOL   C15429014   6.691   6.671   0.144 -0.5096 -0.0368  0.3314
   31MOL   C15529015   6.587   6.724   0.044  0.0895  0.0161  0.0879
   31MOL   C15629016   6.500   6.838   0.092  0.1509  0.8132 -0.4458
   31MOL   O15729017   6.407   6.872   7.754  0.0655  0.4822  0.0857
   31MOL   C15829018   6.326   6.977   0.015 -0.2624  0.2813  0.2337
   31MOL   O15929019   6.329   7.055   0.111  0.2017  0.0513  0.6293
   31MOL   C16029020   6.218   7.004   7.679 -0.1235  0.0189 -0.1857
   31MOL   C16129021   6.265   7.021   7.533  0.5029 -0.2508 -0.8627
   31MOL   C16229022   6.324   7.158   7.510 -0.5035  0.5417 -0.2344
   31MOL   C16329023   6.217   7.276   7.503 -0.1160 -0.0920  0.9631
   31MOL   C16429024   6.109   7.273   7.395 -0.0705 -0.1571  0.3163
   31MOL   O16529025   5.999   7.314   7.416 -0.1690  0.2416 -0.3846
   31MOL   H16629026   7.244   5.963   7.706  1.0404  1.0383  0.3559
   31MOL   H16729027   7.131   5.918   0.061 -0.8826  0.3863 -3.0130
   31MOL   H16829028   7.308   6.168   0.101  0.3755 -0.0212 -1.7852
   31MOL   H16929029   7.210   6.084   0.223  1.6219  2.5030  0.4725
   31MOL   H17029030   7.131   6.207   7.733 -2.5534 -0.3682 -1.2478
   31MOL   H17129031   7.006   6.118   0.048 -2.2011  3.0303 -0.2005
   31MOL   H17229032   7.117   6.383   0.123  1.2872 -0.9650 -2.7095
   31MOL   H17329033   7.046   6.285   0.247  2.0709  2.4316 -0.2070
   31MOL   H17429034   6.841   6.267   0.131 -0.1314  1.0023 -0.5440
   31MOL   H17529035   6.902   6.334   7.754  1.7549  0.9546 -0.5448
   31MOL   H17629036   6.968   6.561   0.124 -1.7086  0.9725 -0.1979
   31MOL   H17729037   6.876   6.500   0.246  1.7708  0.5119  0.1807
   31MOL   H17829038   6.697   6.471   0.082  0.2270 -0.3540  0.1501
   31MOL   H17929039   6.803   6.575   7.739 -2.6703  1.0238 -0.5351
   31MOL   H18029040   6.758   6.752   0.174  0.5904  0.1501 -2.4753
   31MOL   H18129041   6.647   6.622   0.231 -0.9693 -0.2591 -0.0205
   31MOL   H18229042   6.643   6.771   7.728 -0.0860 -2.9429 -1.8499
   31MOL   H18329043   6.520   6.644   0.012 -0.8000  1.2990 -1.3721
   31MOL   H18429044   6.561   6.928   0.106  3.9069 -1.8716  1.1771
   31MOL   H18529045   6.465   6.813   0.192  1.4559 -0.4854 -0.2994
   31MOL   H18629046   6.163   6.910   7.691  1.1056 -0.7185 -0.2176
   31MOL   H18729047   6.163   7.093   7.710 -1.4592 -0.6990 -0.4081
   31MOL   H18829048   6.175   7.022   7.471 -0.7093  1.8912  0.8330
   31MOL   H18929049   6.329   6.940   7.501  0.9034  0.2584 -1.3497
   31MOL   H19029050   6.386   7.164   7.421  0.1119  0.2267  0.1702
   31MOL   H19129051   6.395   7.180   7.589 -0.3427  0.8924 -0.4785
   31MOL   H19229052   6.266   7.369   7.475  1.7399 -1.1490  0.6462
   31MOL   H19329053   6.169   7.289   7.600  1.6112  0.2074  1.8015
   31MOL   O19429054   6.155   7.223   7.273  0.0253 -0.0820 -0.4265
   31MOL   C19529055   6.065   7.200   7.174  0.5669  0.2610  0.5871
   31MOL   C19629056   6.080   7.055   7.127 -0.0529 -0.1014 -0.2156
   31MOL   C19729057   5.989   7.029   7.001 -0.3380 -0.2383 -0.4682
   31MOL   C19829058   5.996   6.882   6.966 -0.1185 -0.1954 -0.6047
   31MOL   C19929059   5.948   6.855   6.822 -0.0014  0.4876  0.7191
   31MOL   C20029060   5.919   6.713   6.767 -0.4564 -0.1240  0.3683
   31MOL   C20129061   5.811   6.621   6.837 -0.4985 -0.5901 -0.0067
   31MOL   C20229062   5.819   6.469   6.809  0.0487 -0.4707  0.7069
   31MOL   C20329063   5.947   6.396   6.862 -0.3340 -0.2320 -0.0247
   31MOL   C20429064   5.984   6.271   6.777  0.2394  0.4348  1.1017
   31MOL   O20529065   6.041   6.325   6.659  0.3398  0.2077 -0.3770
   31MOL   C20629066   6.170   6.324   6.646 -0.3014 -0.2933 -0.3526
   31MOL   O20729067   6.254   6.271   6.721 -0.2572  0.0723  0.7513
   31MOL   C20829068   6.215   6.397   6.518 -0.2615 -0.3993 -0.3227
   31MOL   C20929069   6.233   6.553   6.546 -0.1656  0.0943 -0.0131
   31MOL   C21029070   6.333   6.594   6.659 -0.0859  0.5732  0.3079
   31MOL   C21129071   6.339   6.744   6.709  0.1849  0.0272 -0.2976
   31MOL   C21229072   6.419   6.746   6.837 -0.2808  0.3572  0.1349
   31MOL   O21329073   6.387   6.801   6.941 -0.6693 -0.3034 -0.4312
   31MOL   H21429074   5.962   7.230   7.192  0.2708  0.6597 -1.6680
   31MOL   H21529075   6.088   7.268   7.092  0.7132  1.6351  1.7505
   31MOL   H21629076   6.044   6.981   7.199  1.2485 -0.9854 -0.4648
   31MOL   H21729077   6.186   7.037   7.111  0.3630  2.6037 -0.7572
   31MOL   H21829078   5.887   7.056   7.029 -0.2270 -1.2627  0.9928
   31MOL   H21929079   5.993   7.110   6.929 -3.2190  1.6307  1.3421
   31MOL   H22029080   5.942   6.819   7.037 -1.4279  0.8392 -0.6505
   31MOL   H22129081   6.097   6.844   6.978 -0.2298 -0.4965 -0.6150
   31MOL   H22229082   6.024   6.890   6.752 -1.4267  1.6128 -0.2991
   31MOL   H22329083   5.851   6.901   6.802  0.6451  1.8759  0.7169
   31MOL   H22429084   6.012   6.657   6.755 -1.2157 -0.8968 -2.0112
   31MOL   H22529085   5.882   6.727   6.666  0.9551 -2.8800 -0.5625
   31MOL   H22629086   5.714   6.653   6.799 -0.3335  0.1324  0.1893
   31MOL   H22729087   5.818   6.646   6.943  1.5331  0.3757 -0.3392
   31MOL   H22829088   5.816   6.434   6.706 -1.1382  0.8334  0.2853
   31MOL   H22929089   5.731   6.413   6.841 -0.2305 -1.9601 -2.4739
   31MOL   H23029090   6.027   6.468   6.843 -0.2583 -1.2913 -4.3277
   31MOL   H23129091   5.932   6.388   6.970 -1.6622 -1.0740 -0.2550
   31MOL   H23229092   5.893   6.212   6.764  1.0199 -0.8813  1.5719
   31MOL   H23329093   6.060   6.214   6.831 -0.4151  0.9502  2.6054
   31MOL   H23429094   6.307   6.351   6.482  0.4911  0.5132  0.4188
   31MOL   H23529095   6.132   6.387   6.448 -0.2834  0.1789 -0.3763
   31MOL   H23629096   6.135   6.595   6.565 -0.6779 -1.1120  0.0363
   31MOL   H23729097   6.289   6.593   6.462  2.7331 -0.1475  1.7240
   31MOL   H23829098   6.436   6.572   6.633  0.2832  0.0452  2.1180
   31MOL   H23929099   6.309   6.540   6.751  3.9910  1.7539  2.1671
   31MOL   H24029100   6.249   6.794   6.746  1.0053  0.0197  1.7408
   31MOL   H24129101   6.380   6.803   6.628  1.1500 -0.3945 -0.1156
   31MOL   O24229102   6.537   6.682   6.822  0.3624 -0.2080 -0.1417
   31MOL   C24329103   6.611   6.633   6.933 -0.2602  0.7548 -0.0083
   31MOL   C24429104   6.758   6.598   6.904  0.1880 -0.2381  0.2319
   31MOL   C24529105   6.830   6.568   7.041 -0.5703  0.0202 -0.2007
   31MOL   C24629106   6.975   6.527   7.016  0.2927 -0.2097 -0.4929
   31MOL   C24729107   7.049   6.499   7.149  0.0104 -0.4192 -0.3330
   31MOL   C24829108   7.196   6.454   7.118  0.0924 -0.2933  0.4282
   31MOL   C24929109   7.279   6.556   7.046  0.1170  0.0021  0.4052
   31MOL   C25029110   7.414   6.501   7.008 -0.7461  0.2548  0.3046
   31MOL   C25129111   7.508   6.610   6.945  0.0645 -0.6257  0.3026
   31MOL   C25229112   7.655   6.575   6.945 -0.1227 -0.9452  0.1687
   31MOL   O25329113   7.736   6.685   6.940 -0.0673  0.2419  0.2791
   31MOL   C25429114   0.105   6.672   6.949  0.2428 -0.3160 -0.3860
   31MOL   O25529115   0.164   6.572   6.991  1.0025 -0.1012 -0.2382
   31MOL   C25629116   0.171   6.794   6.911  0.0131 -0.4441  0.0177
   31MOL   C25729117   0.229   6.779   6.770 -0.0382  0.5231  0.1807
   31MOL   C25829118   0.302   6.890   6.697  0.3099  0.0289 -0.3439
   31MOL   C25929119   0.416   6.952   6.780 -0.3768  0.4597 -0.1135
   31MOL   C26029120   0.533   6.855   6.776  0.3181  0.2187 -0.6453
   31MOL   O26129121   0.570   6.796   6.881  0.0768 -0.0180  0.3360
   31MOL   H26229122   6.610   6.704   7.015  0.7306  1.0559 -0.2468
   31MOL   H26329123   6.552   6.553   6.976  2.8176 -0.5330  1.9452
   31MOL   H26429124   6.814   6.679   6.857  0.8659 -0.0933  1.2649
   31MOL   H26529125   6.759   6.508   6.844 -1.3763  0.9212 -1.5883
   31MOL   H26629126   6.819   6.652   7.109  0.8173  0.5237 -0.5804
   31MOL   H26729127   6.789   6.480   7.090 -0.0959  0.3645  0.8218
   31MOL   H26829128   7.028   6.609   6.968  2.0513 -0.8490  0.3092
   31MOL   H26929129   6.981   6.449   6.940 -0.0826 -1.2398  0.5226
   31MOL   H27029130   7.013   6.414   7.207  0.5899 -0.8106 -0.5298
   31MOL   H27129131   7.056   6.584   7.217  2.0140 -0.9770  0.2189
   31MOL   H27229132   7.181   6.367   7.055 -0.1429  1.5417 -2.1315
   31MOL   H27329133   7.256   6.419   7.202  1.2697  1.6511  0.4349
   31MOL   H27429134   7.299   6.644   7.108  0.6395 -0.3361  0.7226
   31MOL   H27529135   7.234   6.605   6.960 -0.9911 -0.4451  0.7222
   31MOL   H27629136   7.413   6.417   6.938  0.2088  1.4104 -1.1346
   31MOL   H27729137   7.474   6.481   7.096 -0.7859 -0.0077  0.2719
   31MOL   H27829138   7.489   6.637   6.841  0.3525 -0.7947  0.2044
   31MOL   H27929139   7.502   6.702   7.002 -3.4097  0.3168 -1.4232
   31MOL   H28029140   7.687   6.507   6.867  2.7839  2.1605 -1.4883
   31MOL   H28129141   7.669   6.520   7.038  0.4057 -2.1069 -0.5829
   31MOL   H28229142   0.098   6.874   6.901  1.1097  0.3107 -2.3282
   31MOL   H28329143   0.244   6.830   6.983 -1.7363  0.1050  1.5503
   31MOL   H28429144   0.142   6.756   6.709  0.5968 -0.3030 -0.4216
   31MOL   H28529145   0.290   6.689   6.759 -1.9668 -0.6728 -1.0101
   31MOL   H28629146   0.233   6.967   6.662 -1.6809 -1.1512  0.8864
   31MOL   H28729147   0.342   6.852   6.603 -1.2758  1.0444 -1.4634
   31MOL   H28829148   0.384   6.976   6.882 -0.0922  1.5185 -0.2593
   31MOL   H28929149   0.448   7.052   6.749  1.3226 -0.5094 -1.5909
   31MOL   O29029150   0.595   6.847   6.659 -0.2442  0.4190  0.1977
   31MOL   C29129151   0.717   6.769   6.641 -0.1710 -0.8587 -0.7330
   31MOL   C29229152   0.805   6.818   6.529 -0.1497 -0.3295  0.7080
   31MOL   C29329153   0.947   6.748   6.513  0.6851 -0.3746  0.3006
   31MOL   C29429154   1.039   6.821   6.423 -0.2017 -0.5165  0.2840
   31MOL   C29529155   1.166   6.735   6.405  0.3084 -0.5748  0.3169
   31MOL   C29629156   1.241   6.714   6.536 -0.0474  0.3344 -0.2737
   31MOL   C29729157   1.375   6.642   6.512 -0.0420  0.0238 -0.0758
   31MOL   C29829158   1.465   6.647   6.631  0.5670  0.1499 -0.0625
   31MOL   C29929159   1.581   6.547   6.625 -0.4364 -0.3312  0.6423
   31MOL   C30029160   1.681   6.562   6.744 -0.4474  0.3437  0.5323
   31MOL   O30129161   1.782   6.662   6.724  0.7051  0.7258 -0.0633
   31MOL   C30229162   1.853   6.699   6.833 -0.1490 -0.3627 -0.8493
   31MOL   O30329163   1.860   6.636   6.939 -0.0431  0.3833 -0.5439
   31MOL   C30429164   1.938   6.818   6.810 -0.1626  0.2202 -0.5184
   31MOL   C30529165   1.855   6.948   6.816 -0.3059  0.6694  0.3754
   31MOL   C30629166   1.792   6.988   6.955 -1.0057 -0.2301  0.4535
   31MOL   C30729167   1.698   7.111   6.959 -0.2389  0.0039  0.0890
   31MOL   C30829168   1.564   7.094   6.880  0.2760 -0.3083 -0.2678
   31MOL   O30929169   1.499   6.985   6.875 -0.2106 -0.1132 -0.3376
   31MOL   H31029170   0.775   6.781   6.732 -0.9031  2.6152 -0.6618
   31MOL   H31129171   0.692   6.663   6.628 -0.6892 -0.9821  1.1226
   31MOL   H31229172   0.812   6.927   6.535 -3.6103  0.0685 -1.2032
   31MOL   H31329173   0.760   6.803   6.431 -1.2266 -2.3792  1.4864
   31MOL   H31429174   0.984   6.767   6.614 -1.3690 -0.7667  1.1642
   31MOL   H31529175   0.934   6.640   6.499 -1.7173  0.0067 -0.5590
   31MOL   H31629176   1.065   6.922   6.456 -2.4617  0.2145 -0.0696
   31MOL   H31729177   0.989   6.836   6.327  0.1750  0.9158  0.3037
   31MOL   H31829178   1.230   6.783   6.331 -2.2784  0.2370 -1.4451
   31MOL   H31929179   1.147   6.644   6.348 -2.1747  1.1120 -1.6604
   31MOL   H32029180   1.179   6.652   6.601  3.4807 -0.1352  2.8188
   31MOL   H32129181   1.261   6.801   6.599  0.0461  1.0349 -1.2589
   31MOL   H32229182   1.429   6.683   6.427  0.3838 -0.7141 -0.1662
   31MOL   H32329183   1.356   6.537   6.487 -1.4803 -0.1284  1.5124
   31MOL   H32429184   1.404   6.622   6.718  1.6131 -1.8870  0.1191
   31MOL   H32529185   1.503   6.748   6.650  1.7549 -0.2656 -0.2027
   31MOL   H32629186   1.551   6.443   6.639 -0.6191 -0.0256  2.7673
   31MOL   H32729187   1.640   6.556   6.534 -0.9863  0.9801  0.4158
   31MOL   H32829188   1.734   6.467   6.744  2.1425  1.7083 -0.0973
   31MOL   H32929189   1.623   6.580   6.834 -0.1977  0.8567  0.5944
   31MOL   H33029190   2.023   6.826   6.877 -0.6210  1.4651 -0.0614
   31MOL   H33129191   1.976   6.820   6.707  1.3749 -0.0581  0.0372
   31MOL   H33229192   1.775   6.939   6.742  2.0721 -0.3513 -2.1638
   31MOL   H33329193   1.912   7.035   6.785 -1.0878  1.0031 -0.1582
   31MOL   H33429194   1.871   6.995   7.030  0.2856  2.1521 -1.0625
   31MOL   H33529195   1.735   6.903   6.992 -1.5442 -0.6416 -1.3059
   31MOL   H33629196   1.744   7.194   6.905 -1.6256 -0.0848 -1.2342
   31MOL   H33729197   1.677   7.138   7.063  0.6126 -1.6943  0.7168
   31MOL   O33829198   1.528   7.209   6.818  0.3452 -0.0742 -0.2114
   31MOL   C33929199   1.415   7.216   6.742  0.3297 -0.0986  0.2588
   31MOL   C34029200   1.442   7.177   6.595 -0.3314  0.0147  0.0873
   31MOL   C34129201   1.311   7.134   6.531  0.1065  0.1993 -0.6707
   31MOL   C34229202   1.328   7.067   6.396  0.8839 -0.5419  0.1843
   31MOL   C34329203   1.396   7.158   6.291 -0.1225 -0.0590  0.3927
   31MOL   C34429204   1.446   7.079   6.168 -0.9373 -0.1705 -0.0901
   31MOL   C34529205   1.531   7.182   6.094 -0.3987  0.1822 -0.0779
   31MOL   C34629206   1.563   7.125   5.959  0.0176  0.4355 -0.0347
   31MOL   C34729207   1.646   7.222   5.866 -0.0490  0.4335  0.1434
   31MOL   C34829208   1.643   7.171   5.717 -0.0022 -0.7097  0.2667
   31MOL   O34929209   1.678   7.033   5.702 -0.6392 -0.3025  0.4887
   31MOL   C35029210   1.805   6.994   5.707 -0.3543  0.2093  0.3151
   31MOL   O35129211   1.901   7.071   5.706  0.2694 -1.1378 -0.1602
   31MOL   C35229212   1.830   6.843   5.687 -0.1319 -0.1395  0.9372
   31MOL   C35329213   1.783   6.756   5.804  0.4563  0.0800  0.6532
   31MOL   C35429214   1.645   6.707   5.799 -0.0215 -0.0087 -0.6189
   31MOL   C35529215   1.630   6.598   5.690 -0.0353  0.0433 -0.4157
   31MOL   C35629216   1.485   6.557   5.687  0.1740  0.3705 -0.1069
   31MOL   O35729217   1.401   6.611   5.617 -0.9722 -0.0875 -0.3645
   31MOL   H35829218   1.340   7.146   6.780 -0.6471  1.0450  0.4602
   31MOL   H35929219   1.365   7.312   6.746  0.6554  0.0328  1.5647
   31MOL   H36029220   1.510   7.092   6.590  0.5177  0.6273  0.9624
   31MOL   H36129221   1.491   7.263   6.549 -0.1049  0.2719  0.8037
   31MOL   H36229222   1.254   7.062   6.589  2.2096 -0.8319  0.1937
   31MOL   H36329223   1.242   7.217   6.524 -1.5346 -1.1464 -0.7671
   31MOL   H36429224   1.231   7.032   6.362  0.9378  0.4698 -1.0572
   31MOL   H36529225   1.390   6.982   6.424  0.7941 -0.4730  0.5965
   31MOL   H36629226   1.474   7.214   6.343  1.3605 -1.0414 -0.7022
   31MOL   H36729227   1.322   7.233   6.264  0.2708 -0.1595 -1.0214
   31MOL   H36829228   1.358   7.052   6.110 -1.2730 -0.7828  0.6979
   31MOL   H36929229   1.492   6.990   6.209 -0.4034  0.6860  1.2105
   31MOL   H37029230   1.625   7.200   6.146  0.2879 -0.0765 -1.2105
   31MOL   H37129231   1.475   7.274   6.081  0.0454  0.4168 -0.3311
   31MOL   H37229232   1.468   7.101   5.912 -0.7390 -0.3001  1.8402
   31MOL   H37329233   1.630   7.039   5.969  0.0036  0.6402  2.0888
   31MOL   H37429234   1.607   7.324   5.861  0.2183  0.5356  0.1435
   31MOL   H37529235   1.748   7.240   5.898 -0.0191 -1.6093  1.2624
   31MOL   H37629236   1.691   7.234   5.642 -0.6456 -1.0263 -0.4067
   31MOL   H37729237   1.541   7.183   5.681  0.2987 -1.7454 -0.9279
   31MOL   H37829238   1.804   6.791   5.594  2.1141 -1.4376  1.0205
   31MOL   H37929239   1.938   6.850   5.682 -0.2109  0.3890 -0.2065
   31MOL   H38029240   1.808   6.803   5.899  2.5261 -1.6865  1.0090
   31MOL   H38129241   1.837   6.662   5.812 -0.0836 -0.1332  1.8567
   31MOL   H38229242   1.574   6.788   5.785 -1.2788 -1.1832 -1.1386
   31MOL   H38329243   1.637   6.657   5.896  0.4457 -2.3854 -1.7758
   31MOL   H38429244   1.687   6.509   5.717  0.4081  0.7786  1.1098
   31MOL   H38529245   1.654   6.627   5.588  1.3268  2.4205  0.5503
   31MOL   O38629246   1.456   6.457   5.770  0.2719  0.2801  0.1788
   31MOL   C38729247   1.314   6.419   5.781 -0.3143 -0.3069  0.2362
   31MOL   C38829248   1.250   6.426   5.928  0.9142 -0.1455  0.0514
   31MOL   C38929249   1.234   6.562   5.991 -0.0464  0.1282  0.5098
   31MOL   C39029250   1.149   6.658   5.909  0.4323 -0.3177  0.4631
   31MOL   C39129251   1.165   6.800   5.970  0.3968  0.3078 -0.1654
   31MOL   C39229252   1.056   6.909   5.920  0.3422  0.7628  0.0007
   31MOL   C39329253   1.073   7.050   5.990  0.3987 -0.2071  0.4735
   31MOL   C39429254   1.031   7.041   6.134 -0.3023 -0.1440  0.2939
   31MOL   C39529255   1.030   7.172   6.200 -0.1287 -0.6970 -0.1589
   31MOL   C39629256   0.907   7.254   6.177 -0.1989 -0.4329 -0.1998
   31MOL   O39729257   0.800   7.180   6.232 -0.1037 -0.3852  0.1270
   31MOL   C39829258   0.678   7.234   6.233 -0.3581  0.7022 -0.4531
   31MOL   O39929259   0.648   7.340   6.187  0.0536  0.3584 -0.0446
   31MOL   C40029260   0.574   7.149   6.299 -0.6273  0.1049  0.4698
   31MOL   C40129261   0.526   7.040   6.207  0.6777  0.4821  0.8242
   31MOL   C40229262   0.437   6.945   6.285  0.2724  0.2361  0.2975
   31MOL   C40329263   0.400   6.817   6.200  0.4317  0.1358  0.5170
   31MOL   C40429264   0.305   6.726   6.278 -0.5821  0.2543 -0.8423
   31MOL   O40529265   0.292   6.722   6.400 -0.2037 -0.2203 -0.4906
   31MOL   H40629266   1.252   6.463   5.703 -0.0491  1.7582  1.1452
   31MOL   H40729267   1.308   6.318   5.741 -0.8094  0.3373 -1.3814
   31MOL   H40829268   1.296   6.357   5.999  0.5229 -0.6860 -0.2115
   31MOL   H40929269   1.151   6.381   5.929 -0.2174  2.2713  1.7672
   31MOL   H41029270   1.186   6.554   6.088 -2.3172 -1.9188 -0.7186
   31MOL   H41129271   1.327   6.610   6.021 -0.5387  0.5280  1.4185
   31MOL   H41229272   1.046   6.624   5.901  0.2906  0.4931 -1.3462
   31MOL   H41329273   1.184   6.649   5.806  0.1091  0.0997  0.3153
   31MOL   H41429274   1.263   6.840   5.946  0.9217  0.5395  2.2685
   31MOL   H41529275   1.154   6.787   6.078 -3.1739 -1.0046 -0.6053
   31MOL   H41629276   0.960   6.863   5.943  0.1906  0.7658 -0.5951
   31MOL   H41729277   1.063   6.929   5.813  0.0751  2.0570  0.2156
   31MOL   H41829278   1.029   7.129   5.928 -0.7135 -0.5199  0.8666
   31MOL   H41929279   1.179   7.074   5.990  0.1669  0.8317  0.6028
   31MOL   H42029280   1.092   6.972   6.192 -3.8942 -2.9214  0.9102
   31MOL   H42129281   0.928   7.006   6.133 -0.0831 -0.8125  0.6076
   31MOL   H42229282   1.051   7.165   6.307 -0.9300 -2.4454 -0.0938
   31MOL   H42329283   1.107   7.231   6.152 -0.1121  0.5655  1.3873
   31MOL   H42429284   0.892   7.285   6.074 -1.8996 -0.7930 -0.0707
   31MOL   H42529285   0.913   7.341   6.244 -0.9719  0.1809 -0.9181
   31MOL   H42629286   0.628   7.108   6.385 -0.8143  2.0753  1.5541
   31MOL   H42729287   0.488   7.202   6.337 -0.2982 -1.1063  3.0124
   31MOL   H42829288   0.613   6.981   6.178 -2.1600 -1.9827 -3.3001
   31MOL   H42929289   0.468   7.078   6.123 -0.7946  1.7921  2.3836
   31MOL   H43029290   0.348   6.993   6.325 -0.9520 -1.8303  0.0912
   31MOL   H43129291   0.491   6.901   6.369  0.5451  3.0292  1.6596
   31MOL   H43229292   0.498   6.770   6.187 -0.2268 -1.8092  2.3032
   31MOL   H43329293   0.372   6.846   6.099  0.7012 -0.7242  0.1877
   31MOL   O43429294   0.233   6.656   6.185 -0.0853 -0.0871 -0.1555
   31MOL   C43529295   0.120   6.574   6.221  0.0503 -0.4117 -0.0956
   31MOL   C43629296   0.143   6.421   6.212 -0.0632  0.7776  0.4635
   31MOL   C43729297   0.210   6.361   6.335  0.9499 -0.9398 -0.7082
   31MOL   C43829298   0.261   6.213   6.319  0.4351 -0.3232 -0.6221
   31MOL   C43929299   0.375   6.205   6.214  0.0770  0.5643 -0.5732
   31MOL   C44029300   0.470   6.081   6.214  0.9917  0.3335 -0.0860
   31MOL   C44129301   0.580   6.074   6.108  0.4182  0.6172  0.4305
   31MOL   C44229302   0.666   5.944   6.121 -0.1256  0.3138 -0.2662
   31MOL   C44329303   0.805   5.937   6.045  0.2871 -0.2038  0.1456
   31MOL   C44429304   0.883   5.802   6.064 -0.0559 -0.1659  0.2693
   31MOL   O44529305   1.025   5.813   6.049 -0.1500  0.3180 -0.0963
   31MOL   C44629306   1.078   5.692   6.037 -0.2167  0.4034  0.1256
   31MOL   O44729307   1.028   5.585   6.037 -0.0867  0.5263  0.2800
   31MOL   C44829308   1.223   5.695   6.000 -0.0214 -0.0023 -0.5753
   31MOL   C44929309   1.305   5.571   6.043  0.1560  0.0449 -0.0885
   31MOL   C45029310   1.298   5.438   5.963  0.1918  0.4331 -0.1932
   31MOL   C45129311   1.427   5.353   5.982  1.2209 -0.1341  0.0643
   31MOL   C45229312   1.555   5.392   5.906 -0.7059 -0.1423 -1.2485
   31MOL   O45329313   1.555   5.478   5.817 -0.3768  0.4488  0.2462
   31MOL   H45429314   0.069   6.592   6.315  0.8068 -0.5399  0.3393
   31MOL   H45529315   0.044   6.596   6.146 -0.0621  2.3355  0.7772
   31MOL   H45629316   0.195   6.395   6.120  1.6905  0.6542  1.4738
   31MOL   H45729317   0.048   6.369   6.199  0.7331 -0.4382 -0.6037
   31MOL   H45829318   0.307   6.408   6.350  1.7510 -3.4538  2.7464
   31MOL   H45929319   0.159   6.376   6.430 -1.5582  0.1385 -2.2080
   31MOL   H46029320   0.192   6.139   6.278  1.2076 -0.2958 -2.0087
   31MOL   H46129321   0.293   6.184   6.419  1.7286 -0.5262 -1.0930
   31MOL   H46229322   0.440   6.291   6.234 -1.9606  1.6051  1.7669
   31MOL   H46329323   0.347   6.216   6.109 -0.3956  1.3495 -0.3725
   31MOL   H46429324   0.416   5.986   6.213  1.0461  0.3056 -1.5997
   31MOL   H46529325   0.524   6.090   6.309  0.8365  0.7682 -0.0353
   31MOL   H46629326   0.640   6.163   6.126 -0.9790  1.9619 -1.3901
   31MOL   H46729327   0.542   6.085   6.006 -0.8386  1.3072  0.9747
   31MOL   H46829328   0.605   5.866   6.074 -1.3918  0.9882  0.2285
   31MOL   H46929329   0.673   5.912   6.225  0.3685  0.7926 -0.1535
   31MOL   H47029330   0.792   5.962   5.939 -1.8421 -1.2762  0.1355
   31MOL   H47129331   0.866   6.016   6.088  0.5526 -0.5836  0.4656
   31MOL   H47229332   0.845   5.734   5.988  1.4677 -1.4312  0.6278
   31MOL   H47329333   0.861   5.764   6.164 -2.9540  0.7272  0.0365
   31MOL   H47429334   1.220   5.705   5.891 -0.9091  1.3001 -0.4412
   31MOL   H47529335   1.275   5.787   6.026 -0.0533  0.6148 -2.5594
   31MOL   H47629336   1.281   5.545   6.146 -1.9087 -0.5974 -0.6977
   31MOL   H47729337   1.412   5.589   6.048 -0.1200  1.8518 -0.6702
   31MOL   H47829338   1.273   5.468   5.862 -0.4932 -0.6633 -0.3568
   31MOL   H47929339   1.210   5.377   5.983  0.5149 -0.3648 -1.1810
   31MOL   H48029340   1.403   5.251   5.949  1.2041 -1.4914  3.9652
   31MOL   H48129341   1.463   5.335   6.083  0.0086 -2.2447  0.1505
   31MOL   O48229342   1.663   5.333   5.958  0.6463  0.4220  0.5042
   31MOL   C48329343   1.801   5.364   5.909  0.2228  0.0441 -0.7431
   31MOL   C48429344   1.856   5.480   6.004 -0.0333 -0.4279  0.4879
   31MOL   C48529345   2.014   5.496   5.995  0.0665 -0.1593 -0.3393
   31MOL   C48629346   2.049   5.628   6.063 -0.4709  0.7313 -0.1577
   31MOL   C48729347   2.048   5.756   5.978  0.7856 -0.4064 -0.3770
   31MOL   C48829348   2.102   5.877   6.051  0.4961  0.8005 -0.0797
   31MOL   C48929349   2.099   6.003   5.965 -0.4683 -0.0325  0.4105
   31MOL   C49029350   2.153   6.130   6.027 -0.2230 -0.5178  0.8170
   31MOL   C49129351   2.036   6.210   6.100  0.0578 -0.1018  0.3645
   31MOL   C49229352   2.077   6.354   6.105  0.2242  0.1947 -0.2941
   31MOL   O49329353   2.189   6.374   6.192 -0.2774 -0.3246  0.1521
   31MOL   C49429354   2.253   6.490   6.203 -0.7639 -0.0105  0.2330
   31MOL   O49529355   2.202   6.598   6.168  0.9344  0.3912 -0.3906
   31MOL   C49629356   2.387   6.470   6.265  0.3023  0.1119 -0.0157
   31MOL   C49729357   2.443   6.569   6.362 -0.4406  0.3375 -0.3928
   31MOL   C49829358   2.354   6.638   6.460  0.0005 -0.4162  0.3112
   31MOL   C49929359   2.419   6.756   6.524 -0.2698  0.0529 -0.2069
   31MOL   C50029360   2.330   6.825   6.625 -0.4398  0.2475  0.1857
   31MOL   O50129361   2.213   6.797   6.650 -0.7385  0.7594 -0.4172
   31MOL   H50229362   1.855   5.270   5.911 -0.4597 -0.3487 -0.4155
   31MOL   H50329363   1.798   5.398   5.806 -0.2569 -0.5333 -0.9235
   31MOL   H50429364   1.820   5.461   6.105 -0.7158  3.9657  1.1669
   31MOL   H50529365   1.809   5.576   5.982 -0.4252 -0.0313  2.9380
   31MOL   H50629366   2.072   5.420   6.048  2.5408  1.9864  0.1402
   31MOL   H50729367   2.037   5.489   5.889 -0.6110  0.0175 -0.5014
   31MOL   H50829368   2.152   5.636   6.098 -0.4346  2.3729 -0.5868
   31MOL   H50929369   1.995   5.625   6.158 -0.9910 -0.3121 -0.4833
   31MOL   H51029370   1.946   5.766   5.942  0.3050 -0.6586  0.8951
   31MOL   H51129371   2.110   5.742   5.889  0.2099  1.4131 -1.0819
   31MOL   H51229372   2.200   5.868   6.099  0.1444  2.2752  0.9613
   31MOL   H51329373   2.028   5.901   6.127  1.6499  0.6811  1.1060
   31MOL   H51429374   1.995   6.026   5.941 -0.0715  0.5412 -0.8172
   31MOL   H51529375   2.154   5.964   5.879 -1.0166  0.1823 -0.0417
   31MOL   H51629376   2.198   6.196   5.953 -1.8153  1.4816  1.5923
   31MOL   H51729377   2.220   6.106   6.109 -0.6398 -0.1873  1.2501
   31MOL   H51829378   1.942   6.206   6.045  0.6892  1.8703 -0.8676
   31MOL   H51929379   2.004   6.187   6.202 -3.0665 -0.4767 -0.6233
   31MOL   H52029380   2.001   6.426   6.136  0.1900 -0.7572  1.9370
   31MOL   H52129381   2.105   6.385   6.005 -1.8673 -0.3512 -1.0972
   31MOL   H52229382   2.374   6.378   6.322  2.1072  1.1158  2.0750
   31MOL   H52329383   2.448   6.441   6.179  1.1822  0.3469  0.5313
   31MOL   H52429384   2.489   6.637   6.291  0.8122 -1.5838 -1.4636
   31MOL   H52529385   2.512   6.507   6.419 -2.3056 -2.4460 -1.0686
   31MOL   H52629386   2.305   6.566   6.525  1.1339 -0.6064  0.9646
   31MOL   H52729387   2.272   6.679   6.402  0.2732  0.0264  0.2341
   31MOL   H52829388   2.463   6.825   6.452  0.2003 -0.3223 -0.2757
   31MOL   H52929389   2.504   6.711   6.574 -0.9536 -1.4885 -0.4114
   31MOL   O53029390   2.395   6.930   6.673 -0.1192  0.4892  0.2590
   31MOL   C53129391   2.326   7.023   6.760 -0.2881  1.4006 -0.1344
   31MOL   C53229392   2.216   7.112   6.693 -0.9008 -0.2268 -0.0354
   31MOL   C53329393   2.173   7.224   6.786 -0.9860  0.5585  0.0967
   31MOL   C53429394   2.124   7.350   6.713 -0.2376 -0.2003 -0.7718
   31MOL   C53529395   1.976   7.344   6.674  0.2555 -0.1473  0.5875
   31MOL   C53629396   1.904   7.479   6.643 -0.0430 -0.4418 -0.0290
   31MOL   C53729397   1.757   7.473   6.615  0.0180  0.2126  0.5374
   31MOL   C53829398   1.681   7.606   6.611 -0.4440  0.5457  0.2179
   31MOL   C53929399   1.530   7.592   6.626  0.2622  0.1386  0.0622
   31MOL   C54029400   1.458   7.724   6.618  0.2383 -0.5963 -0.3747
   31MOL   O54129401   1.482   0.046   6.508  0.0875 -0.2273  0.1946
   31MOL   C54229402   1.528   0.170   6.530  0.8606  0.0263 -0.7611
   31MOL   O54329403   1.569   0.214   6.638  0.0050  0.2340  0.1114
   31MOL   C54429404   1.544   0.248   6.399 -0.0129  0.1675  0.2953
   31MOL   C54529405   1.598   0.389   6.416 -0.4540 -0.5236 -0.6329
   31MOL   C54629406   1.501   0.503   6.469 -1.4762 -0.4726 -0.1621
   31MOL   C54729407   1.387   0.533   6.375 -0.7316  0.3248 -1.0334
   31MOL   C54829408   1.400   0.662   6.296  1.1039  0.1740  0.9522
   31MOL   O54929409   1.298   0.738   6.287 -0.4737 -0.1383  0.1117
   31MOL   H55029410   2.277   6.958   6.833 -0.5541  1.5735 -0.1603
   31MOL   H55129411   2.404   7.075   6.817  0.4333  1.8303 -1.4838
   31MOL   H55229412   2.132   7.065   6.642 -0.1723  0.2197 -1.6903
   31MOL   H55329413   2.282   7.153   6.617 -1.0369 -1.5324 -0.8770
   31MOL   H55429414   2.089   7.187   6.846 -0.4782 -0.4489  0.1976
   31MOL   H55529415   2.256   7.247   6.852 -1.8715  0.5194  1.2552
   31MOL   H55629416   2.186   7.369   6.626  0.6882 -2.4415 -0.6432
   31MOL   H55729417   2.121   7.437   6.779  0.1214 -1.8410  1.4867
   31MOL   H55829418   1.934   7.293   6.760 -0.2661  0.3385  0.6232
   31MOL   H55929419   1.958   7.276   6.591  2.8152  0.0116 -0.1612
   31MOL   H56029420   1.940   7.528   6.553 -2.1272  2.0354  0.4129
   31MOL   H56129421   1.923   7.543   6.729 -0.3397  0.2432 -0.4636
   31MOL   H56229422   1.706   7.420   6.695 -1.5458 -2.3384 -2.0648
   31MOL   H56329423   1.725   7.413   6.530  0.0941 -0.0631  0.7058
   31MOL   H56429424   1.707   7.662   6.521 -1.0308 -0.1703 -0.4031
   31MOL   H56529425   1.706   7.673   6.693 -1.4757  1.3883 -0.1349
   31MOL   H56629426   1.501   7.532   6.539  3.4914 -1.4370 -0.0432
   31MOL   H56729427   1.502   7.539   6.717  0.0161 -0.4590 -0.3599
   31MOL   H56829428   1.450   0.013   6.713 -2.7377 -1.6099  0.0024
   31MOL   H56929429   1.351   7.705   6.604 -0.1226  0.2658  1.0629
   31MOL   H57029430   1.604   0.192   6.328 -1.0882 -1.8644  0.9405
   31MOL   H57129431   1.446   0.241   6.351  0.9707 -2.1287 -1.4769
   31MOL   H57229432   1.628   0.431   6.320 -2.8879 -0.1974 -1.2783
   31MOL   H57329433   1.696   0.389   6.464 -1.2465  1.6955  1.0663
   31MOL   H57429434   1.579   0.576   6.488 -1.6835  0.0168 -1.1303
   31MOL   H57529435   1.458   0.481   6.566 -1.4221  1.9262  0.4253
   31MOL   H57629436   1.303   0.539   6.443  0.7633  0.0334  0.8999
   31MOL   H57729437   1.369   0.441   6.318  4.0444 -1.8520  0.6978
   31MOL   O57829438   1.514   0.671   6.229  0.7770 -0.2151  0.2256
   31MOL   C57929439   1.563   0.790   6.176 -0.3202 -0.3914  0.5350
   31MOL   C58029440   1.595   0.754   6.029 -0.7719  0.4009 -0.5335
   31MOL   C58129441   1.646   0.877   5.947 -0.8036 -0.7361  0.0199
   31MOL   C58229442   1.665   0.849   5.795  0.7577 -0.7163 -0.3950
   31MOL   C58329443   1.709   0.978   5.719 -0.2538  0.1336  0.2040
   31MOL   C58429444   1.675   1.002   5.566 -0.0532  1.6891 -0.3281
   31MOL   C58529445   1.719   1.140   5.518 -0.1308  0.2049 -0.5643
   31MOL   C58629446   1.709   1.156   5.366  0.4814 -0.0194  1.0332
   31MOL   C58729447   1.726   1.304   5.316 -1.0497  0.4860  0.8548
   31MOL   C58829448   1.698   1.332   5.167 -0.0871 -0.4483 -0.4690
   31MOL   O58929449   1.563   1.312   5.132  0.2672  0.0699  0.5793
   31MOL   C59029450   1.468   1.403   5.161  0.2037  0.0686  0.1784
   31MOL   O59129451   1.493   1.514   5.212 -0.3745 -0.2687  0.0002
   31MOL   C59229452   1.328   1.363   5.122  0.2160 -1.0710 -0.4201
   31MOL   C59329453   1.269   1.435   5.003  0.9826 -0.2336 -0.5254
   31MOL   C59429454   1.340   1.414   4.871 -0.5472 -0.3615 -0.0613
   31MOL   C59529455   1.255   1.449   4.745  0.5740  0.4630  0.0174
   31MOL   C59629456   1.152   1.345   4.719 -0.0712 -0.5146 -0.6423
   31MOL   O59729457   1.158   1.229   4.760 -0.7749 -0.3317 -0.0961
   31MOL   H59829458   1.494   0.875   6.173 -1.9257 -1.7219 -2.8063
   31MOL   H59929459   1.645   0.824   6.239 -0.0682  1.5714 -0.7876
   31MOL   H60029460   1.508   0.707   5.980 -0.0647 -0.7084 -0.7560
   31MOL   H60129461   1.675   0.680   6.031 -0.9567  0.1471 -1.8354
   31MOL   H60229462   1.572   0.957   5.960 -1.4297 -1.2134 -0.5581
   31MOL   H60329463   1.737   0.924   5.985  0.5548 -4.4508  1.5991
   31MOL   H60429464   1.570   0.805   5.762  0.3031  0.5759 -0.8294
   31MOL   H60529465   1.735   0.768   5.772 -0.1947 -1.5636 -0.3769
   31MOL   H60629466   1.812   1.004   5.745  0.3766  0.4154 -2.4355
   31MOL   H60729467   1.649   1.056   5.767  2.0463  0.9100  1.9159
   31MOL   H60829468   1.568   1.006   5.546 -0.2146  0.2994  0.1651
   31MOL   H60929469   1.713   0.915   5.513 -1.0116  0.6328  0.6785
   31MOL   H61029470   1.825   1.152   5.542 -0.5410 -1.0439  2.0984
   31MOL   H61129471   1.659   1.220   5.560 -0.7524 -0.0914 -0.8852
   31MOL   H61229472   1.607   1.134   5.336  0.2627  0.5815  1.3302
   31MOL   H61329473   1.776   1.096   5.304 -1.1441 -4.4703  3.4250
   31MOL   H61429474   1.656   1.364   5.374 -0.7851  1.0019  0.6455
   31MOL   H61529475   1.828   1.341   5.333 -0.4140 -0.7271 -0.2226
   31MOL   H61629476   1.749   1.261   5.102  0.8974  0.0750 -0.2879
   31MOL   H61729477   1.745   1.427   5.140 -0.0795 -0.2374  0.2679
   31MOL   H61829478   1.334   1.259   5.092  1.0335 -0.5124 -2.2531
   31MOL   H61929479   1.263   1.376   5.209  0.7465  0.8573 -0.2841
   31MOL   H62029480   1.260   1.540   5.032 -1.7709 -0.3423 -0.8196
   31MOL   H62129481   1.163   1.408   4.998  0.8210  0.7419 -2.4717
   31MOL   H62229482   1.387   1.316   4.862 -0.1441 -0.0247 -1.8763
   31MOL   H62329483   1.411   1.497   4.872 -0.6672 -0.2409 -1.1385
   31MOL   H62429484   1.321   1.465   4.659 -0.8337  0.2080 -1.1384
   31MOL   H62529485   1.201   1.543   4.753 -1.5782 -0.7932  0.6154
   31MOL   O62629486   1.059   1.398   4.643  0.1823 -0.3450 -0.1062
   31MOL   C62729487   0.946   1.320   4.610  0.3592  0.5161  0.7104
   31MOL   C62829488   0.873   1.392   4.493  0.2834 -0.1540  0.0480
   31MOL   C62929489   0.755   1.323   4.428  0.7772  0.5007 -0.0688
   31MOL   C63029490   0.678   1.397   4.323 -0.2246  0.5015 -0.5109
   31MOL   C63129491   0.754   1.405   4.187 -0.2772  0.0618  0.3027
   31MOL   C63229492   0.693   1.483   4.074  0.2945  0.8476  0.8689
   31MOL   C63329493   0.687   1.629   4.097 -0.5945  0.4227  0.1585
   31MOL   C63429494   0.825   1.700   4.109  0.0745 -0.4860 -0.0417
   31MOL   C63529495   0.807   1.854   4.121 -0.0868  0.3064  0.5254
   31MOL   C63629496   0.945   1.918   4.125  0.8794  0.2396  0.5499
   31MOL   O63729497   0.941   2.060   4.122  0.4269 -0.2086 -0.1518
   31MOL   C63829498   1.016   2.128   4.042 -0.7327 -1.3933 -0.2226
   31MOL   O63929499   1.114   2.085   3.978  0.0889  0.0339 -0.4289
   31MOL   C64029500   0.987   2.278   4.049 -0.2402  0.2268  0.2036
   31MOL   C64129501   0.846   2.319   4.001 -0.5622 -0.2005  0.4971
   31MOL   C64229502   0.803   2.234   3.879 -0.1381 -0.4850 -0.1783
   31MOL   C64329503   0.680   2.287   3.803 -0.2481  0.2325 -0.0404
   31MOL   C64429504   0.550   2.280   3.876  0.3497 -0.2520  0.5048
   31MOL   O64529505   0.461   2.348   3.837 -1.0562 -0.4828 -0.0562
   31MOL   H64629506   0.970   1.230   4.553  0.4969 -0.1772  1.8446
   31MOL   H64729507   0.882   1.294   4.694 -2.2254 -0.6379 -1.5563
   31MOL   H64829508   0.943   1.412   4.412  2.4844  1.9045  2.3620
   31MOL   H64929509   0.843   1.492   4.523 -1.0924 -0.1256 -1.3886
   31MOL   H65029510   0.790   1.237   4.372  0.3883  0.3003 -0.0008
   31MOL   H65129511   0.682   1.285   4.500 -0.2466 -1.2333 -2.0046
   31MOL   H65229512   0.662   1.497   4.363 -0.4591 -0.1181  0.9560
   31MOL   H65329513   0.575   1.365   4.308 -0.3100  1.0636 -1.1935
   31MOL   H65429514   0.769   1.304   4.148  0.2891  0.3554 -0.2436
   31MOL   H65529515   0.855   1.444   4.199 -0.9471  1.8922  0.1372
   31MOL   H65629516   0.592   1.452   4.050  0.3285  1.4861 -0.1039
   31MOL   H65729517   0.750   1.464   3.983 -2.5217  1.1642 -1.0104
   31MOL   H65829518   0.631   1.662   4.185 -0.9935 -1.3328  0.5820
   31MOL   H65929519   0.644   1.679   4.010 -0.0780 -0.7649 -0.8044
   31MOL   H66029520   0.886   1.677   4.022  1.0799  0.5084  0.3915
   31MOL   H66129521   0.872   1.662   4.200 -1.4898 -4.5744 -0.8356
   31MOL   H66229522   0.754   1.884   4.031  1.5524 -1.6654 -1.1489
   31MOL   H66329523   0.763   1.875   4.219 -0.6278  2.8183 -0.2297
   31MOL   H66429524   1.012   1.889   4.044  1.1274  3.4701 -0.4789
   31MOL   H66529525   0.990   1.885   4.218 -1.0936 -0.6804  1.2071
   31MOL   H66629526   1.017   2.313   4.148 -2.2242  2.7106 -0.0112
   31MOL   H66729527   1.050   2.335   3.980 -0.1672  3.1921  2.5977
   31MOL   H66829528   0.838   2.427   3.984  0.5432  0.0899  1.7121
   31MOL   H66929529   0.778   2.296   4.083 -0.0872 -1.1172  0.6336
   31MOL   H67029530   0.780   2.134   3.914 -1.1292 -0.4379 -0.6940
   31MOL   H67129531   0.887   2.206   3.815  1.0476  0.5524  0.8751
   31MOL   H67229532   0.665   2.248   3.702 -0.3732  1.0806 -0.3514
   31MOL   H67329533   0.700   2.393   3.789  3.3615 -0.6268 -2.0228
   31MOL   O67429534   0.551   2.205   3.992  0.5974  0.0214  0.1266
   31MOL   C67529535   0.436   2.207   4.081 -0.4215 -0.3198 -0.5192
   31MOL   C67629536   0.338   2.091   4.061 -0.0332 -0.7434  0.2910
   31MOL   C67729537   0.392   1.953   4.105 -0.2817 -0.5381 -0.4173
   31MOL   C67829538   0.300   1.851   4.035 -0.5427 -0.4679 -0.2400
   31MOL   C67929539   0.323   1.712   4.102  0.2392  0.0599  0.1382
   31MOL   C68029540   0.218   1.598   4.070  0.2269  0.1708 -0.0616
   31MOL   C68129541   0.254   1.461   4.133 -0.0882  0.1672 -0.6788
   31MOL   C68229542   0.203   1.455   4.274 -0.5845 -0.8204  0.4502
   31MOL   C68329543   0.252   1.333   4.352  0.1143 -0.3935  0.1919
   31MOL   C68429544   0.198   1.325   4.497 -0.1641 -0.2234  0.0867
   31MOL   O68529545   0.287   1.233   4.571 -0.3128  0.1039  0.5192
   31MOL   C68629546   0.388   1.284   4.653 -0.2070  0.6333  0.0132
   31MOL   O68729547   0.414   1.401   4.663 -0.0295 -0.7002  0.4020
   31MOL   C68829548   0.448   1.173   4.732 -0.1869  0.3257 -0.1135
   31MOL   C68929549   0.580   1.218   4.796 -0.5756 -0.2152  0.4155
   31MOL   C69029550   0.566   1.178   4.943  0.0784  0.0913 -0.0413
   31MOL   C69129551   0.477   1.276   5.029 -0.2131  0.0205 -0.5936
   31MOL   C69229552   0.421   1.227   5.161  0.7194  0.4425  0.0150
   31MOL   O69329553   0.408   1.101   5.181 -0.4226  0.6642  0.0111
   31MOL   H69429554   0.473   2.228   4.181  0.0201 -1.1635 -0.5007
   31MOL   H69529555   0.372   2.294   4.067  2.1687  1.6665 -0.5345
   31MOL   H69629556   0.310   2.092   3.956  0.9211 -1.0486  0.0322
   31MOL   H69729557   0.245   2.121   4.110  0.7957  1.6579  0.4317
   31MOL   H69829558   0.490   1.934   4.062  0.3746  1.0831  0.3145
   31MOL   H69929559   0.400   1.951   4.213 -1.6960  1.1616 -0.2422
   31MOL   H70029560   0.314   1.842   3.927 -2.6177  0.6828 -0.6127
   31MOL   H70129561   0.193   1.868   4.046 -0.3841  1.5118 -1.5343
   31MOL   H70229562   0.321   1.728   4.210 -0.0504  1.2899 -0.0337
   31MOL   H70329563   0.420   1.662   4.096 -0.5015 -1.4579  0.5993
   31MOL   H70429564   0.219   1.586   3.962 -1.0950 -0.4280 -0.0095
   31MOL   H70529565   0.118   1.636   4.092 -0.8237 -0.4028 -3.5328
   31MOL   H70629566   0.360   1.444   4.119 -0.1209  1.3501 -2.4597
   31MOL   H70729567   0.202   1.391   4.068  0.8520  0.0285 -1.2855
   31MOL   H70829568   0.094   1.459   4.274 -0.5534  0.1533  1.0128
   31MOL   H70929569   0.237   1.547   4.322  1.0671 -1.4820  0.5936
   31MOL   H71029570   0.222   1.240   4.302 -1.1673  0.2841 -0.3257
   31MOL   H71129571   0.360   1.336   4.361  0.1043 -1.2444  0.6297
   31MOL   H71229572   0.102   1.273   4.504 -0.6530  0.6407 -0.1579
   31MOL   H71329573   0.189   1.423   4.545 -1.7016  0.0126 -0.6582
   31MOL   H71429574   0.380   1.129   4.806  1.6328  1.2994  2.2066
   31MOL   H71529575   0.470   1.089   4.666  1.9460  0.3498  0.5369
   31MOL   H71629576   0.597   1.325   4.786  2.0290 -0.8280 -2.3779
   31MOL   H71729577   0.665   1.164   4.755 -0.3175 -0.1628  0.8739
   31MOL   H71829578   0.667   1.184   4.981 -0.1280 -0.3471  0.5695
   31MOL   H71929579   0.531   1.075   4.945 -0.2907  0.2001 -0.5835
   31MOL   H72029580   0.393   1.317   4.971 -0.1038  0.9325 -0.1273
   31MOL   H72129581   0.534   1.368   5.044 -0.5074  0.5056 -2.3051
   31MOL   O72229582   0.376   1.328   5.237 -0.1155 -0.5882 -0.1226
   31MOL   C72329583   0.290   1.295   5.346  0.6605  0.1746 -0.2511
   31MOL   C72429584   0.187   1.406   5.380 -0.5675  0.2527 -0.3499
   31MOL   C72529585   0.098   1.448   5.259 -0.3760  0.7856 -0.4335
   31MOL   C72629586   7.759   1.563   5.281  0.4229 -0.0211  0.2740
   31MOL   C72729587   7.667   1.555   5.412 -0.2799  0.6812  0.3558
   31MOL   C72829588   7.568   1.440   5.418  0.2148 -0.0693 -1.0223
   31MOL   C72929589   7.484   1.458   5.549  0.5760  0.5666 -0.4904
   31MOL   C73029590   7.403   1.331   5.583  0.0200  0.2733 -0.7840
   31MOL   C73129591   7.343   1.335   5.722 -0.6868 -0.4873 -0.1557
   31MOL   C73229592   7.237   1.225   5.753 -0.3269 -0.2873  0.0269
   31MOL   O73329593   7.128   1.249   5.665 -0.0330  0.6010 -0.3654
   31MOL   C73429594   7.089   1.150   5.583 -0.1625  0.2757 -0.8381
   31MOL   O73529595   7.144   1.044   5.569  0.2026 -0.2294  0.0109
   31MOL   C73629596   6.953   1.178   5.517  0.1412 -0.3351  0.0797
   31MOL   C73729597   6.845   1.258   5.598  0.3679  0.1585  0.1974
   31MOL   C73829598   6.793   1.167   5.713 -0.1502 -0.1099  0.4574
   31MOL   C73929599   6.669   1.231   5.783  0.1765 -0.6717  0.1591
   31MOL   C74029600   6.542   1.186   5.713 -0.5741  0.2006  0.2629
   31MOL   O74129601   6.480   1.088   5.749 -0.0799  0.7703  0.1680
   31MOL   H74229602   0.233   1.204   5.325  0.8605 -0.7628  2.9204
   31MOL   H74329603   0.354   1.260   5.428  1.7276 -0.1553 -1.2091
   31MOL   H74429604   0.224   1.496   5.429 -3.0159  0.5399  1.0236
   31MOL   H74529605   0.115   1.367   5.451  1.0497 -0.2649  1.0162
   31MOL   H74629606   0.170   1.489   5.189 -1.2157  1.7568 -0.7397
   31MOL   H74729607   0.050   1.367   5.206  0.6440 -0.6911  0.8615
   31MOL   H74829608   7.695   1.567   5.193  1.6719 -2.5608 -0.8162
   31MOL   H74929609   0.045   1.658   5.297 -0.1773  0.6899 -1.8703
   31MOL   H75029610   7.615   1.650   5.423  1.3518  1.4693  1.4213
   31MOL   H75129611   7.726   1.559   5.504 -0.1768  0.6078  0.2921
   31MOL   H75229612   7.628   1.348   5.415  1.0436  0.4137  0.3360
   31MOL   H75329613   7.506   1.436   5.329 -4.2000  0.5885  1.9018
   31MOL   H75429614   7.419   1.544   5.535  0.0512  0.1362 -0.7088
   31MOL   H75529615   7.544   1.487   5.636 -0.0441  2.0844 -0.5555
   31MOL   H75629616   7.472   1.247   5.588  0.2647  0.6007  2.6468
   31MOL   H75729617   7.324   1.318   5.509 -0.3242 -0.0630 -0.3555
   31MOL   H75829618   7.420   1.352   5.797 -1.0430 -1.4277  0.4258
   31MOL   H75929619   7.294   1.432   5.715  1.9300  0.8664 -0.3130
   31MOL   H76029620   7.201   1.236   5.855  0.9024 -3.3204  0.8469
   31MOL   H76129621   7.286   1.127   5.747  0.1183  0.0069 -1.2897
   31MOL   H76229622   6.961   1.227   5.419 -0.7785  2.5681  1.3863
   31MOL   H76329623   6.907   1.082   5.495 -2.7177  0.7881  0.9806
   31MOL   H76429624   6.771   1.289   5.525  0.5190  1.1037  0.4403
   31MOL   H76529625   6.886   1.352   5.634  1.3229 -0.3389  0.4423
   31MOL   H76629626   6.881   1.156   5.776  1.1190  1.0342 -1.0844
   31MOL   H76729627   6.753   1.078   5.664  0.1997  0.1316 -0.2809
   31MOL   H76829628   6.684   1.338   5.765  1.5105 -1.2038 -2.1263
   31MOL   H76929629   6.659   1.216   5.890  2.1165 -0.7087  0.3486
   31MOL   O77029630   6.509   1.261   5.608  0.6020 -0.1005 -0.7117
   31MOL   C77129631   6.408   1.223   5.524  0.8979 -0.5717 -0.0886
   31MOL   C77229632   6.399   1.335   5.415  0.1973  0.1296  0.0788
   31MOL   C77329633   6.263   1.318   5.342 -0.2347 -0.0820 -0.1992
   31MOL   C77429634   6.240   1.179   5.286 -0.0303  0.7110 -0.4644
   31MOL   C77529635   6.339   1.120   5.191 -0.0380  0.4595 -0.1673
   31MOL   C77629636   6.318   0.971   5.178  0.5259  0.0153  0.4371
   31MOL   C77729637   6.428   0.906   5.088 -0.2643 -0.2527  0.2999
   31MOL   C77829638   6.393   0.764   5.064  0.6142 -0.6253 -0.6586
   31MOL   C77929639   6.381   0.673   5.186  0.5544  0.4067  0.1559
   31MOL   C78029640   6.363   0.520   5.148 -0.2704 -0.3603 -0.2116
   31MOL   O78129641   6.347   0.444   5.260 -0.5806 -0.2011 -0.2418
   31MOL   C78229642   6.346   0.316   5.254  0.1008  0.5676 -0.2587
   31MOL   O78329643   6.382   0.244   5.159  0.0959 -0.1299 -0.5422
   31MOL   C78429644   6.311   0.257   5.389  0.1541  0.4319 -0.4767
   31MOL   C78529645   6.425   0.273   5.496  0.3281  0.0708  0.7256
   31MOL   C78629646   6.415   0.408   5.577 -0.2101 -0.7196 -0.4257
   31MOL   C78729647   6.514   0.417   5.699  0.3840  0.0813  0.3822
   31MOL   C78829648   6.482   0.353   5.830  0.0097  0.5203  0.1696
   31MOL   O78929649   6.471   0.430   5.928  0.3240  0.7423  0.3831
   31MOL   H79029650   6.428   1.128   5.474  1.7995  0.7371 -2.2946
   31MOL   H79129651   6.311   1.223   5.572  0.6686  1.6533 -0.5275
   31MOL   H79229652   6.481   1.318   5.345 -0.0451 -1.1810  0.0945
   31MOL   H79329653   6.404   1.437   5.454  0.2461  0.3657 -0.5332
   31MOL   H79429654   6.186   1.350   5.412  0.5946  0.6048  0.4163
   31MOL   H79529655   6.249   1.405   5.278 -0.9687  0.9316  1.2987
   31MOL   H79629656   6.154   1.174   5.219 -0.6340  1.4688  0.2370
   31MOL   H79729657   6.212   1.119   5.373 -0.3893  1.3152 -0.1585
   31MOL   H79829658   6.444   1.143   5.210 -0.0507 -0.5371  1.1070
   31MOL   H79929659   6.342   1.167   5.092 -1.2283 -2.3806 -1.6246
   31MOL   H80029660   6.218   0.935   5.151  0.4986 -0.1869  0.7999
   31MOL   H80129661   6.321   0.927   5.278 -1.8760 -0.1263  0.4706
   31MOL   H80229662   6.529   0.920   5.125 -0.5262 -0.7659  1.2241
   31MOL   H80329663   6.428   0.958   4.992  0.0602 -1.1433 -0.1883
   31MOL   H80429664   6.459   0.715   4.993  2.3346 -1.4203  1.4384
   31MOL   H80529665   6.296   0.772   5.014 -0.4562 -0.3387  1.3964
   31MOL   H80629666   6.477   0.686   5.237  0.9872  3.0724 -1.2587
   31MOL   H80729667   6.301   0.696   5.257  1.7491  3.1512  0.7081
   31MOL   H80829668   6.443   0.489   5.081  0.1279 -1.1549  0.6222
   31MOL   H80929669   6.272   0.508   5.089 -0.1052  0.1993 -0.5790
   31MOL   H81029670   6.213   0.293   5.423 -0.0742 -1.6317  1.1807
   31MOL   H81129671   6.294   0.152   5.365  0.0602  0.4448 -0.4676
   31MOL   H81229672   6.524   0.254   5.454  0.4638 -1.2666  1.6060
   31MOL   H81329673   6.410   0.195   5.572  0.1811 -1.4317 -0.8201
   31MOL   H81429674   6.313   0.407   5.617 -0.0078  0.8844  0.1436
   31MOL   H81529675   6.425   0.492   5.508  0.3088 -0.0659  0.4466
   31MOL   H81629676   6.563   0.513   5.717  1.8180 -0.3787 -0.8597
   31MOL   H81729677   6.600   0.357   5.668  0.7109 -0.6135  2.5718
   31MOL   O81829678   6.460   0.218   5.823 -0.4424  0.7178  0.3184
   31MOL   C81929679   6.433   0.144   5.940 -0.4037  0.5816 -0.0434
   31MOL   C82029680   6.375   0.010   5.898  0.2223 -0.1933 -0.0662
   31MOL   C82129681   6.486   7.687   5.824 -0.2146 -0.1625  0.3078
   31MOL   C82229682   6.432   7.553   5.776  0.2842 -0.0489  0.3680
   31MOL   C82329683   6.544   7.476   5.694  0.6568 -0.0952 -0.9103
   31MOL   C82429684   6.469   7.350   5.635 -0.6144  0.2469  0.1142
   31MOL   C82529685   6.562   7.259   5.554  0.1934  0.7625  0.0217
   31MOL   C82629686   6.494   7.118   5.554  0.3591 -0.1336  0.5045
   31MOL   C82729687   6.537   7.014   5.657 -0.0976 -0.5594  0.1502
   31MOL   C82829688   6.472   6.874   5.626 -0.2960  0.4171 -0.0565
   31MOL   O82929689   6.553   6.809   5.530 -0.4421 -0.0682  0.1332
   31MOL   C83029690   6.650   6.722   5.571 -0.1172  0.1061  1.2603
   31MOL   O83129691   6.652   6.660   5.676  0.5203 -0.0362  0.1067
   31MOL   C83229692   6.748   6.680   5.465 -1.0267  0.3114 -0.0973
   31MOL   C83329693   6.843   6.791   5.402  0.7772  0.4266  0.2626
   31MOL   C83429694   6.990   6.752   5.425  1.0848 -0.1658  0.0226
   31MOL   C83529695   7.093   6.862   5.396 -0.4403 -0.4616 -0.2611
   31MOL   C83629696   7.169   6.856   5.267 -0.2107  0.4807 -0.3276
   31MOL   O83729697   7.293   6.843   5.264 -0.6043  0.0433 -0.1309
   31MOL   H83829698   6.528   0.125   5.990 -0.4021  0.6842 -0.0075
   31MOL   H83929699   6.368   0.196   6.011  0.0550  1.5340 -0.3090
   31MOL   H84029700   6.299   0.027   5.821  1.7198 -0.7177 -1.7070
   31MOL   H84129701   6.332   7.733   5.989  1.1964 -1.5418 -0.2099
   31MOL   H84229702   6.530   7.748   5.745 -1.3762 -1.1322 -1.1116
   31MOL   H84329703   6.569   7.655   5.887 -0.2108  1.8057  1.3198
   31MOL   H84429704   6.346   7.571   5.711  1.3421 -0.9243 -1.3012
   31MOL   H84529705   6.398   7.497   5.862 -3.0832  0.3977 -0.5962
   31MOL   H84629706   6.624   7.449   5.763 -2.1715 -1.3217  2.0387
   31MOL   H84729707   6.571   7.549   5.618 -3.5885  1.5216 -0.9659
   31MOL   H84829708   6.388   7.385   5.572  0.9073 -0.0221 -2.0675
   31MOL   H84929709   6.421   7.301   5.719 -0.5578  1.9084  1.1233
   31MOL   H85029710   6.658   7.245   5.604 -0.6781  1.3493  1.9071
   31MOL   H85129711   6.566   7.291   5.450  1.2801 -0.1109 -0.2159
   31MOL   H85229712   6.498   7.068   5.458  1.8093  1.5768 -0.3428
   31MOL   H85329713   6.385   7.129   5.556  0.0087 -3.1588  0.3222
   31MOL   H85429714   6.646   7.015   5.662 -0.1865 -0.3084  3.2651
   31MOL   H85529715   6.523   7.047   5.760  0.0761  1.1454 -0.3663
   31MOL   H85629716   6.366   6.879   5.602 -1.4085 -2.3730  3.8148
   31MOL   H85729717   6.466   6.801   5.707  2.6284 -0.3140 -0.4222
   31MOL   H85829718   6.811   6.608   5.517 -1.2927  1.7723  2.3139
   31MOL   H85929719   6.682   6.629   5.396 -1.9504  1.7721 -0.3209
   31MOL   H86029720   6.833   6.884   5.458  2.1276  2.2998 -2.4882
   31MOL   H86129721   6.823   6.816   5.298  2.4905  0.1659 -0.1411
   31MOL   H86229722   7.017   6.659   5.374  0.8758  1.1999 -2.6164
   31MOL   H86329723   6.992   6.725   5.531  0.9909  1.7592  0.5305
   31MOL   H86429724   7.172   6.864   5.471 -0.1902 -0.1148 -0.5343
   31MOL   H86529725   7.054   6.963   5.397  0.8191  0.0821 -2.2241
   31MOL   O86629726   7.094   6.844   5.157 -0.0658 -0.0046 -0.1529
   31MOL   C86729727   7.141   6.831   5.024  0.0605 -0.6267 -0.0865
   31MOL   C86829728   7.027   6.855   4.926  0.0235  0.1645  0.2162
   31MOL   C86929729   7.084   6.824   4.788  0.8433 -0.0675  0.3681
   31MOL   C87029730   6.990   6.872   4.676  0.0833 -0.0832  0.2847
   31MOL   C87129731   6.871   6.784   4.667 -0.6305 -0.2357  0.9527
   31MOL   C87229732   6.776   6.807   4.546 -0.1763 -0.2163  0.0563
   31MOL   C87329733   6.821   6.754   4.408  0.0012 -0.2935 -0.0719
   31MOL   C87429734   6.850   6.600   4.401 -0.1424  0.3398 -0.7814
   31MOL   C87529735   6.900   6.558   4.261  0.1380  0.4608  0.2811
   31MOL   C87629736   6.783   6.556   4.164 -0.6416 -0.1711  0.3867
   31MOL   O87729737   6.693   6.459   4.204 -0.5930  0.7940 -0.1868
   31MOL   C87829738   6.568   6.452   4.162 -0.1634  0.4053 -1.1034
   31MOL   O87929739   6.510   6.528   4.090  0.2952 -0.3786 -0.1590
   31MOL   C88029740   6.485   6.340   4.223 -0.5014 -0.0469  0.9593
   31MOL   C88129741   6.426   6.385   4.360  0.3680 -0.0654  0.8646
   31MOL   C88229742   6.280   6.439   4.355 -0.0603  0.0128 -0.0284
   31MOL   C88329743   6.199   6.410   4.478  0.7785  0.0223  0.3635
   31MOL   C88429744   6.142   6.265   4.498  0.4250 -0.5639 -0.1326
   31MOL   O88529745   6.172   6.193   4.595 -0.0844 -0.1626  0.1724
   31MOL   H88629746   7.223   6.902   5.017 -0.0454 -0.4852  0.0885
   31MOL   H88729747   7.182   6.733   5.002 -0.4961 -0.7931 -0.4045
   31MOL   H88829748   6.980   6.954   4.929  0.3014  0.2515  2.7846
   31MOL   H88929749   6.954   6.780   4.954 -0.3375  1.1855  2.0728
   31MOL   H89029750   7.175   6.881   4.771  0.2782  0.5244 -0.7396
   31MOL   H89129751   7.123   6.722   4.775 -0.8710 -0.7380  0.3364
   31MOL   H89229752   7.044   6.877   4.582 -0.2432  0.3741  0.1192
   31MOL   H89329753   6.973   6.979   4.685  2.2556  0.3394 -0.4892
   31MOL   H89429754   6.812   6.800   4.757  0.6603  0.0226  1.7619
   31MOL   H89529755   6.896   6.679   4.659 -1.9270 -0.4223 -1.3426
   31MOL   H89629756   6.750   6.913   4.539 -0.9112 -0.2186  2.3387
   31MOL   H89729757   6.676   6.769   4.568 -0.8662  0.9445 -0.9825
   31MOL   H89829758   6.922   6.788   4.386 -0.2662 -0.2431 -1.2522
   31MOL   H89929759   6.764   6.788   4.321  0.5465  0.4507 -0.1415
   31MOL   H90029760   6.777   6.529   4.441 -2.4358  3.1131  0.1269
   31MOL   H90129761   6.937   6.583   4.464 -0.4252  1.4017 -0.0751
   31MOL   H90229762   6.970   6.625   4.212  1.1049 -0.6130  0.1578
   31MOL   H90329763   6.950   6.461   4.256  3.2655  1.9237  1.6733
   31MOL   H90429764   6.817   6.532   4.064 -1.3981 -1.9997  0.5538
   31MOL   H90529765   6.732   6.650   4.145  2.8171  1.7828  0.2325
   31MOL   H90629766   6.396   6.315   4.166 -1.0404  0.5334  1.5506
   31MOL   H90729767   6.546   6.252   4.244 -1.7519 -1.0152  0.5744
   31MOL   H90829768   6.496   6.456   4.405 -0.7103  2.5275 -1.3679
   31MOL   H90929769   6.427   6.299   4.427  0.6633 -0.2486  0.6251
   31MOL   H91029770   6.234   6.383   4.273  0.8206 -0.8020  0.0262
   31MOL   H91129771   6.279   6.542   4.320 -2.3600 -0.4653 -1.5162
   31MOL   H91229772   6.106   6.468   4.474  1.1063  0.6068  1.0897
   31MOL   H91329773   6.254   6.440   4.567 -0.1548 -0.6277  1.1702
   31MOL   O91429774   6.048   6.239   4.409 -0.2796  1.3003 -0.3633
   31MOL   C91529775   5.979   6.110   4.405  0.9488 -0.7251  0.3657
   31MOL   C91629776   6.049   6.005   4.314 -0.5216 -0.4631  0.2516
   31MOL   C91729777   6.036   6.056   4.165  0.1928  1.0918 -0.6645
   31MOL   C91829778   6.108   5.973   4.057  0.6450 -0.4647  0.1002
   31MOL   C91929779   6.260   5.987   4.069  0.4751  0.0624  0.1067
   31MOL   C92029780   6.342   5.907   3.963 -0.2004  0.3856 -0.1127
   31MOL   C92129781   6.362   5.752   3.995 -0.2142 -0.4353 -0.5975
   31MOL   C92229782   6.466   5.679   3.900  0.7493 -0.1432 -0.5719
   31MOL   C92329783   6.482   5.529   3.926 -0.1291  0.0410  0.8120
   31MOL   C92429784   6.571   5.450   3.829  0.0041  0.1787  0.2064
   31MOL   O92529785   6.559   5.311   3.861 -0.1791  0.1985  0.1975
   31MOL   C92629786   6.666   5.239   3.880 -0.4310  0.4171  0.1748
   31MOL   O92729787   6.784   5.277   3.876  0.0614  0.2520 -0.4684
   31MOL   C92829788   6.627   5.097   3.897 -0.1193 -0.1131 -0.5958
   31MOL   C92929789   6.732   4.982   3.899 -0.3592 -0.4650 -0.5628
   31MOL   C93029790   6.799   4.943   3.766 -0.3717  0.5466  0.0331
   31MOL   C93129791   6.899   5.049   3.711 -0.5185 -0.0191  1.5028
   31MOL   C93229792   6.996   5.003   3.601 -0.4854  0.4849  0.0754
   31MOL   O93329793   7.027   4.886   3.606 -0.8408  0.0036  0.4238
   31MOL   H93429794   5.954   6.071   4.504 -0.9464 -1.3358 -0.3373
   31MOL   H93529795   5.888   6.127   4.348  0.9389  0.2832  0.6790
   31MOL   H93629796   6.009   5.903   4.315 -0.1595 -0.6083  2.6311
   31MOL   H93729797   6.153   5.992   4.347 -1.3356 -2.4661  2.2005
   31MOL   H93829798   5.931   6.056   4.137  0.4062  0.5620 -1.5040
   31MOL   H93929799   6.067   6.160   4.162  0.8862  0.8699 -1.4911
   31MOL   H94029800   6.084   5.994   3.953  3.2031 -0.8245 -0.5969
   31MOL   H94129801   6.077   5.868   4.066  2.3222 -1.1294 -1.7464
   31MOL   H94229802   6.281   5.964   4.174 -1.4766  0.2584  0.5497
   31MOL   H94329803   6.290   6.092   4.063 -1.7906  0.7947  1.0096
   31MOL   H94429804   6.437   5.958   3.947 -0.0539 -0.1823 -1.0999
   31MOL   H94529805   6.307   5.913   3.860  0.0866  0.9174 -0.1851
   31MOL   H94629806   6.266   5.701   3.996 -0.4689  0.0366  0.3535
   31MOL   H94729807   6.402   5.763   4.096 -1.0218  3.7462 -0.6385
   31MOL   H94829808   6.569   5.715   3.901  0.5479  0.4479  0.7891
   31MOL   H94929809   6.426   5.707   3.803 -2.4340  2.2987  1.3591
   31MOL   H95029810   6.516   5.496   4.024 -1.5962 -2.1866  0.6023
   31MOL   H95129811   6.381   5.490   3.914 -0.4208  0.5290  1.6423
   31MOL   H95229812   6.674   5.485   3.840 -0.0674  0.9233 -1.2620
   31MOL   H95329813   6.544   5.471   3.725  0.1953  0.7466  0.2682
   31MOL   H95429814   6.570   5.093   3.990  0.6680  1.3918 -0.0190
   31MOL   H95529815   6.562   5.085   3.811 -0.9126 -2.4083  0.3070
   31MOL   H95629816   6.679   4.893   3.931 -1.9419  0.3155 -0.9635
   31MOL   H95729817   6.795   4.998   3.987 -0.1928  0.9882 -0.9238
   31MOL   H95829818   6.728   4.924   3.685 -0.9535  3.5870 -0.2294
   31MOL   H95929819   6.845   4.845   3.773 -1.2666  0.1305  0.1228
   31MOL   H96029820   6.957   5.080   3.797  1.3797  0.9625 -0.0986
   31MOL   H96129821   6.856   5.143   3.676 -0.6188 -0.4891  0.3285
   31MOL   H96229822   7.012   5.070   3.516 -0.8559 -0.8632 -1.0937
   32MOL     O129823   1.525   2.010   5.909  0.2060  0.4552 -0.3255
   32MOL     C229824   1.557   2.142   5.915  0.2174 -0.3612 -0.8143
   32MOL     C329825   1.450   2.200   6.012  0.8914  0.0520 -0.0868
   32MOL     C429826   1.463   2.354   6.023 -0.9785 -0.2496  0.0567
   32MOL     C529827   1.371   2.415   6.124  0.4440 -0.3507 -0.1114
   32MOL     C629828   1.404   2.561   6.162 -0.1729 -0.3737 -0.0445
   32MOL     C729829   1.313   2.624   6.270 -0.8518  0.8084 -0.1515
   32MOL     C829830   1.343   2.771   6.292 -0.1195 -0.5090 -0.1320
   32MOL     C929831   1.243   2.840   6.387 -0.0301  0.7308  0.5933
   32MOL    C1029832   1.218   2.777   6.527  0.2437 -0.1599  0.3040
   32MOL    C1129833   1.344   2.783   6.619 -0.1262  0.4520  0.1407
   32MOL    O1229834   1.410   2.904   6.602  0.0572 -0.3414 -0.0769
   32MOL    C1329835   1.535   2.921   6.645 -0.1589  0.0176  0.2248
   32MOL    O1429836   1.602   2.831   6.695  0.3163 -0.3890  0.0255
   32MOL    C1529837   1.595   3.059   6.625 -0.1371 -0.2099  0.7208
   32MOL    C1629838   1.738   3.065   6.570  0.0004 -1.1193 -0.4443
   32MOL    C1729839   1.762   2.990   6.436 -0.1675  0.2556 -0.7346
   32MOL    C1829840   1.917   3.001   6.398 -0.1123 -0.1720 -0.5395
   32MOL    C1929841   1.972   3.136   6.369  0.2443  0.0715  0.1560
   32MOL    O2029842   1.895   3.232   6.355  0.2102  0.6913 -0.0099
   32MOL    H2129843   1.657   2.155   5.958 -1.2112  0.7134  2.3409
   32MOL    H2229844   1.547   2.186   5.816 -0.0947 -1.3396 -1.2210
   32MOL    H2329845   1.467   2.150   6.108 -0.8617 -0.2370  0.0758
   32MOL    H2429846   1.347   2.178   5.988  0.4096 -1.0397  2.7566
   32MOL    H2529847   1.567   2.362   6.054 -0.7477  1.5301 -1.1015
   32MOL    H2629848   1.452   2.397   5.923  0.1946 -2.6590 -1.1663
   32MOL    H2729849   1.383   2.361   6.218  0.3524 -2.1191 -1.0853
   32MOL    H2829850   1.267   2.401   6.092 -0.2338  1.2993  1.3160
   32MOL    H2929851   1.391   2.620   6.071  0.8955 -2.2988 -1.4877
   32MOL    H3029852   1.504   2.578   6.203  0.7209 -0.0225 -2.2927
   32MOL    H3129853   1.323   2.569   6.363 -2.0172 -1.1372 -1.1538
   32MOL    H3229854   1.208   2.611   6.242 -1.9101  4.1215  2.0302
   32MOL    H3329855   1.347   2.816   6.193  1.4414 -0.7142 -0.1732
   32MOL    H3429856   1.441   2.788   6.339 -0.4586 -1.9424  1.1078
   32MOL    H3529857   1.146   2.845   6.338  0.9093  2.0461 -1.1879
   32MOL    H3629858   1.283   2.941   6.399  0.5855  0.4249  1.1386
   32MOL    H3729859   1.137   2.841   6.561 -0.5611  0.2026 -2.1892
   32MOL    H3829860   1.172   2.679   6.530 -0.8176  0.3073 -0.5809
   32MOL    H3929861   1.409   2.700   6.591  0.8602  1.3236 -0.1794
   32MOL    H4029862   1.318   2.763   6.723  1.7566  1.6683  0.8838
   32MOL    H4129863   1.526   3.125   6.572  1.9246  1.3707 -0.0461
   32MOL    H4229864   1.593   3.104   6.724 -1.6819 -0.7805  0.9545
   32MOL    H4329865   1.803   3.014   6.641 -1.7022  0.4165  2.3469
   32MOL    H4429866   1.770   3.168   6.554 -0.2295 -1.0556 -0.4971
   32MOL    H4529867   1.688   3.023   6.362 -0.4392  0.3621 -0.4141
   32MOL    H4629868   1.735   2.886   6.456  0.4092 -0.4245 -3.2929
   32MOL    H4729869   1.923   2.947   6.303 -0.6884 -0.3441 -0.4779
   32MOL    H4829870   1.984   2.953   6.469 -2.0766 -2.4391 -0.1529
   32MOL    H4929871   1.553   1.979   5.824 -2.1430  2.4266 -1.9085
   32MOL    O5029872   2.103   3.140   6.378  0.2001 -0.0454 -0.2755
   32MOL    C5129873   2.172   3.272   6.384 -0.6513  0.6083  0.0581
   32MOL    C5229874   2.261   3.305   6.260 -0.0006  0.1095  0.1705
   32MOL    C5329875   2.174   3.339   6.133  0.3693  0.7183  0.0955
   32MOL    C5429876   2.255   3.345   5.999  0.1568 -0.0112 -0.2825
   32MOL    C5529877   2.180   3.418   5.883 -0.0523  0.4254 -0.0310
   32MOL    C5629878   2.271   3.406   5.756 -0.0423 -0.4752 -0.5309
   32MOL    C5729879   2.186   3.471   5.648 -0.4524 -0.2172 -1.0505
   32MOL    C5829880   2.245   3.473   5.507  0.1711  1.0350 -0.1674
   32MOL    C5929881   2.157   3.547   5.410  0.4231  0.7637  0.1997
   32MOL    C6029882   2.199   3.538   5.265  0.3051  0.1019  0.3938
   32MOL    O6129883   2.339   3.563   5.246  0.4075 -0.0122 -0.3572
   32MOL    C6229884   2.386   3.689   5.263 -0.2571  0.5978  0.5551
   32MOL    O6329885   2.315   3.794   5.276 -0.0460  0.5822 -0.1276
   32MOL    C6429886   2.540   3.702   5.253  0.3383 -0.3652  0.1857
   32MOL    C6529887   2.598   3.791   5.374  0.3479 -0.7170  0.6041
   32MOL    C6629888   2.554   3.750   5.515 -0.5614  0.2265 -0.4331
   32MOL    C6729889   2.619   3.825   5.637 -0.1324  0.3991  0.3864
   32MOL    C6829890   2.546   3.792   5.768  0.3672  0.0512 -0.2742
   32MOL    O6929891   2.527   3.675   5.805  0.0027  0.2564  0.2083
   32MOL    H7029892   2.113   3.363   6.394 -1.7811 -0.3568  2.5094
   32MOL    H7129893   2.236   3.261   6.471 -1.9556 -1.5215  0.7848
   32MOL    H7229894   2.336   3.229   6.238  0.9607  0.8902  0.6695
   32MOL    H7329895   2.321   3.390   6.292 -0.9484  0.7035  0.3901
   32MOL    H7429896   2.081   3.284   6.123  0.8340 -0.2647  1.1052
   32MOL    H7529897   2.134   3.437   6.162  1.7104  1.0514  0.8957
   32MOL    H7629898   2.276   3.245   5.962  1.6848 -0.4525  1.7068
   32MOL    H7729899   2.346   3.405   6.007  0.3776 -0.0431 -2.2358
   32MOL    H7829900   2.162   3.522   5.908 -1.2622  0.3200 -0.4338
   32MOL    H7929901   2.079   3.381   5.864 -0.0495  0.8847 -1.0044
   32MOL    H8029902   2.292   3.304   5.722  3.2878  0.4318 -1.3072
   32MOL    H8129903   2.361   3.466   5.763 -0.7011  0.4348  0.2034
   32MOL    H8229904   2.162   3.571   5.683 -3.0232 -1.7115  1.7179
   32MOL    H8329905   2.089   3.422   5.640  0.5938 -2.5772  0.0341
   32MOL    H8429906   2.252   3.376   5.456 -2.4557 -0.0485  1.4224
   32MOL    H8529907   2.339   3.526   5.514 -0.6411  2.4313  0.2792
   32MOL    H8629908   2.053   3.516   5.413  0.2571  0.9865 -2.2143
   32MOL    H8729909   2.163   3.653   5.436  0.0436  1.1408 -1.2110
   32MOL    H8829910   2.142   3.612   5.209  1.5108 -1.0796 -2.5136
   32MOL    H8929911   2.179   3.442   5.217 -0.9404  0.7361 -0.3848
   32MOL    H9029912   2.584   3.606   5.277 -2.0167 -1.4646  0.2562
   32MOL    H9129913   2.576   3.725   5.153  0.7288 -1.7232 -0.0014
   32MOL    H9229914   2.568   3.894   5.359  1.1469 -0.6477 -0.6602
   32MOL    H9329915   2.707   3.790   5.369  0.4549 -1.3073  2.7319
   32MOL    H9429916   2.566   3.643   5.531  0.2790  0.5332  1.0639
   32MOL    H9529917   2.447   3.766   5.522 -1.3710 -4.7143  0.1323
   32MOL    H9629918   2.602   3.932   5.623  0.7486  0.7214  1.6007
   32MOL    H9729919   2.727   3.819   5.647  0.0746  1.8152 -0.8058
   32MOL    O9829920   2.512   3.905   5.830  0.5093  0.4836  0.0071
   32MOL    C9929921   2.415   3.894   5.933  0.0149 -0.5313  0.6463
   32MOL   C10029922   2.490   3.896   6.068 -0.2475 -0.2338  0.4618
   32MOL   C10129923   2.411   3.828   6.182 -0.2837  0.0568  0.5012
   32MOL   C10229924   2.476   3.840   6.311 -0.0738  0.0316 -0.5092
   32MOL   C10329925   2.378   3.802   6.429 -0.1948 -0.1868 -0.4840
   32MOL   C10429926   2.355   3.654   6.426  0.2140 -0.4519 -0.5042
   32MOL   C10529927   2.267   3.633   6.553  0.3269  0.6870  0.7500
   32MOL   C10629928   2.119   3.668   6.541  0.1407 -0.3057  0.2125
   32MOL   C10729929   2.026   3.628   6.651  0.0694  0.2127  0.0181
   32MOL   C10829930   1.888   3.697   6.645 -0.2259 -0.4234  0.3254
   32MOL   O10929931   1.899   3.834   6.650  0.5359 -0.2912 -0.0331
   32MOL   C11029932   1.884   3.897   6.765  0.8456 -0.1506  0.0828
   32MOL   O11129933   1.838   3.840   6.866  0.6468  0.2914  0.0368
   32MOL   C11229934   1.943   4.032   6.770  0.5707  0.2123  0.4369
   32MOL   C11329935   2.091   4.027   6.731 -0.2424  0.6766 -0.0870
   32MOL   C11429936   2.154   4.139   6.646 -0.3705  0.4634 -0.3931
   32MOL   C11529937   2.312   4.148   6.662  0.2223 -0.0056 -0.2228
   32MOL   C11629938   2.381   4.250   6.558  0.0833  0.2427 -0.2687
   32MOL   O11729939   2.309   4.323   6.489 -0.0114  0.4372 -0.4813
   32MOL   H11829940   2.351   3.981   5.944 -0.5248 -0.9871  1.0994
   32MOL   H11929941   2.345   3.814   5.911 -1.1351  0.9454 -1.2585
   32MOL   H12029942   2.537   3.993   6.086 -2.1966  0.6681  0.8005
   32MOL   H12129943   2.584   3.840   6.068  1.4021  2.4387 -0.4835
   32MOL   H12229944   2.311   3.866   6.201  0.1829  0.6772  1.7508
   32MOL   H12329945   2.398   3.725   6.149 -0.8896  0.5635 -0.8808
   32MOL   H12429946   2.498   3.947   6.312 -0.1478  0.0421  1.0103
   32MOL   H12529947   2.568   3.782   6.312  0.0209  0.1886 -0.1930
   32MOL   H12629948   2.288   3.863   6.421  0.0820  0.0843 -1.6280
   32MOL   H12729949   2.430   3.832   6.520 -1.3970  0.7453 -0.0904
   32MOL   H12829950   2.451   3.603   6.434  1.4492  1.6816 -1.1509
   32MOL   H12929951   2.305   3.615   6.337 -1.0222  1.4157 -0.6613
   32MOL   H13029952   2.309   3.690   6.636 -0.5988 -0.0721  1.7563
   32MOL   H13129953   2.278   3.527   6.578 -0.3920  0.3567 -0.3130
   32MOL   H13229954   2.085   3.632   6.444  1.5352  1.8939 -1.1551
   32MOL   H13329955   2.119   3.775   6.519  0.4022 -0.3431  0.0223
   32MOL   H13429956   2.014   3.521   6.669 -1.4569  0.7283  2.4354
   32MOL   H13529957   2.074   3.656   6.745  2.1600 -2.9208 -0.0486
   32MOL   H13629958   1.824   3.645   6.716 -0.4939 -1.1748 -0.4535
   32MOL   H13729959   1.843   3.670   6.549  1.4488 -1.1399 -0.2817
   32MOL   H13829960   1.890   4.094   6.699  0.4163  1.8912  1.9779
   32MOL   H13929961   1.930   4.081   6.867 -0.5080 -0.1730  0.4899
   32MOL   H14029962   2.118   3.934   6.680  0.6780  0.3546  0.9741
   32MOL   H14129963   2.154   4.029   6.819 -1.3405  2.1109  0.6899
   32MOL   H14229964   2.122   4.237   6.681 -1.6567 -0.1417  0.1466
   32MOL   H14329965   2.117   4.136   6.543 -3.5353  2.4282  0.6212
   32MOL   H14429966   2.350   4.047   6.649  1.0103  0.0092  1.7674
   32MOL   H14529967   2.334   4.175   6.765 -0.8973  1.2393 -0.2978
   32MOL   O14629968   2.517   4.250   6.574  0.5861  0.2341  0.2107
   32MOL   C14729969   2.596   4.329   6.484  0.4412  0.8493 -0.0012
   32MOL   C14829970   2.666   4.229   6.377 -0.3982  0.4593 -0.0824
   32MOL   C14929971   2.797   4.271   6.316  0.2709 -0.4406 -0.5532
   32MOL   C15029972   2.844   4.185   6.198  0.0793 -0.3003  0.4757
   32MOL   C15129973   2.972   4.234   6.133  0.2821  0.1765 -0.2770
   32MOL   C15229974   3.007   4.139   6.017  0.2375 -0.0487  0.1727
   32MOL   C15329975   2.919   4.136   5.883  0.6559  0.8795  0.0588
   32MOL   C15429976   2.997   4.062   5.775  0.3352  0.4545 -0.5638
   32MOL   C15529977   2.943   4.091   5.635 -0.0378 -0.6125 -0.4433
   32MOL   C15629978   2.981   3.998   5.519  0.1902  1.2227 -0.9496
   32MOL   O15729979   2.928   4.057   5.400 -0.1875 -0.1786  0.1998
   32MOL   C15829980   2.996   4.092   5.290 -0.2354  0.3696  0.1049
   32MOL   O15929981   3.118   4.084   5.283  0.4355 -0.2611  0.3008
   32MOL   C16029982   2.903   4.131   5.173  0.2629  0.9862 -0.6048
   32MOL   C16129983   2.988   4.202   5.064  0.0978 -0.1992  0.0225
   32MOL   C16229984   3.064   4.116   4.969 -0.5100 -0.3389  0.0441
   32MOL   C16329985   3.171   4.183   4.885 -0.3742  0.1781 -0.3806
   32MOL   C16429986   3.123   4.273   4.777  1.4304  0.1788  0.0054
   32MOL   O16529987   3.096   4.229   4.663 -0.1203  0.1199  0.0245
   32MOL   H16629988   2.525   4.385   6.423  0.8677  0.0391 -1.2635
   32MOL   H16729989   2.671   4.391   6.532  0.3071  0.3949  0.8016
   32MOL   H16829990   2.599   4.218   6.292  0.9630  0.3086 -1.1578
   32MOL   H16929991   2.682   4.134   6.427 -0.4091  1.2551  1.4701
   32MOL   H17029992   2.775   4.370   6.277  0.0038  0.2121  1.2061
   32MOL   H17129993   2.865   4.281   6.401 -2.2842 -0.4016  1.5706
   32MOL   H17229994   2.758   4.188   6.131  1.1870 -1.2608 -1.0267
   32MOL   H17329995   2.851   4.081   6.232  0.5573 -0.7953 -1.0860
   32MOL   H17429996   3.049   4.243   6.208  2.0442 -0.7262 -1.9361
   32MOL   H17529997   2.955   4.337   6.101  0.2028  0.1031 -0.4721
   32MOL   H17629998   3.009   4.034   6.045 -2.0482  0.2425  1.5088
   32MOL   H17729999   3.111   4.159   5.991 -0.0326 -0.6544 -1.4332
   32MOL   H17830000   2.904   4.239   5.851  0.8083  1.2159  1.0393
   32MOL   H17930001   2.825   4.086   5.909  1.0774  0.3176  0.5317
   32MOL   H18030002   2.989   3.955   5.793 -0.8183  0.6141 -0.1203
   32MOL   H18130003   3.100   4.099   5.770  1.4049 -2.4065 -0.2901
   32MOL   H18230004   2.834   4.079   5.635 -0.0349 -0.6318 -0.8809
   32MOL   H18330005   2.969   4.195   5.614  0.4412 -0.7080 -0.3281
   32MOL   H18430006   2.937   3.900   5.537  0.2337  1.4988  0.7441
   32MOL   H18530007   3.090   3.985   5.523 -0.2560 -3.1040  0.1372
   32MOL   H18630008   2.831   4.058   5.137  3.3826 -1.9232 -1.2341
   32MOL   H18730009   2.844   4.208   5.221  0.2578  1.7010 -1.7416
   32MOL   H18830010   3.060   4.267   5.112 -1.9167  0.5491  2.1308
   32MOL   H18930011   2.927   4.264   4.998  1.5648 -0.0785 -1.2516
   32MOL   H19030012   3.006   4.050   4.904  2.1117 -0.5210 -2.2520
   32MOL   H19130013   3.127   4.054   5.033 -2.9115  0.2051  3.0384
   32MOL   H19230014   3.225   4.103   4.835  0.6877 -0.7593  2.1940
   32MOL   H19330015   3.242   4.241   4.944  0.6888 -0.3463 -1.1426
   32MOL   O19430016   3.101   4.402   4.821  0.1544  0.6596 -0.0343
   32MOL   C19530017   3.062   4.490   4.724 -0.3781  0.3706 -0.6053
   32MOL   C19630018   3.082   4.631   4.777 -0.6044  0.0999 -0.0957
   32MOL   C19730019   3.015   4.745   4.708 -0.4248  0.2549  0.7053
   32MOL   C19830020   3.027   4.734   4.553  0.4140  0.2978  0.0395
   32MOL   C19930021   2.963   4.867   4.500 -0.5684 -0.2751  0.2170
   32MOL   C20030022   2.979   4.862   4.352 -1.1167 -0.0465 -0.0178
   32MOL   C20130023   2.926   4.987   4.284  0.2078 -0.5963  0.0815
   32MOL   C20230024   2.986   5.015   4.145 -0.2747  0.4618 -0.1959
   32MOL   C20330025   2.949   5.155   4.088  0.0712 -0.6999  0.0770
   32MOL   C20430026   3.036   5.205   3.975  0.7627 -0.2460 -0.3749
   32MOL   O20530027   3.164   5.234   4.031 -0.0355 -0.5090  0.1553
   32MOL   C20630028   3.271   5.168   3.990 -0.0610 -0.3357  0.5836
   32MOL   O20730029   3.266   5.071   3.909  0.0758 -0.0425 -0.2359
   32MOL   C20830030   3.412   5.227   4.038  0.0481  0.6358  0.0521
   32MOL   C20930031   3.486   5.303   3.934  0.2905 -0.0824 -0.7511
   32MOL   C21030032   3.628   5.338   3.964 -0.3761 -0.0919 -0.3843
   32MOL   C21130033   3.713   5.423   3.866  1.0937 -0.3432 -0.0512
   32MOL   C21230034   3.727   5.352   3.725 -0.7033 -0.2476  0.3047
   32MOL   O21330035   3.798   5.255   3.705  0.3868 -0.2179 -0.7214
   32MOL   H21430036   3.125   4.486   4.635 -1.1121  2.6202 -1.2707
   32MOL   H21530037   2.958   4.479   4.694 -0.4232  0.2761 -0.4149
   32MOL   H21630038   3.189   4.650   4.778 -0.6032  0.0838  1.2409
   32MOL   H21730039   3.052   4.638   4.882  0.0765  0.0099  0.1080
   32MOL   H21830040   2.913   4.761   4.743 -1.5579 -4.1697 -0.3366
   32MOL   H21930041   3.071   4.833   4.742  1.6046 -0.1047 -1.5886
   32MOL   H22030042   2.973   4.652   4.505 -1.6594  0.9907  1.1279
   32MOL   H22130043   3.130   4.714   4.521  0.5873 -1.5758  1.6878
   32MOL   H22230044   3.010   4.956   4.540 -0.3678 -0.6529  0.8247
   32MOL   H22330045   2.859   4.881   4.532 -1.8435 -2.5324 -2.6833
   32MOL   H22430046   2.924   4.776   4.313 -0.8519 -0.7566  1.1276
   32MOL   H22530047   3.085   4.852   4.332 -1.0262 -0.2556  0.5732
   32MOL   H22630048   2.950   5.073   4.347 -0.1808 -0.7562  0.4470
   32MOL   H22730049   2.817   4.986   4.280  0.0937 -2.8945  2.4763
   32MOL   H22830050   2.954   4.940   4.073 -0.4127  0.7818 -0.4682
   32MOL   H22930051   3.094   4.999   4.157 -0.1340  1.9115  0.6083
   32MOL   H23030052   2.845   5.162   4.054  0.0092  2.4317  0.7670
   32MOL   H23130053   2.960   5.231   4.165 -0.5338 -0.4246 -0.0985
   32MOL   H23230054   2.996   5.293   3.924  0.3106  0.3598  0.9980
   32MOL   H23330055   3.035   5.131   3.895  0.1380  0.0292 -0.6290
   32MOL   H23430056   3.399   5.284   4.130  2.6716 -0.2625  1.0209
   32MOL   H23530057   3.473   5.138   4.055  0.3465  0.1151 -3.3256
   32MOL   H23630058   3.428   5.394   3.926 -0.2846 -0.2798  1.0479
   32MOL   H23730059   3.477   5.258   3.835  2.8088 -1.5816 -0.3626
   32MOL   H23830060   3.683   5.245   3.983  2.2828  1.2206 -1.4265
   32MOL   H23930061   3.644   5.380   4.064 -3.3447 -3.2051  1.5119
   32MOL   H24030062   3.809   5.430   3.917  1.5554 -1.5033 -0.7278
   32MOL   H24130063   3.675   5.524   3.860 -1.5305 -1.3209 -0.5717
   32MOL   O24230064   3.644   5.411   3.629 -0.1200 -0.2922  0.5727
   32MOL   C24330065   3.647   5.372   3.498 -0.2232  0.0984  0.7052
   32MOL   C24430066   3.737   5.457   3.406  0.8066 -0.0525  0.3570
   32MOL   C24530067   3.738   5.412   3.259 -0.0067 -1.0098  0.3105
   32MOL   C24630068   3.793   5.515   3.161  0.3812 -0.2558  0.8315
   32MOL   C24730069   3.780   5.479   3.007  0.5894  0.0799 -0.0640
   32MOL   C24830070   3.879   5.567   2.922 -0.0769 -0.2362 -0.2898
   32MOL   C24930071   3.849   5.716   2.894 -0.3597  0.4861 -0.2044
   32MOL   C25030072   3.738   5.734   2.791 -0.2401  0.9074  0.0073
   32MOL   C25130073   3.702   5.883   2.760 -0.3013 -0.5320 -0.7804
   32MOL   C25230074   3.806   5.978   2.716 -0.1218 -0.3627 -0.5066
   32MOL   O25330075   3.741   6.098   2.673 -0.5466  0.5024  0.9845
   32MOL   C25430076   3.788   6.181   2.584  0.0381  0.3248 -0.8777
   32MOL   O25530077   3.900   6.177   2.534  0.3075 -0.3976  0.8701
   32MOL   C25630078   3.701   6.300   2.553 -0.7615  0.0273 -1.2235
   32MOL   C25730079   3.579   6.272   2.468 -0.0044  0.5266 -0.8608
   32MOL   C25830080   3.519   6.402   2.427  0.4942  0.2092  0.0529
   32MOL   C25930081   3.419   6.398   2.309 -0.1035 -0.3669  0.2159
   32MOL   C26030082   3.279   6.396   2.343 -0.0695  0.0166  0.4766
   32MOL   O26130083   3.210   6.293   2.339  0.3367  0.1680 -0.5305
   32MOL   H26230084   3.659   5.266   3.476  2.2913  0.4059  0.4134
   32MOL   H26330085   3.546   5.386   3.460 -0.2812 -0.8592  0.4961
   32MOL   H26430086   3.840   5.473   3.438  1.0660 -3.8750  1.6606
   32MOL   H26530087   3.694   5.557   3.405  0.0308 -0.3786  0.8388
   32MOL   H26630088   3.793   5.319   3.247  0.7800 -0.4591 -0.5001
   32MOL   H26730089   3.632   5.395   3.243  0.0734 -0.1636 -1.1746
   32MOL   H26830090   3.898   5.534   3.185  0.6880 -1.5213  0.5811
   32MOL   H26930091   3.752   5.614   3.180  0.0215 -0.0760 -0.8161
   32MOL   H27030092   3.675   5.497   2.982  0.5457 -0.8580 -0.5486
   32MOL   H27130093   3.814   5.378   2.987  0.1602 -0.0039 -0.3664
   32MOL   H27230094   3.890   5.513   2.828  0.1781 -0.4464 -0.1390
   32MOL   H27330095   3.978   5.548   2.963  0.2656  0.3179 -0.8426
   32MOL   H27430096   3.943   5.770   2.881  0.9032 -1.9219 -1.6139
   32MOL   H27530097   3.822   5.755   2.992 -0.1205 -2.7215  1.2130
   32MOL   H27630098   3.644   5.687   2.821  1.3522 -2.7839 -0.5705
   32MOL   H27730099   3.764   5.683   2.698  0.6622  2.1738 -0.4527
   32MOL   H27830100   3.622   5.875   2.687 -0.3854 -0.5574 -0.6869
   32MOL   H27930101   3.637   5.925   2.837  1.4683  0.1148  0.3903
   32MOL   H28030102   3.863   5.924   2.640 -1.3489 -0.1674 -1.5765
   32MOL   H28130103   3.876   5.988   2.800  1.5666 -0.9896 -1.8233
   32MOL   H28230104   3.687   6.351   2.649  0.3448  0.4171 -1.2543
   32MOL   H28330105   3.758   6.372   2.494 -0.1589 -1.2833 -2.2754
   32MOL   H28430106   3.509   6.208   2.522  2.4148 -0.9384  0.6362
   32MOL   H28530107   3.595   6.213   2.378  0.6439 -0.3103 -0.2057
   32MOL   H28630108   3.597   6.474   2.403  0.5394  0.4319  0.8627
   32MOL   H28730109   3.465   6.451   2.508  1.1001  0.5812  0.2334
   32MOL   H28830110   3.445   6.316   2.242 -2.2002 -0.4867 -0.4799
   32MOL   H28930111   3.439   6.491   2.257 -1.1606  0.4573  1.2734
   32MOL   O29030112   3.227   6.525   2.352  0.1604 -0.2217 -0.7421
   32MOL   C29130113   3.092   6.547   2.369 -1.1418  0.2181 -0.9222
   32MOL   C29230114   3.075   6.583   2.516 -0.3815 -0.6824  0.3649
   32MOL   C29330115   3.100   6.458   2.600 -0.3916 -0.2814 -0.2704
   32MOL   C29430116   3.023   6.428   2.735 -0.1213  0.0156  0.1819
   32MOL   C29530117   3.103   6.435   2.872  0.9208  0.2249 -0.2298
   32MOL   C29630118   3.025   6.423   3.007  0.4445  0.1357  0.0484
   32MOL   C29730119   3.103   6.424   3.140  0.2897  0.2497  0.4348
   32MOL   C29830120   3.237   6.349   3.130  0.1288  0.4113 -0.5068
   32MOL   C29930121   3.304   6.319   3.260  0.2910 -1.0422 -0.4394
   32MOL   C30030122   3.369   6.442   3.318 -0.4556 -0.6038  0.0015
   32MOL   O30130123   3.461   6.414   3.420  0.0228 -0.2708  0.5311
   32MOL   C30230124   3.535   6.504   3.484 -0.1600 -0.2974  0.0460
   32MOL   O30330125   3.549   6.626   3.455 -0.0488 -0.1407 -0.1959
   32MOL   C30430126   3.606   6.440   3.599 -0.9022  0.2827  0.0860
   32MOL   C30530127   3.669   6.548   3.697 -0.2716  0.2664  0.1257
   32MOL   C30630128   3.825   6.556   3.691  0.3051  0.1804  0.2553
   32MOL   C30730129   3.881   6.652   3.799 -0.0388 -0.2466  0.0055
   32MOL   C30830130   4.033   6.658   3.789  0.4001  0.3509 -0.3066
   32MOL   O30930131   4.111   6.596   3.861 -0.4250 -0.2741 -0.4355
   32MOL   H31030132   3.061   6.639   2.319 -0.8322  0.0939 -1.3568
   32MOL   H31130133   3.037   6.461   2.331 -0.8404  0.1196 -1.1445
   32MOL   H31230134   2.971   6.610   2.534  0.7492  1.9525  3.4660
   32MOL   H31330135   3.145   6.662   2.543 -1.7342  0.3390  0.9135
   32MOL   H31430136   3.067   6.377   2.535 -1.3199 -0.5658  0.5423
   32MOL   H31530137   3.207   6.455   2.622  0.0610  1.3314 -2.1525
   32MOL   H31630138   2.983   6.327   2.738  0.4422 -0.2673 -1.3666
   32MOL   H31730139   2.951   6.510   2.732  0.9499  0.9702  0.1480
   32MOL   H31830140   3.151   6.533   2.872  1.5910 -0.0956  1.5736
   32MOL   H31930141   3.180   6.360   2.856  1.2225  0.5574 -0.3425
   32MOL   H32030142   2.972   6.328   3.003  0.3027  0.1847  0.6807
   32MOL   H32130143   2.947   6.499   3.014  0.1778 -0.2196  1.1770
   32MOL   H32230144   3.040   6.368   3.210 -2.1261  3.9975  1.3977
   32MOL   H32330145   3.116   6.526   3.176  1.3724 -0.0604  0.9552
   32MOL   H32430146   3.295   6.408   3.060  0.3383  1.0831  0.2243
   32MOL   H32530147   3.223   6.253   3.079  1.1034  0.0731 -0.1422
   32MOL   H32630148   3.236   6.269   3.329  1.8988 -0.7596  1.4125
   32MOL   H32730149   3.388   6.250   3.253  1.5133  0.4253 -0.4269
   32MOL   H32830150   3.289   6.510   3.348  0.3730  0.6738 -0.6434
   32MOL   H32930151   3.424   6.503   3.246 -0.7791 -0.4857 -0.1440
   32MOL   H33030152   3.534   6.381   3.656 -1.9033  1.7397  0.3532
   32MOL   H33130153   3.676   6.364   3.563 -0.3109  1.3402 -1.0322
   32MOL   H33230154   3.645   6.522   3.800 -0.2611  0.7331  0.2455
   32MOL   H33330155   3.624   6.647   3.689  1.0512  0.9739  1.2318
   32MOL   H33430156   3.859   6.598   3.596  0.4870 -0.0200  0.2330
   32MOL   H33530157   3.872   6.458   3.698  1.8485  0.7769 -1.4747
   32MOL   H33630158   3.863   6.609   3.897 -0.2119 -2.1476 -0.8359
   32MOL   H33730159   3.826   6.746   3.804 -1.4759 -1.0711  0.0127
   32MOL   O33830160   4.075   6.747   3.707 -0.6173  0.4882 -0.1790
   32MOL   C33930161   4.208   6.809   3.711  0.3313  0.6000  0.6337
   32MOL   C34030162   4.229   6.892   3.586  0.0688 -0.1065 -0.5056
   32MOL   C34130163   4.375   6.927   3.583 -0.7228  0.0074 -0.4026
   32MOL   C34230164   4.417   6.982   3.446  0.1706 -0.5210  0.1172
   32MOL   C34330165   4.555   7.053   3.473 -0.3460  0.1753 -0.3301
   32MOL   C34430166   4.637   7.076   3.342 -0.3812  0.0390 -0.7191
   32MOL   C34530167   4.720   6.949   3.306  0.4367  0.1789 -0.4295
   32MOL   C34630168   4.773   6.929   3.159 -0.0396 -0.2171  0.2908
   32MOL   C34730169   4.656   6.895   3.062  0.2570 -0.1198  0.6693
   32MOL   C34830170   4.698   6.849   2.916 -0.5065  0.2488  0.1762
   32MOL   O34930171   4.588   6.785   2.843 -0.3056 -0.3610  0.8950
   32MOL   C35030172   4.510   6.852   2.758 -0.8833 -0.7828  0.2596
   32MOL   O35130173   4.507   6.975   2.760 -0.2614 -0.3315 -0.0462
   32MOL   C35230174   4.418   6.772   2.664  0.1161  0.3489 -0.3685
   32MOL   C35330175   4.429   6.819   2.520 -0.4085  0.1732 -0.0258
   32MOL   C35430176   4.566   6.834   2.450  0.0103 -0.5214  0.7742
   32MOL   C35530177   4.639   6.695   2.438  0.2654  0.4257  0.1937
   32MOL   C35630178   4.790   6.720   2.417  0.8822 -0.1491 -0.0319
   32MOL   O35730179   4.840   6.743   2.304  0.1877 -0.6816  0.1168
   32MOL   H35830180   4.209   6.878   3.796  0.2979  2.1148 -0.5919
   32MOL   H35930181   4.283   6.732   3.732 -0.4202 -0.0889  0.8380
   32MOL   H36030182   4.176   6.987   3.596  1.1276  0.5718 -1.1659
   32MOL   H36130183   4.199   6.839   3.496  0.3114  1.0307 -1.2661
   32MOL   H36230184   4.397   6.995   3.666 -0.3237  0.3348 -0.7730
   32MOL   H36330185   4.419   6.828   3.593  2.0597  1.3858  1.7376
   32MOL   H36430186   4.345   7.057   3.411 -1.6090 -1.2879  2.0148
   32MOL   H36530187   4.428   6.902   3.373  1.6266 -1.8293  1.7547
   32MOL   H36630188   4.608   7.011   3.558 -0.5574  1.3771  0.4134
   32MOL   H36730189   4.530   7.152   3.512 -1.8752 -0.1405 -0.4916
   32MOL   H36830190   4.706   7.156   3.370 -1.7081  1.3475 -1.1005
   32MOL   H36930191   4.577   7.115   3.260 -0.8572 -0.0587 -0.4195
   32MOL   H37030192   4.671   6.857   3.336 -0.5290  1.3561  1.7904
   32MOL   H37130193   4.808   6.942   3.370 -0.4292  0.2631  0.7955
   32MOL   H37230194   4.850   6.852   3.157 -3.3590 -3.6769  0.3669
   32MOL   H37330195   4.824   7.018   3.122  1.0970 -1.0346 -0.1516
   32MOL   H37430196   4.592   6.819   3.106 -2.4337  1.3809 -0.5576
   32MOL   H37530197   4.596   6.986   3.052  0.1609 -0.1715  0.7822
   32MOL   H37630198   4.767   6.766   2.931  0.6427  0.8161 -1.7640
   32MOL   H37730199   4.757   6.923   2.862 -2.1519  0.8731 -0.8014
   32MOL   H37830200   4.454   6.669   2.662  0.3958  0.4365 -0.0057
   32MOL   H37930201   4.313   6.781   2.689  0.1410 -1.2979  0.4616
   32MOL   H38030202   4.382   6.918   2.517 -0.0542  0.3569  0.4005
   32MOL   H38130203   4.374   6.754   2.452 -3.3899  2.6202 -0.1001
   32MOL   H38230204   4.630   6.905   2.503 -0.5972 -0.6545  1.6970
   32MOL   H38330205   4.555   6.868   2.347  2.4850 -0.2951  0.5628
   32MOL   H38430206   4.604   6.627   2.360  1.3613  0.6982 -0.5502
   32MOL   H38530207   4.626   6.639   2.530 -3.2539 -3.0618 -2.3075
   32MOL   O38630208   4.855   6.736   2.531  0.3492  0.2707 -0.5348
   32MOL   C38730209   4.981   6.787   2.532 -0.8434  0.3422  0.0173
   32MOL   C38830210   5.007   6.854   2.667  0.7879  0.0410  0.0524
   32MOL   C38930211   5.039   6.760   2.780 -0.2094 -0.1813 -0.6314
   32MOL   C39030212   5.065   6.831   2.912 -0.2517  0.0889  1.1112
   32MOL   C39130213   5.087   6.741   3.023 -0.2650  0.1599 -0.1467
   32MOL   C39230214   5.149   6.799   3.150 -0.2553 -0.1872 -0.3977
   32MOL   C39330215   5.172   6.682   3.256  0.1345 -0.5657  0.2663
   32MOL   C39430216   5.187   6.734   3.397 -0.6472  0.1577  0.3370
   32MOL   C39530217   5.170   6.627   3.509 -0.0503  0.1786 -1.1730
   32MOL   C39630218   5.199   6.679   3.649  0.1486  0.0961  0.0263
   32MOL   O39730219   5.115   6.791   3.672  0.3565 -0.1910 -0.2094
   32MOL   C39830220   5.007   6.778   3.752  0.6379  0.7403 -0.2399
   32MOL   O39930221   4.986   6.704   3.848  0.5644 -0.0976  0.4165
   32MOL   C40030222   4.893   6.882   3.715 -0.2510  0.0743 -0.1376
   32MOL   C40130223   4.921   7.021   3.768  0.1059  0.2542  0.7462
   32MOL   C40230224   4.808   7.114   3.768 -0.4002  0.2819  0.8955
   32MOL   C40330225   4.695   7.073   3.868  0.2589 -0.1486  0.0348
   32MOL   C40430226   4.726   7.114   4.011 -0.1648 -0.5918  0.1023
   32MOL   O40530227   4.837   7.116   4.060 -0.3030  0.3362  0.5793
   32MOL   H40630228   5.062   6.718   2.509 -0.2679  1.0894 -0.2083
   32MOL   H40730229   4.986   6.871   2.463  1.2924  2.6774  2.8486
   32MOL   H40830230   4.916   6.909   2.693  1.0466 -0.2027  1.5712
   32MOL   H40930231   5.081   6.933   2.656  3.0457 -1.7153  2.0360
   32MOL   H41030232   4.952   6.694   2.785 -0.5925  0.3729  0.3205
   32MOL   H41130233   5.115   6.689   2.751 -0.3025  0.4902 -2.5805
   32MOL   H41230234   4.987   6.904   2.934 -0.3073 -0.1376  1.6736
   32MOL   H41330235   5.155   6.892   2.898 -0.8481  1.0110  1.2192
   32MOL   H41430236   5.158   6.672   2.977 -0.8879 -0.5878 -0.0060
   32MOL   H41530237   5.000   6.683   3.055 -0.7140  1.1814  0.4942
   32MOL   H41630238   5.078   6.873   3.186 -0.8489 -1.7726  1.7767
   32MOL   H41730239   5.239   6.857   3.129  0.4961 -1.2535 -0.1916
   32MOL   H41830240   5.259   6.618   3.237 -0.1271 -1.0500  0.6769
   32MOL   H41930241   5.092   6.607   3.255  0.5920 -1.0536 -0.6614
   32MOL   H42030242   5.109   6.810   3.404  0.6868  1.6657 -0.6308
   32MOL   H42130243   5.282   6.788   3.409 -0.0903 -0.6394 -0.4029
   32MOL   H42230244   5.069   6.586   3.498 -1.2426  2.4863  0.6538
   32MOL   H42330245   5.227   6.535   3.498  2.8187  1.8841 -0.9306
   32MOL   H42430246   5.302   6.712   3.641  0.9354 -2.0864  0.8272
   32MOL   H42530247   5.183   6.610   3.732  1.1499  1.7442  1.6257
   32MOL   H42630248   4.881   6.876   3.607  0.0233  0.6422 -0.2011
   32MOL   H42730249   4.802   6.840   3.759 -1.3678  1.4157 -1.0984
   32MOL   H42830250   4.996   7.066   3.703 -0.3692  0.3218  0.2432
   32MOL   H42930251   4.953   7.013   3.872  1.6346 -0.1649  0.2542
   32MOL   H43030252   4.770   7.135   3.668  1.5522 -0.7402 -0.0765
   32MOL   H43130253   4.845   7.215   3.790 -0.2402  0.3475  0.3300
   32MOL   H43230254   4.689   6.964   3.863  1.1412 -0.3149  2.1306
   32MOL   H43330255   4.597   7.111   3.838  0.2508 -1.7350 -2.0467
   32MOL   O43430256   4.616   7.165   4.071 -0.2356 -0.3256 -0.2259
   32MOL   C43530257   4.629   7.278   4.161 -0.3573  0.2081  0.5969
   32MOL   C43630258   4.603   7.231   4.304  0.5662 -0.1582  0.0504
   32MOL   C43730259   4.714   7.137   4.364 -0.2947 -0.0682 -0.4073
   32MOL   C43830260   4.664   7.077   4.502 -0.8658 -0.1067 -0.0079
   32MOL   C43930261   4.768   7.006   4.585 -0.2938  0.5059  0.0729
   32MOL   C44030262   4.719   6.910   4.683 -0.1396  0.2254  0.0546
   32MOL   C44130263   4.831   6.801   4.718  0.2132 -1.1713  0.2851
   32MOL   C44230264   4.773   6.672   4.780 -0.0514 -0.3403  0.0307
   32MOL   C44330265   4.896   6.575   4.776 -0.4088 -0.2370 -0.2145
   32MOL   C44430266   4.855   6.428   4.806 -0.2651 -0.2683 -0.0029
   32MOL   O44530267   4.824   6.443   4.942 -0.4347  0.1457 -0.6793
   32MOL   C44630268   4.890   6.368   5.035 -0.5206 -0.1205  0.0914
   32MOL   O44730269   4.965   6.274   5.017 -0.1397  0.1444  0.2741
   32MOL   C44830270   4.851   6.405   5.175 -0.7207 -0.3148  0.2439
   32MOL   C44930271   4.975   6.443   5.250 -0.6032  0.0814 -0.4070
   32MOL   C45030272   5.045   6.578   5.206 -0.2083 -0.2738  0.9556
   32MOL   C45130273   4.961   6.702   5.227  0.9583  0.5018  0.0940
   32MOL   C45230274   5.050   6.825   5.213  0.4338  0.7241  0.1599
   32MOL   O45330275   5.137   6.852   5.296 -0.8119  0.4310 -0.4207
   32MOL   H45430276   4.725   7.329   4.153 -1.0858  1.2329 -2.0926
   32MOL   H45530277   4.546   7.343   4.134  0.3219  1.3302  1.1772
   32MOL   H45630278   4.508   7.178   4.308  1.3083 -1.3381  3.2392
   32MOL   H45730279   4.580   7.319   4.365 -2.0221 -0.2620 -0.6936
   32MOL   H45830280   4.728   7.047   4.305 -0.4858  1.0683 -2.2473
   32MOL   H45930281   4.804   7.195   4.386  0.0033 -0.4964 -0.4997
   32MOL   H46030282   4.582   7.007   4.485 -0.4685 -0.2748 -1.2303
   32MOL   H46130283   4.629   7.165   4.558 -2.6232 -1.3190  0.8507
   32MOL   H46230284   4.830   7.079   4.637 -1.6086  1.7647 -0.1117
   32MOL   H46330285   4.827   6.954   4.509  0.0813 -0.0772  0.7588
   32MOL   H46430286   4.634   6.858   4.640 -0.0949 -1.5239  1.9318
   32MOL   H46530287   4.672   6.962   4.767 -1.0540  0.0843 -0.3667
   32MOL   H46630288   4.901   6.844   4.789  0.9193 -0.7917 -0.6332
   32MOL   H46730289   4.879   6.763   4.628  1.4114 -1.3861  1.0041
   32MOL   H46830290   4.688   6.635   4.723  1.5756 -2.1598 -1.2772
   32MOL   H46930291   4.740   6.684   4.884 -0.2182 -3.5148  0.4049
   32MOL   H47030292   4.950   6.571   4.681  0.4981 -0.8701  0.3132
   32MOL   H47130293   4.972   6.601   4.850  0.0854 -3.6189  0.5654
   32MOL   H47230294   4.941   6.363   4.789  1.0814  1.6085 -0.6012
   32MOL   H47330295   4.775   6.388   4.745  0.4846  0.6249 -1.5952
   32MOL   H47430296   4.778   6.486   5.165  1.2595  1.3407 -1.3859
   32MOL   H47530297   4.796   6.320   5.215  0.3783 -0.0399  2.4297
   32MOL   H47630298   5.043   6.358   5.260 -2.5987 -1.5790 -0.5098
   32MOL   H47730299   4.939   6.445   5.353 -0.4782  0.1277 -0.3644
   32MOL   H47830300   5.068   6.559   5.102 -3.5360 -0.2139  0.1645
   32MOL   H47930301   5.146   6.579   5.248  0.3641 -0.9112 -0.3816
   32MOL   H48030302   4.905   6.702   5.321 -0.0702  0.0692 -0.5018
   32MOL   H48130303   4.882   6.705   5.152 -0.3491 -1.6293  1.3430
   32MOL   O48230304   5.028   6.879   5.092 -0.4870 -0.0719 -1.3530
   32MOL   C48330305   5.076   7.011   5.062 -0.5509  0.1073 -0.6773
   32MOL   C48430306   4.976   7.119   5.090  0.1547 -0.5930  0.2669
   32MOL   C48530307   4.892   7.172   4.970  0.0777 -0.7842  0.4109
   32MOL   C48630308   4.800   7.293   5.008 -0.1992  0.6647  0.7407
   32MOL   C48730309   4.712   7.347   4.896 -0.2156  0.6075 -0.5864
   32MOL   C48830310   4.616   7.449   4.959  1.0955  0.0368  0.8561
   32MOL   C48930311   4.554   7.557   4.875 -0.7144  0.2691 -0.2654
   32MOL   C49030312   4.656   7.646   4.803  0.4532 -0.4992  0.5256
   32MOL   C49130313   4.568   7.755   4.737 -0.8090  0.1609 -0.3011
   32MOL   C49230314   4.640   0.070   4.633 -1.1347  0.5693  0.3556
   32MOL   O49330315   4.739   0.149   4.683  0.5290 -0.4629  0.0088
   32MOL   C49430316   4.773   0.268   4.631  0.7954 -0.6682  0.6938
   32MOL   O49530317   4.723   0.326   4.537 -0.0899  0.1938  0.4848
   32MOL   C49630318   4.885   0.333   4.716  0.1218  0.3311 -0.5028
   32MOL   C49730319   4.843   0.440   4.816  0.4887 -0.4335  0.1842
   32MOL   C49830320   4.760   0.391   4.932  0.6724 -0.0106  0.8878
   32MOL   C49930321   4.747   0.487   5.056  0.5693 -0.0774  0.8731
   32MOL   C50030322   4.662   0.418   5.163  0.8628 -0.2638  1.1732
   32MOL   O50130323   4.703   0.391   5.274  0.9074 -0.8812 -0.6130
   32MOL   H50230324   5.172   7.025   5.110 -0.8478 -1.1533  0.3338
   32MOL   H50330325   5.098   7.005   4.955 -2.2999  0.7249 -1.0888
   32MOL   H50430326   5.038   7.196   5.137  0.6517 -0.8253  0.0004
   32MOL   H50530327   4.907   7.079   5.165 -0.1142 -1.0141 -0.2041
   32MOL   H50630328   4.961   7.213   4.897  0.7464  0.6929  1.8350
   32MOL   H50730329   4.830   7.091   4.933  0.7741 -0.2988 -1.8789
   32MOL   H50830330   4.858   7.371   5.056  2.3280 -0.5575 -0.2281
   32MOL   H50930331   4.741   7.261   5.094 -0.1148  2.0344  1.3299
   32MOL   H51030332   4.661   7.271   4.836  1.5016 -2.1750  1.3345
   32MOL   H51130333   4.775   7.388   4.817 -0.2553 -0.5379 -1.2311
   32MOL   H51230334   4.669   7.492   5.043 -0.2223 -0.7146  2.0982
   32MOL   H51330335   4.531   7.392   4.996  1.0752 -0.0239  0.7196
   32MOL   H51430336   4.485   7.615   4.936  1.2624 -0.2284  2.5617
   32MOL   H51530337   4.489   7.504   4.806 -1.2994 -0.2439  0.6623
   32MOL   H51630338   4.719   7.589   4.734 -0.4156 -1.2839  0.3764
   32MOL   H51730339   4.725   7.688   4.876 -0.1649 -1.5334  1.7143
   32MOL   H51830340   4.483   7.703   4.692 -1.7419 -0.0292  1.6487
   32MOL   H51930341   4.535   0.053   4.820  0.6196  0.5361 -0.0074
   32MOL   H52030342   4.568   0.128   4.576 -1.6259  0.2094  0.6049
   32MOL   H52130343   4.690   0.011   4.556  0.9402  2.0934  0.4988
   32MOL   H52230344   4.927   0.250   4.773 -1.5964  0.8421  1.6006
   32MOL   H52330345   4.963   0.365   4.647  0.2686 -0.6682 -0.8106
   32MOL   H52430346   4.779   0.516   4.772  1.5352 -0.4425 -1.4138
   32MOL   H52530347   4.937   0.490   4.839 -0.0795  1.5310 -1.6474
   32MOL   H52630348   4.805   0.297   4.967  0.6579  0.1053  1.2194
   32MOL   H52730349   4.666   0.361   4.887  0.1376  2.1742  0.5450
   32MOL   H52830350   4.700   0.583   5.032 -0.6838 -1.1957 -1.2633
   32MOL   H52930351   4.845   0.519   5.093  0.5395  1.7662 -0.5460
   32MOL   O53030352   4.539   0.399   5.121 -0.1792  0.3485 -0.5900
   32MOL   C53130353   4.451   0.327   5.206  0.8985 -0.2352  0.5128
   32MOL   C53230354   4.396   0.199   5.140  0.1322  0.4786  0.2635
   32MOL   C53330355   4.326   0.233   5.006 -0.3307 -0.5067 -0.4209
   32MOL   C53430356   4.259   0.113   4.933  0.0187 -0.6110  0.8988
   32MOL   C53530357   4.187   0.155   4.803  0.8727  0.0713 -0.0558
   32MOL   C53630358   4.084   0.051   4.758 -0.1262 -0.7587  0.3425
   32MOL   C53730359   3.993   0.098   4.640 -0.4477 -0.4809 -0.3972
   32MOL   C53830360   4.073   0.105   4.507 -0.1813  0.3246  0.0268
   32MOL   C53930361   3.993   0.169   4.390 -0.0919  0.3087 -0.0874
   32MOL   C54030362   4.084   0.161   4.262 -0.5270 -0.1214  0.0778
   32MOL   O54130363   4.021   0.219   4.150  0.0042  0.0659 -0.6874
   32MOL   C54230364   4.081   0.225   4.029  0.0173  0.0122  0.1016
   32MOL   O54330365   4.189   0.178   3.998 -0.0770  0.0100 -0.5929
   32MOL   C54430366   3.994   0.280   3.909  0.3577  0.7045 -0.4045
   32MOL   C54530367   3.852   0.241   3.910 -0.1349 -0.6662 -1.0694
   32MOL   C54630368   3.765   0.360   3.972  0.1349  0.3834 -0.0656
   32MOL   C54730369   3.625   0.308   3.998  0.6254  0.0649 -0.9180
   32MOL   C54830370   3.609   0.222   4.124 -0.2121 -0.4923 -0.4647
   32MOL   O54930371   3.643   0.105   4.121 -0.4535  0.2573  0.3652
   32MOL   H55030372   4.479   0.309   5.310  0.0905 -0.4358  0.7030
   32MOL   H55130373   4.369   0.399   5.208  0.3544 -0.8647  1.7729
   32MOL   H55230374   4.333   0.143   5.208  1.1455  0.3304  1.0954
   32MOL   H55330375   4.479   0.129   5.126 -0.4223  0.1684 -1.6253
   32MOL   H55430376   4.260   0.318   5.022  1.0412  0.1833  1.7033
   32MOL   H55530377   4.395   0.292   4.946 -0.3079  1.1618  1.2103
   32MOL   H55630378   4.176   0.092   5.001 -0.6065  0.5983  0.5242
   32MOL   H55730379   4.307   0.015   4.932 -2.6632 -1.9726  0.4964
   32MOL   H55830380   4.271   0.167   4.735  1.2299  0.1378  0.3914
   32MOL   H55930381   4.141   0.252   4.822  1.6785  0.6711 -1.1039
   32MOL   H56030382   4.020   0.028   4.843 -1.3387  1.3468  0.0261
   32MOL   H56130383   4.127   7.716   4.750 -0.3607 -0.8408  0.0829
   32MOL   H56230384   3.973   0.201   4.669 -2.5157 -0.8654 -0.4088
   32MOL   H56330385   3.894   0.052   4.644 -0.4109 -0.5505 -0.2842
   32MOL   H56430386   4.096   0.002   4.481 -4.2454 -1.0724  1.6232
   32MOL   H56530387   4.162   0.168   4.512 -0.8539  1.2099  1.1220
   32MOL   H56630388   3.900   0.115   4.374 -0.1692  0.2864  0.4153
   32MOL   H56730389   3.984   0.275   4.415  3.0309  0.3285  1.2159
   32MOL   H56830390   4.093   0.057   4.231 -0.8593  0.0248 -0.5115
   32MOL   H56930391   4.190   0.187   4.271 -0.7571  0.5707  0.8321
   32MOL   H57030392   4.003   0.388   3.912 -0.2382  0.7582 -0.3213
   32MOL   H57130393   4.045   0.243   3.821 -0.4369  0.5314 -0.7965
   32MOL   H57230394   3.840   0.145   3.959 -0.3621  0.0543  0.3108
   32MOL   H57330395   3.805   0.222   3.813 -2.7490 -2.9950  0.5955
   32MOL   H57430396   3.752   0.441   3.901  1.0302  0.4283 -0.1936
   32MOL   H57530397   3.815   0.397   4.062  1.4742 -0.4569 -0.4576
   32MOL   H57630398   3.589   0.254   3.911 -0.4949  0.9735 -1.0312
   32MOL   H57730399   3.562   0.397   4.008 -0.4189 -0.8584  1.1647
   32MOL   O57830400   3.556   0.277   4.236 -0.5021  0.2578 -0.0922
   32MOL   C57930401   3.544   0.203   4.356 -0.0387  0.0020 -0.9491
   32MOL   C58030402   3.445   0.255   4.446  0.3816 -0.1056  0.3086
   32MOL   C58130403   3.447   0.196   4.589 -0.4824  0.4188  0.2313
   32MOL   C58230404   3.572   0.227   4.676  0.2139  0.3266 -0.2435
   32MOL   C58330405   3.573   0.137   4.793  0.3796 -0.6401 -0.9368
   32MOL   C58430406   3.693   0.148   4.882 -0.5731 -0.0149  0.1702
   32MOL   C58530407   3.671   0.107   5.031 -0.2796  0.2439  0.5020
   32MOL   C58630408   3.811   0.105   5.104  0.2020  0.0581  0.1072
   32MOL   C58730409   3.785   0.109   5.257  0.6530 -0.4253  0.2013
   32MOL   C58830410   3.911   0.152   5.343  0.0637  0.3649  0.3208
   32MOL   O58930411   3.918   0.284   5.333  0.1562  0.1679 -0.1152
   32MOL   C59030412   4.045   0.343   5.326 -0.0111 -0.4096 -0.4137
   32MOL   O59130413   4.155   0.282   5.320 -0.4411  0.0052 -0.3371
   32MOL   C59230414   4.043   0.497   5.326  0.2077 -0.7129 -0.5484
   32MOL   C59330415   4.002   0.548   5.465 -0.3102 -0.4250  0.2858
   32MOL   C59430416   4.106   0.531   5.579  0.4176 -0.4245  0.1262
   32MOL   C59530417   4.051   0.605   5.706 -0.7398 -0.0822 -0.4467
   32MOL   C59630418   4.154   0.671   5.797  0.0164 -0.2619  0.5320
   32MOL   O59730419   4.182   0.790   5.775  0.3770  0.3217 -0.1593
   32MOL   H59830420   3.527   0.096   4.338  0.2699  0.0268 -1.4214
   32MOL   H59930421   3.642   0.209   4.404  0.6784 -1.1971 -2.2152
   32MOL   H60030422   3.344   0.236   4.408 -0.6236  0.9149  2.4178
   32MOL   H60130423   3.450   0.363   4.460  1.9535 -0.0918 -0.2555
   32MOL   H60230424   3.358   0.218   4.648 -0.7390 -1.3601  0.5287
   32MOL   H60330425   3.440   0.088   4.581  0.4761  0.4144 -0.5626
   32MOL   H60430426   3.584   0.329   4.713  0.0917 -0.1402  1.1090
   32MOL   H60530427   3.662   0.201   4.619 -0.1566  2.3044 -1.7869
   32MOL   H60630428   3.558   0.035   4.759 -2.6209 -0.0842 -1.3707
   32MOL   H60730429   3.495   0.174   4.859  1.8296  0.4768  0.2060
   32MOL   H60830430   3.743   0.245   4.884 -2.9578  1.2268  0.9101
   32MOL   H60930431   3.769   0.079   4.846  0.6441  2.2562 -1.7682
   32MOL   H61030432   3.619   0.012   5.042 -1.1197  0.5873 -0.4208
   32MOL   H61130433   3.615   0.190   5.073 -2.0545 -0.6206 -0.1254
   32MOL   H61230434   3.866   0.195   5.076  0.2679 -0.0714 -0.1757
   32MOL   H61330435   3.875   0.021   5.077 -0.0030 -0.8260  2.2436
   32MOL   H61430436   3.698   0.173   5.272  1.3880  0.5782  0.2729
   32MOL   H61530437   3.761   0.007   5.286  0.9611 -0.5707 -0.0561
   32MOL   H61630438   4.001   0.104   5.304 -0.4655 -0.7561  0.4702
   32MOL   H61730439   3.908   0.124   5.448  1.5484  0.0057  0.2873
   32MOL   H61830440   4.131   0.543   5.282 -1.1445  1.1702 -1.3209
   32MOL   H61930441   3.966   0.532   5.257 -1.1736  2.2141  2.3386
   32MOL   H62030442   3.922   0.485   5.503  0.1457 -1.6514 -0.7661
   32MOL   H62130443   3.968   0.651   5.458 -3.5625 -1.3853  0.8691
   32MOL   H62230444   4.196   0.583   5.548  0.2855 -0.2602  0.0138
   32MOL   H62330445   4.132   0.427   5.600  0.6999 -0.3646  0.0641
   32MOL   H62430446   3.981   0.541   5.761  0.8807 -0.1278  1.6389
   32MOL   H62530447   3.993   0.689   5.670  2.0520  2.0780 -0.0983
   32MOL   O62630448   4.214   0.594   5.894 -0.9165  0.2868 -0.6583
   32MOL   C62730449   4.328   0.646   5.961  0.4983  0.0978 -0.0269
   32MOL   C62830450   4.453   0.571   5.900  0.7759 -0.0184  0.7226
   32MOL   C62930451   4.480   0.586   5.754  1.0404  0.3718  0.0060
   32MOL   C63030452   4.605   0.522   5.702  0.6143  0.1137  0.2528
   32MOL   C63130453   4.618   0.370   5.728  0.8959 -0.2192 -0.1895
   32MOL   C63230454   4.517   0.291   5.648  0.0705 -0.0703 -0.1979
   32MOL   C63330455   4.395   0.252   5.738  0.2242 -0.9617 -0.1733
   32MOL   C63430456   4.297   0.159   5.659 -0.4861  0.8275 -0.4769
   32MOL   C63530457   4.181   0.122   5.757  0.1600  0.6344 -0.6759
   32MOL   C63630458   4.065   0.217   5.764 -0.0053  0.3945  0.6965
   32MOL   O63730459   3.944   0.169   5.812  0.3664  0.5804 -0.0007
   32MOL   C63830460   3.825   0.222   5.776  0.8692 -0.5045 -0.5803
   32MOL   O63930461   3.801   0.314   5.699  0.3289  0.0217  0.3973
   32MOL   C64030462   3.709   0.153   5.850  0.6109  0.3509 -0.7284
   32MOL   C64130463   3.604   0.109   5.747 -0.3893  0.6122 -0.8179
   32MOL   C64230464   3.484   0.196   5.719  0.0660  0.0606  0.9483
   32MOL   C64330465   3.378   0.137   5.628  0.6644  0.0883  0.1316
   32MOL   C64430466   3.405   0.124   5.478 -0.2508 -0.5416  0.3891
   32MOL   O64530467   3.472   0.030   5.445 -0.0364 -0.0570 -0.1896
   32MOL   H64630468   4.334   0.755   5.962 -2.7723  0.3251  1.7753
   32MOL   H64730469   4.331   0.621   6.067 -1.4611  0.4747  0.1260
   32MOL   H64830470   4.448   0.463   5.917  0.4495  0.1646  1.8770
   32MOL   H64930471   4.546   0.596   5.950  0.9135 -0.1649  0.5371
   32MOL   H65030472   4.395   0.567   5.689  0.5090 -3.0139  1.5991
   32MOL   H65130473   4.488   0.693   5.735 -0.5035  0.8966  2.1462
   32MOL   H65230474   4.693   0.558   5.755  0.0919  0.3967  0.9227
   32MOL   H65330475   4.632   0.558   5.602  1.8669 -0.5604  0.3366
   32MOL   H65430476   4.613   0.344   5.834 -1.0638 -1.5767 -0.5937
   32MOL   H65530477   4.712   0.325   5.695  0.7294 -0.7025 -0.0186
   32MOL   H65630478   4.561   0.203   5.600  1.3629  0.4011  0.1208
   32MOL   H65730479   4.481   0.348   5.562  1.4676  1.8838  0.4988
   32MOL   H65830480   4.332   0.329   5.782  0.1326 -0.9549 -0.3150
   32MOL   H65930481   4.433   0.199   5.825  0.2429 -1.4223 -0.4609
   32MOL   H66030482   4.345   0.066   5.626 -1.5475  0.5557 -1.3085
   32MOL   H66130483   4.267   0.223   5.575 -0.5109  0.5697 -0.6664
   32MOL   H66230484   4.134   0.027   5.730  2.2613 -0.7013  0.2890
   32MOL   H66330485   4.223   0.104   5.856  0.2365 -3.2102 -1.3228
   32MOL   H66430486   4.049   0.263   5.666 -3.5900 -0.6799  0.7228
   32MOL   H66530487   4.105   0.300   5.822  0.3964  1.5168 -1.1447
   32MOL   H66630488   3.745   0.064   5.902 -0.4106 -0.1813 -0.9169
   32MOL   H66730489   3.665   0.221   5.923  0.2446 -0.7682  0.1169
   32MOL   H66830490   3.566   0.008   5.765  2.2150 -0.2273  0.2980
   32MOL   H66930491   3.658   0.089   5.655 -0.7265  0.5314 -1.0006
   32MOL   H67030492   3.515   0.291   5.676  0.1463 -0.8941 -1.1458
   32MOL   H67130493   3.440   0.230   5.813  0.1593  2.1105  0.2606
   32MOL   H67230494   3.283   0.189   5.639  0.5923 -0.1815  0.8624
   32MOL   H67330495   3.344   0.038   5.659 -0.9307  1.1097  1.7578
   32MOL   O67430496   3.375   0.232   5.402  0.1655  0.0081 -0.2421
   32MOL   C67530497   3.389   0.221   5.264 -0.5370  0.2534 -0.3407
   32MOL   C67630498   3.302   0.323   5.204 -0.4522 -0.6050 -0.2796
   32MOL   C67730499   3.329   0.342   5.050  0.7973  0.1453  0.4604
   32MOL   C67830500   3.253   0.455   4.988 -0.3419  0.1785  0.4754
   32MOL   C67930501   3.241   0.456   4.835  0.2735  0.1750  0.1036
   32MOL   C68030502   3.131   0.555   4.788 -0.2950  0.0392  0.7075
   32MOL   C68130503   3.119   0.579   4.636  0.1489 -0.0743 -0.0736
   32MOL   C68230504   3.124   0.458   4.542  0.2349  0.2511 -0.5699
   32MOL   C68330505   3.018   0.344   4.566 -0.5990 -0.2932  0.1725
   32MOL   C68430506   3.053   0.220   4.479 -0.2766  0.0669  0.0810
   32MOL   O68530507   2.976   0.105   4.516  0.3044  0.9258 -0.1121
   32MOL   C68630508   2.853   0.082   4.456  0.3083 -0.6875 -0.1955
   32MOL   O68730509   2.802   0.149   4.367  0.2319  0.0185  0.1160
   32MOL   C68830510   2.790   7.723   4.520  0.2044 -0.2391  0.0232
   32MOL   C68930511   2.849   7.687   4.659  0.9026  0.3547 -0.6818
   32MOL   C69030512   2.808   0.027   4.764 -0.1038 -0.2730  0.3602
   32MOL   C69130513   2.837   7.746   4.907  0.3641  0.5731 -0.0036
   32MOL   C69230514   2.974   7.756   4.954 -0.7880  0.2388 -0.0212
   32MOL   O69330515   3.003   0.091   5.021  0.0792  0.1691 -0.7164
   32MOL   H69430516   3.494   0.242   5.243 -0.5336 -0.0586 -0.6353
   32MOL   H69530517   3.362   0.125   5.220 -1.1482  0.0950  0.3719
   32MOL   H69630518   3.333   0.420   5.243 -1.6184 -0.1633 -0.4116
   32MOL   H69730519   3.197   0.303   5.225 -0.3060 -2.4657 -1.2223
   32MOL   H69830520   3.435   0.343   5.024  0.5809  1.3135 -0.3937
   32MOL   H69930521   3.292   0.251   5.000  1.6012  0.3902 -0.5983
   32MOL   H70030522   3.285   0.553   5.024  0.4257  0.0701  0.1082
   32MOL   H70130523   3.150   0.458   5.023 -0.2348  0.0022  0.8019
   32MOL   H70230524   3.224   0.353   4.803  0.9956  0.2789 -0.6193
   32MOL   H70330525   3.340   0.488   4.802  1.3150 -2.0255  0.9381
   32MOL   H70430526   3.162   0.654   4.821 -0.5955  0.3121  0.1763
   32MOL   H70530527   3.033   0.531   4.830 -0.4863  1.7257  1.2739
   32MOL   H70630528   3.184   0.659   4.601 -1.1540  1.3475  0.7189
   32MOL   H70730529   3.023   0.629   4.626  0.1677 -0.4367 -2.3436
   32MOL   H70830530   3.226   0.419   4.541  0.6987  1.4576 -0.8587
   32MOL   H70930531   3.120   0.493   4.439  0.0677 -1.3317 -1.1291
   32MOL   H71030532   3.024   0.305   4.668  1.0702  1.2648  0.7110
   32MOL   H71130533   2.916   0.379   4.554 -0.6233 -0.0299  1.0883
   32MOL   H71230534   3.157   0.194   4.495  0.0581  0.5059 -1.3521
   32MOL   H71330535   3.057   0.242   4.373  1.0794 -1.0517 -0.1142
   32MOL   H71430536   2.681   7.735   4.528  0.2521 -1.0748  2.3321
   32MOL   H71530537   2.811   7.638   4.455  0.6442  2.5962 -3.6639
   32MOL   H71630538   2.958   7.691   4.662  0.8601  0.6415  0.9224
   32MOL   H71730539   2.814   7.590   4.695  0.1301  0.2832 -1.5910
   32MOL   H71830540   2.699   0.027   4.757 -0.1653 -1.4635  1.1220
   32MOL   H71930541   2.839   0.123   4.726 -0.7199  0.1329  0.8641
   32MOL   H72030542   2.800   7.645   4.918 -1.7740  1.2911 -0.4131
   32MOL   H72130543   2.778   0.038   4.979 -1.5032  0.2787 -1.2600
   32MOL   O72230544   3.049   7.654   4.940 -0.3708 -0.5825  0.1082
   32MOL   C72330545   3.191   7.658   4.976 -0.1386 -0.6018 -0.1670
   32MOL   C72430546   3.277   7.657   4.846 -0.7456  0.6175  0.8130
   32MOL   C72530547   3.224   7.547   4.758  0.2089  0.0819  0.6555
   32MOL   C72630548   3.289   7.549   4.614  0.2618 -0.4422  0.7611
   32MOL   C72730549   3.221   7.642   4.512  0.6914 -0.0163 -0.0261
   32MOL   C72830550   3.294   7.640   4.370  0.1679 -0.0291 -0.3828
   32MOL   C72930551   3.230   7.724   4.262 -0.0694 -0.6048  0.5646
   32MOL   C73030552   3.298   7.724   4.129  0.3559  1.1116  0.3052
   32MOL   C73130553   3.255   0.089   4.055 -0.3078  0.5770 -0.0226
   32MOL   C73230554   3.296   0.089   3.908  0.6401 -0.2732 -0.1308
   32MOL   O73330555   3.271   0.222   3.859  0.0375  0.3517  0.1408
   32MOL   C73430556   3.354   0.261   3.762 -0.0139 -0.5085 -0.0329
   32MOL   O73530557   3.438   0.196   3.698 -0.0287 -0.6694 -0.2597
   32MOL   C73630558   3.334   0.406   3.729  0.1536 -0.1907 -0.6317
   32MOL   C73730559   3.208   0.434   3.652  0.1815  0.4868 -0.2007
   32MOL   C73830560   3.100   0.518   3.720 -0.5647  0.1309 -0.2996
   32MOL   C73930561   2.970   0.527   3.633  0.2313 -1.0380  0.2317
   32MOL   C74030562   2.859   0.607   3.702  0.2192 -0.1488  0.2411
   32MOL   O74130563   2.874   0.664   3.807  0.3559  0.3517  0.3610
   32MOL   H74230564   3.219   7.738   5.045  1.6964 -1.2138 -0.1811
   32MOL   H74330565   3.203   7.568   5.035 -1.5509  0.3517  1.6310
   32MOL   H74430566   3.378   7.632   4.876 -2.0975 -1.6777  3.7001
   32MOL   H74530567   3.273   7.747   4.784  0.7473 -1.1481 -1.9156
   32MOL   H74630568   3.250   7.455   4.809  1.2788  0.7544  1.3386
   32MOL   H74730569   3.116   7.549   4.742  0.2398  0.7208  0.4845
   32MOL   H74830570   3.277   7.449   4.571 -0.5218  0.4251 -1.0831
   32MOL   H74930571   3.394   7.576   4.618 -0.0528  0.7481  1.1009
   32MOL   H75030572   3.230   7.741   4.558  2.3622 -0.2293  0.1643
   32MOL   H75130573   3.117   7.610   4.504  0.5653  0.1524  0.8642
   32MOL   H75230574   3.290   7.538   4.332 -0.0472 -0.5647  1.0400
   32MOL   H75330575   3.400   7.665   4.381  0.1295 -0.8492  2.1700
   32MOL   H75430576   3.235   0.064   4.292  2.2559 -0.3751 -0.4413
   32MOL   H75530577   3.125   7.705   4.243 -0.3827  0.6725  0.9835
   32MOL   H75630578   3.280   7.630   4.078 -1.5021  0.6670  1.7289
   32MOL   H75730579   3.404   7.721   4.155  0.2750  1.9148  0.7443
   32MOL   H75830580   3.149   0.113   4.059 -0.3174  0.8225 -1.5672
   32MOL   H75930581   3.299   0.170   4.113  0.5894  0.8762 -1.1168
   32MOL   H76030582   3.222   0.025   3.859  0.3398  0.0789 -0.1408
   32MOL   H76130583   3.398   0.054   3.891  1.0186  0.6198  0.2605
   32MOL   H76230584   3.311   0.463   3.819  1.1136 -3.5553  1.8394
   32MOL   H76330585   3.418   0.448   3.675  2.3079 -1.4201  1.6627
   32MOL   H76430586   3.160   0.339   3.629  2.4895 -1.3038  2.0094
   32MOL   H76530587   3.237   0.488   3.561  2.0399  0.4301  0.3348
   32MOL   H76630588   3.136   0.619   3.733  0.5267 -0.3698  0.6412
   32MOL   H76730589   3.083   0.482   3.821 -0.3377  0.1083 -0.2712
   32MOL   H76830590   2.933   0.425   3.621  1.0963 -1.3161 -0.1461
   32MOL   H76930591   2.988   0.553   3.529  0.2997  0.2955  0.5683
   32MOL   O77030592   2.735   0.595   3.640  0.4664  0.1693 -0.6874
   32MOL   C77130593   2.618   0.654   3.699  0.0042  0.0270  0.1539
   32MOL   C77230594   2.562   0.568   3.814  0.0114 -0.3964 -0.3008
   32MOL   C77330595   2.405   0.593   3.830  0.0493 -0.1711 -0.7941
   32MOL   C77430596   2.366   0.733   3.876 -0.2141 -1.1256  0.0700
   32MOL   C77530597   2.214   0.741   3.894 -0.7477 -0.8159  0.1405
   32MOL   C77630598   2.171   0.890   3.891 -0.3867 -0.4841  0.2333
   32MOL   C77730599   2.024   0.925   3.918 -0.5163 -0.4543  0.4207
   32MOL   C77830600   2.018   1.078   3.948 -0.9634 -0.0374 -0.3193
   32MOL   C77930601   1.873   1.119   3.943 -0.4920  0.3442  0.2600
   32MOL   C78030602   1.844   1.264   3.986 -0.2094  0.3721 -0.6261
   32MOL   O78130603   1.854   1.272   4.130 -0.0936 -0.2925 -0.1273
   32MOL   C78230604   1.807   1.388   4.183 -0.0270  0.0984 -0.1839
   32MOL   O78330605   1.758   1.483   4.127  0.3353 -0.1236 -0.1612
   32MOL   C78430606   1.822   1.382   4.333 -0.8037 -0.7318  0.3410
   32MOL   C78530607   1.699   1.420   4.414 -0.5822  0.7026 -0.2090
   32MOL   C78630608   1.728   1.418   4.558  0.3725 -0.2928 -0.8445
   32MOL   C78730609   1.612   1.470   4.643  0.3502  0.5550  0.0767
   32MOL   C78830610   1.557   1.609   4.610  0.0501  0.4102 -0.7405
   32MOL   O78930611   1.462   1.620   4.526 -0.5643  0.0535  0.3358
   32MOL   H79030612   2.636   0.753   3.739 -1.1090  0.2399  0.1350
   32MOL   H79130613   2.549   0.659   3.615  1.5703 -1.7019 -1.3058
   32MOL   H79230614   2.617   0.602   3.901  0.7021  1.7124 -1.5293
   32MOL   H79330615   2.584   0.462   3.799 -0.3361 -0.7444  1.5076
   32MOL   H79430616   2.343   0.562   3.746  0.8488  1.3637 -1.9613
   32MOL   H79530617   2.365   0.535   3.914  2.1861 -0.4227  0.0774
   32MOL   H79630618   2.414   0.799   3.804 -0.3309  0.8298  1.7553
   32MOL   H79730619   2.407   0.764   3.973  0.4911  2.5202 -1.3214
   32MOL   H79830620   2.179   0.690   3.984 -1.4003  1.3197  1.1331
   32MOL   H79930621   2.172   0.690   3.808 -1.7349 -0.8263  0.6258
   32MOL   H80030622   2.212   0.944   3.805  0.8359 -1.9423 -0.1288
   32MOL   H80130623   2.224   0.937   3.974 -1.9521 -0.6120  1.3224
   32MOL   H80230624   1.984   0.865   4.000 -2.3445 -1.1206 -0.9442
   32MOL   H80330625   1.979   0.901   3.822  1.2120 -0.3278 -0.4447
   32MOL   H80430626   2.085   1.146   3.897  1.8113 -0.1085  3.0561
   32MOL   H80530627   2.067   1.093   4.045 -1.8238  1.9960 -0.1635
   32MOL   H80630628   1.848   1.107   3.838  0.1283  1.5246 -0.0335
   32MOL   H80730629   1.803   1.050   3.989  0.6757 -1.4177 -0.5560
   32MOL   H80830630   1.740   1.289   3.966 -0.3579 -0.4063 -0.8415
   32MOL   H80930631   1.912   1.332   3.935  0.1622 -1.0446 -2.0809
   32MOL   H81030632   1.862   1.285   4.362 -0.7820 -1.2251 -1.2756
   32MOL   H81130633   1.907   1.446   4.358  1.1310 -2.0487 -2.5586
   32MOL   H81230634   1.617   1.353   4.390 -0.7673  0.7811  0.1955
   32MOL   H81330635   1.663   1.517   4.381 -0.1265  0.4390 -1.5095
   32MOL   H81430636   1.807   1.491   4.572  1.5780 -1.6590 -0.4160
   32MOL   H81530637   1.750   1.317   4.593  0.2704  0.1681  0.5893
   32MOL   H81630638   1.646   1.466   4.746 -0.1709 -1.0719  0.1977
   32MOL   H81730639   1.531   1.397   4.646  0.7007  0.1781  0.3272
   32MOL   O81830640   1.620   1.709   4.661 -0.2382  0.3628  0.5421
   32MOL   C81930641   1.590   1.845   4.636  0.7399  0.4538  0.1234
   32MOL   C82030642   1.689   1.911   4.532  0.4051  0.1966  0.9094
   32MOL   C82130643   1.834   1.933   4.573  0.5505 -0.0186  0.1209
   32MOL   C82230644   1.861   2.044   4.677 -0.3025  0.1121  0.3712
   32MOL   C82330645   2.017   2.044   4.709  0.3212 -0.1274 -0.8058
   32MOL   C82430646   2.119   2.087   4.599  0.1627 -0.4637 -0.6696
   32MOL   C82530647   2.094   2.230   4.540  0.9617 -0.6105  0.2483
   32MOL   C82630648   2.217   2.282   4.463  0.6402 -0.4869  0.6900
   32MOL   C82730649   2.255   2.198   4.342  0.1496  0.0523  0.5001
   32MOL   C82830650   2.387   2.245   4.276  0.3943  0.1765 -0.1480
   32MOL   O82930651   2.408   2.194   4.148 -0.3360  0.5209 -0.1476
   32MOL   C83030652   2.533   2.173   4.107 -0.2514 -0.2610  0.4407
   32MOL   O83130653   2.640   2.189   4.166  0.1671 -0.4254  0.0229
   32MOL   C83230654   2.534   2.112   3.964 -0.3908  0.8488  0.0620
   32MOL   C83330655   2.483   2.216   3.861  0.3529  0.1389 -0.0283
   32MOL   C83430656   2.457   2.156   3.720 -0.0244 -0.2327 -0.3739
   32MOL   C83530657   2.407   2.263   3.620 -0.3230 -0.3319  0.3578
   32MOL   C83630658   2.417   2.233   3.473  0.4851 -0.2465  0.2069
   32MOL   O83730659   2.407   2.118   3.440 -0.2625 -0.8490 -0.3003
   32MOL   H83830660   1.485   1.859   4.612  0.8333  1.1887  0.1421
   32MOL   H83930661   1.599   1.897   4.731 -0.4493 -0.0921  0.5419
   32MOL   H84030662   1.650   2.009   4.507  3.1982  1.4215  1.1673
   32MOL   H84130663   1.683   1.858   4.437  0.5061 -1.5074  1.8239
   32MOL   H84230664   1.884   1.847   4.618 -0.7230 -1.3456 -0.9846
   32MOL   H84330665   1.890   1.968   4.487  0.2324 -2.6651 -1.1970
   32MOL   H84430666   1.800   2.004   4.758  1.0706 -1.5620  0.6035
   32MOL   H84530667   1.844   2.149   4.656  1.5342  0.2268 -0.5997
   32MOL   H84630668   2.046   1.948   4.751  1.0608  1.1131  1.5825
   32MOL   H84730669   2.023   2.107   4.798  0.0059 -0.0307 -0.8526
   32MOL   H84830670   2.121   1.998   4.536 -0.7857 -0.7902 -0.2476
   32MOL   H84930671   2.214   2.091   4.653  0.2053  1.7529 -0.8976
   32MOL   H85030672   2.079   2.296   4.626 -0.4357  1.8194 -1.8000
   32MOL   H85130673   2.005   2.221   4.478  1.8853 -0.5224 -1.0993
   32MOL   H85230674   2.298   2.289   4.535  0.0591  0.7389  1.2416
   32MOL   H85330675   2.207   2.385   4.429 -1.1444 -0.6218  0.7515
   32MOL   H85430676   2.273   2.096   4.375  2.4057 -0.0471 -0.8842
   32MOL   H85530677   2.178   2.207   4.266  0.8391  0.1172 -0.1908
   32MOL   H85630678   2.472   2.218   4.339  1.0228  0.4146 -0.8850
   32MOL   H85730679   2.381   2.353   4.268  1.0206  0.1503 -1.0346
   32MOL   H85830680   2.631   2.074   3.933 -1.1950  0.9055 -2.6163
   32MOL   H85930681   2.469   2.025   3.959 -1.0008  1.4067 -2.5179
   32MOL   H86030682   2.567   2.282   3.844  0.2819  0.7723  2.0542
   32MOL   H86130683   2.394   2.269   3.894 -0.0390 -0.3526 -0.2769
   32MOL   H86230684   2.403   2.062   3.717 -1.8910  0.6935  2.3569
   32MOL   H86330685   2.556   2.127   3.684  0.8777  2.4308 -0.1503
   32MOL   H86430686   2.473   2.348   3.640 -0.2143 -0.4241  0.3924
   32MOL   H86530687   2.305   2.295   3.640  0.0180  0.4424  0.8810
   32MOL   O86630688   2.415   2.349   3.397 -0.1151  0.2363 -0.1865
   32MOL   C86730689   2.401   2.341   3.254  0.2387 -0.2399 -0.0373
   32MOL   C86830690   2.331   2.465   3.199  0.0738 -0.7432  0.8360
   32MOL   C86930691   2.300   2.448   3.044 -0.4810 -0.2006 -0.1414
   32MOL   C87030692   2.216   2.563   2.980  0.4602 -0.2286 -0.7415
   32MOL   C87130693   2.213   2.555   2.828  0.0756  0.1397  0.5794
   32MOL   C87230694   2.133   2.442   2.770 -0.2123 -0.9285 -0.2281
   32MOL   C87330695   2.106   2.462   2.618  0.1668 -0.3301 -0.1040
   32MOL   C87430696   2.004   2.375   2.549 -0.3667  0.3037  1.0644
   32MOL   C87530697   2.066   2.237   2.508 -0.1035  0.0066  0.1158
   32MOL   C87630698   1.964   2.141   2.437 -0.2108 -0.2243  0.2830
   32MOL   O87730699   2.032   2.035   2.375  0.9004 -0.2360  0.0976
   32MOL   C87830700   2.016   2.011   2.240 -1.2815  0.2720 -0.0008
   32MOL   O87930701   1.937   2.069   2.166 -0.7274  0.1380 -0.0535
   32MOL   C88030702   2.120   1.901   2.199  0.2565 -0.2936 -0.6434
   32MOL   C88130703   2.262   1.950   2.184 -0.9353 -0.0129  0.2670
   32MOL   C88230704   2.353   1.963   2.312  0.7147  0.4398 -0.5232
   32MOL   C88330705   2.496   1.994   2.287  0.4217  0.0738 -0.3946
   32MOL   C88430706   2.527   2.132   2.232 -0.2171  0.0216 -0.0099
   32MOL   O88530707   2.473   2.227   2.284 -0.2926  0.6107 -0.8762
   32MOL   H88630708   2.500   2.326   3.212  1.3968  0.9101  2.1736
   32MOL   H88730709   2.342   2.251   3.238 -0.0202 -0.2152  0.7578
   32MOL   H88830710   2.394   2.552   3.213 -1.5524  0.2513  2.2314
   32MOL   H88930711   2.239   2.479   3.256 -0.7201 -0.9544 -0.3697
   32MOL   H89030712   2.394   2.438   2.990  0.4699 -1.5610  1.6991
   32MOL   H89130713   2.256   2.350   3.028 -1.2913 -0.0238  0.9266
   32MOL   H89230714   2.253   2.659   3.019  2.7155 -0.1495 -2.9578
   32MOL   H89330715   2.113   2.548   3.012  0.5656 -0.6138 -0.5793
   32MOL   H89430716   2.314   2.553   2.785 -0.5226  1.1249 -0.9016
   32MOL   H89530717   2.163   2.649   2.807 -0.3001  0.2792  2.0633
   32MOL   H89630718   2.034   2.445   2.814 -0.1737 -1.2354 -0.1174
   32MOL   H89730719   2.186   2.350   2.796  3.7119  0.7882 -1.6137
   32MOL   H89830720   2.196   2.473   2.558  1.0293 -1.1724  0.9992
   32MOL   H89930721   2.062   2.561   2.606 -1.8130 -1.2303 -0.5224
   32MOL   H90030722   1.993   2.426   2.453  0.1297  1.6998  1.7240
   32MOL   H90130723   1.905   2.373   2.593  0.2437  0.1894  2.4503
   32MOL   H90230724   2.145   2.243   2.434 -1.1810  3.8046 -0.8512
   32MOL   H90330725   2.095   2.195   2.604 -0.4747  1.3886  0.8504
   32MOL   H90430726   1.909   2.201   2.365  3.1295  1.3584 -1.0484
   32MOL   H90530727   1.896   2.099   2.512  0.1892 -2.0771 -0.3614
   32MOL   H90630728   2.109   1.811   2.260  0.5188  0.0890 -0.0349
   32MOL   H90730729   2.094   1.869   2.098 -2.2400 -1.2833  0.2617
   32MOL   H90830730   2.269   2.043   2.129  2.0533 -0.3630  0.0034
   32MOL   H90930731   2.308   1.886   2.108  0.3578  1.6146 -0.3456
   32MOL   H91030732   2.352   1.862   2.353  1.4594  0.9420  0.7578
   32MOL   H91130733   2.313   2.035   2.383  1.5725  1.4715 -1.0732
   32MOL   H91230734   2.529   1.917   2.216 -2.7358 -0.6723 -1.1525
   32MOL   H91330735   2.548   1.985   2.382 -0.7609 -0.7186  0.1967
   32MOL   O91430736   2.619   2.130   2.127  0.0259 -0.1123 -0.7429
   32MOL   C91530737   2.648   2.253   2.061  0.9265 -0.1665 -0.1002
   32MOL   C91630738   2.774   2.320   2.105 -0.5999  0.4774  0.9909
   32MOL   C91730739   2.762   2.376   2.245  0.5054  0.5592 -0.0431
   32MOL   C91830740   2.907   2.409   2.304  0.3217 -0.3666 -0.8853
   32MOL   C91930741   2.899   2.485   2.441  0.2159 -0.1773 -0.1291
   32MOL   C92030742   3.043   2.506   2.488  0.0798  0.3844 -0.3112
   32MOL   C92130743   3.049   2.587   2.620 -0.5916  0.4805  0.1387
   32MOL   C92230744   3.175   2.672   2.644  0.2004 -0.1512  0.2664
   32MOL   C92330745   3.170   2.760   2.772  0.3246  0.3457 -0.2265
   32MOL   C92430746   3.297   2.820   2.818 -0.4965 -0.2474 -0.6025
   32MOL   O92530747   3.368   2.889   2.715  0.0312  0.3836 -0.3097
   32MOL   C92630748   3.325   3.012   2.675 -0.0830  0.0338  0.8486
   32MOL   O92730749   3.235   3.079   2.732  0.4899  0.3033  0.2647
   32MOL   C92830750   3.408   3.068   2.558 -0.2242 -0.0909  0.0157
   32MOL   C92930751   3.367   2.995   2.426  0.0991  0.1105 -0.8549
   32MOL   C93030752   3.441   2.865   2.395 -0.1036  0.7226  0.1643
   32MOL   C93130753   3.400   2.797   2.270  0.1712 -0.2846  0.3230
   32MOL   C93230754   3.479   2.831   2.146  0.0743 -0.1097  0.3928
   32MOL   O93330755   3.560   2.924   2.138 -0.4431  0.5767 -0.2046
   32MOL   H93430756   2.659   2.220   1.958  2.7746 -1.2063  0.4067
   32MOL   H93530757   2.564   2.322   2.069  0.8569 -0.3219  0.6131
   32MOL   H93630758   2.804   2.394   2.030  1.9841 -0.6357  0.8471
   32MOL   H93730759   2.837   2.231   2.101  0.3675  1.1946 -0.1295
   32MOL   H93830760   2.700   2.467   2.245  0.8018  0.8762  4.1167
   32MOL   H93930761   2.710   2.306   2.310  0.5125  0.5091 -0.0923
   32MOL   H94030762   2.962   2.468   2.230 -2.0068  1.5517 -1.1718
   32MOL   H94130763   2.965   2.322   2.334 -0.6081 -0.1532  1.6232
   32MOL   H94230764   2.842   2.427   2.514 -1.4668 -1.8644 -2.7176
   32MOL   H94330765   2.851   2.581   2.422 -0.5306  0.0635  2.6361
   32MOL   H94430766   3.107   2.546   2.409  1.1157 -0.1294  0.2607
   32MOL   H94530767   3.100   2.415   2.505  3.0629  2.5516  1.6770
   32MOL   H94630768   3.020   2.518   2.699 -3.1067  3.1413  1.6561
   32MOL   H94730769   2.969   2.659   2.638  0.9144  1.9746  1.0649
   32MOL   H94830770   3.192   2.730   2.553 -2.0832 -1.9954 -1.3991
   32MOL   H94930771   3.255   2.601   2.664 -1.0679 -0.9920  2.4367
   32MOL   H95030772   3.099   2.836   2.740 -2.2589 -1.7968  0.1548
   32MOL   H95130773   3.126   2.704   2.854 -0.1737  2.8785  1.2648
   32MOL   H95230774   3.366   2.741   2.849 -2.4311 -1.1026  1.6490
   32MOL   H95330775   3.287   2.887   2.903  0.0066 -0.7633 -0.1261
   32MOL   H95430776   3.403   3.177   2.560 -0.7021 -0.1168  0.2986
   32MOL   H95530777   3.508   3.035   2.583 -1.6746 -2.1982  3.3642
   32MOL   H95630778   3.373   3.057   2.337  1.1582  0.8550 -0.2664
   32MOL   H95730779   3.262   2.965   2.421 -0.4728  1.3571  2.4758
   32MOL   H95830780   3.433   2.783   2.467 -0.1929  1.2000  0.7070
   32MOL   H95930781   3.546   2.894   2.398 -0.0600  0.5434  0.4418
   32MOL   H96030782   3.295   2.808   2.241  0.1211 -1.6665 -0.0291
   32MOL   H96130783   3.415   2.690   2.281 -0.8358 -0.5471 -0.7381
   32MOL   H96230784   3.443   2.776   2.058  1.0084 -0.2683  0.1013
   33MOL     O130785   2.910   5.373   1.353 -0.2700  0.0698  0.2576
   33MOL     C230786   2.958   5.505   1.363  0.3258  0.6754  0.4166
   33MOL     C330787   2.889   5.610   1.265  0.2600  0.2927 -0.2775
   33MOL     C430788   2.961   5.742   1.268  0.4951  0.1628 -0.2061
   33MOL     C530789   2.922   5.836   1.146  0.2657  0.2429  0.0424
   33MOL     C630790   2.773   5.869   1.136  1.0311 -0.3947 -0.4093
   33MOL     C730791   2.734   5.959   1.023  1.0061 -0.0975  0.0262
   33MOL     C830792   2.605   6.037   1.053 -0.0483 -0.2374 -0.0400
   33MOL     C930793   2.588   6.160   0.975 -0.4583  0.0962  0.1784
   33MOL    C1030794   2.446   6.222   1.000 -0.5969  0.6292  0.0437
   33MOL    C1130795   2.323   6.142   0.946  0.0505 -0.2116 -0.1212
   33MOL    O1230796   2.296   6.020   1.010 -0.2930  0.7945  0.2759
   33MOL    C1330797   2.210   5.931   0.954  0.5913  0.5645 -0.2094
   33MOL    O1430798   2.155   5.943   0.847 -0.0734 -0.9956  0.1064
   33MOL    C1530799   2.187   5.807   1.044  0.5892 -0.8168  0.0474
   33MOL    C1630800   2.039   5.753   1.066  0.0968 -0.1826 -0.8124
   33MOL    C1730801   2.029   5.678   1.192  0.0687  1.2192  0.3558
   33MOL    C1830802   1.882   5.634   1.225  0.6305 -0.1603  0.1997
   33MOL    C1930803   1.782   5.743   1.260 -0.3612  0.3933  0.0439
   33MOL    O2030804   1.819   5.841   1.327  0.1864 -0.4938  0.7889
   33MOL    H2130805   2.952   5.534   1.468  0.1908  1.1551  0.2757
   33MOL    H2230806   3.067   5.496   1.354  0.3317 -0.9052  1.8122
   33MOL    H2330807   2.781   5.620   1.275  0.2529  2.7291 -2.4156
   33MOL    H2430808   2.897   5.571   1.163 -0.2949 -0.2040 -0.1347
   33MOL    H2530809   2.930   5.788   1.361  3.4515  0.0517  0.8580
   33MOL    H2630810   3.068   5.722   1.265  0.9083  2.4533 -1.7395
   33MOL    H2730811   2.964   5.799   1.053  1.0040  0.0131  0.4660
   33MOL    H2830812   2.971   5.932   1.166 -2.6818  1.5654  1.1537
   33MOL    H2930813   2.748   5.924   1.227 -0.2222 -0.7966 -0.4967
   33MOL    H3030814   2.703   5.785   1.128  1.4608 -0.8883  0.8426
   33MOL    H3130815   2.734   5.903   0.930  2.7374  0.9329 -0.6310
   33MOL    H3230816   2.818   6.027   1.003  1.3071 -0.4184  0.2015
   33MOL    H3330817   2.589   6.055   1.159  0.7176  0.0770  0.0251
   33MOL    H3430818   2.524   5.968   1.029  0.3420 -0.3038 -1.2126
   33MOL    H3530819   2.603   6.154   0.868  2.5879  0.3087  0.5621
   33MOL    H3630820   2.666   6.230   1.004 -0.1362 -0.0369 -0.3645
   33MOL    H3730821   2.440   6.245   1.107 -0.7129  0.9436 -0.0299
   33MOL    H3830822   2.444   6.322   0.957  1.3393  0.1494 -1.2345
   33MOL    H3930823   2.346   6.120   0.842 -0.6776 -0.8434 -0.1536
   33MOL    H4030824   2.233   6.203   0.953  0.6085  0.3859  2.7406
   33MOL    H4130825   2.243   5.720   1.009 -1.0428 -1.5151 -0.8882
   33MOL    H4230826   2.234   5.837   1.138  1.6207 -0.8637 -0.4576
   33MOL    H4330827   2.009   5.689   0.983 -0.2196 -0.1242 -0.7408
   33MOL    H4430828   1.981   5.844   1.064  0.8571  0.3129 -0.6015
   33MOL    H4530829   2.066   5.734   1.278 -0.4232  0.9618  0.7402
   33MOL    H4630830   2.099   5.594   1.194 -1.2168  0.0815 -1.3764
   33MOL    H4730831   1.889   5.576   1.316  0.4888 -1.7850 -0.7931
   33MOL    H4830832   1.842   5.577   1.140  0.2948  0.2931  0.0519
   33MOL    H4930833   2.965   5.318   1.406  0.1249  1.7703  1.6211
   33MOL    O5030834   1.657   5.716   1.227 -0.0769 -0.1080 -0.7409
   33MOL    C5130835   1.550   5.786   1.286  1.0472 -0.5898 -0.5751
   33MOL    C5230836   1.425   5.762   1.201  0.1585 -0.5639 -0.1643
   33MOL    C5330837   1.370   5.622   1.228  0.2210 -0.6246  0.0956
   33MOL    C5430838   1.244   5.584   1.152  0.6373  0.3023  0.1430
   33MOL    C5530839   1.169   5.457   1.204  0.0419  0.2138  0.3468
   33MOL    C5630840   1.052   5.420   1.117 -0.3198  0.3028 -0.8926
   33MOL    C5730841   0.985   5.286   1.157 -0.7510  0.2457 -1.0208
   33MOL    C5830842   0.868   5.240   1.071 -0.4281  0.4448 -0.1636
   33MOL    C5930843   0.885   5.259   0.923 -0.5670 -0.1633  0.0147
   33MOL    C6030844   0.776   5.195   0.835  0.1855  0.3374  0.4176
   33MOL    O6130845   0.825   5.175   0.708  0.2330  0.1511 -0.3031
   33MOL    C6230846   0.880   5.055   0.672 -0.2812 -0.5961 -0.0776
   33MOL    O6330847   0.928   4.972   0.748 -0.7363 -0.0340 -0.7265
   33MOL    C6430848   0.896   5.048   0.516 -0.5165  0.6254  0.3082
   33MOL    C6530849   0.964   4.915   0.461  0.7314 -0.0045 -0.7116
   33MOL    C6630850   0.997   4.923   0.313  0.1284 -0.5677 -0.0691
   33MOL    C6730851   1.040   4.796   0.243 -0.4520  1.0962 -0.5270
   33MOL    C6830852   0.926   4.735   0.164 -0.4876  0.7001  0.4588
   33MOL    O6930853   0.812   4.733   0.204 -0.0233  0.3685 -0.2791
   33MOL    H7030854   1.530   5.757   1.389  1.1720 -1.5169 -0.8038
   33MOL    H7130855   1.575   5.892   1.285 -0.6154 -0.1833 -0.3920
   33MOL    H7230856   1.462   5.782   1.100  3.2327 -0.1391  0.9880
   33MOL    H7330857   1.343   5.829   1.230  1.4327  0.8399  0.2516
   33MOL    H7430858   1.456   5.555   1.222  0.4097 -0.2788 -1.1008
   33MOL    H7530859   1.334   5.635   1.331 -0.6127 -1.7276 -0.0428
   33MOL    H7630860   1.285   5.561   1.054  0.1276 -2.7716  0.5931
   33MOL    H7730861   1.178   5.670   1.147 -0.1659 -0.3373 -0.4272
   33MOL    H7830862   1.143   5.460   1.310  0.8622 -1.1995  0.5863
   33MOL    H7930863   1.233   5.369   1.210 -1.3222 -0.6801  2.3813
   33MOL    H8030864   1.079   5.420   1.012  0.0529 -0.6546 -0.8036
   33MOL    H8130865   0.978   5.499   1.134  0.7011  1.1311 -0.2092
   33MOL    H8230866   0.957   5.295   1.262 -2.1728  0.9004 -1.4510
   33MOL    H8330867   1.065   5.211   1.154  1.0300  2.0651 -0.0840
   33MOL    H8430868   0.782   5.299   1.104 -1.3854 -0.0758 -1.6576
   33MOL    H8530869   0.844   5.139   1.105  1.2182  1.1213  3.1719
   33MOL    H8630870   0.888   5.365   0.902 -0.3863 -0.1427  0.1450
   33MOL    H8730871   0.982   5.220   0.890 -1.5282 -0.9455 -1.9670
   33MOL    H8830872   0.681   5.249   0.837  0.4825  0.8417  1.9790
   33MOL    H8930873   0.755   5.095   0.874 -1.5420  0.4159 -0.2496
   33MOL    H9030874   0.797   5.053   0.470 -0.1127 -1.3572 -0.7992
   33MOL    H9130875   0.960   5.131   0.487  1.3525 -0.6142  0.8221
   33MOL    H9230876   0.900   4.834   0.495 -0.0594  0.5909 -0.7858
   33MOL    H9330877   1.048   4.906   0.531 -1.3329  0.0833  1.8442
   33MOL    H9430878   1.073   5.001   0.306 -1.0984  0.6804  0.2320
   33MOL    H9530879   0.912   4.964   0.260  1.0951 -0.1277 -1.2954
   33MOL    H9630880   1.082   4.728   0.317  0.9075 -0.7721 -2.9257
   33MOL    H9730881   1.113   4.815   0.164 -2.3533  0.9173 -2.3811
   33MOL    O9830882   0.969   4.690   0.046 -0.6382  0.1930 -0.0722
   33MOL    C9930883   0.876   4.634   7.718  0.2413  0.6302  0.6682
   33MOL   C10030884   0.945   4.529   7.632  0.5126  0.3744  0.1491
   33MOL   C10130885   1.044   4.578   7.534 -0.7928 -0.1073 -0.5928
   33MOL   C10230886   1.100   4.463   7.442 -0.1406 -0.0743 -0.4455
   33MOL   C10330887   1.139   4.330   7.515  0.2774 -0.0468 -0.4675
   33MOL   C10430888   1.209   4.230   7.425  0.1775  0.3230  0.0445
   33MOL   C10530889   1.184   4.088   7.460  0.3892  0.4961  0.3706
   33MOL   C10630890   1.284   3.987   7.392 -0.4282 -0.0912 -0.4132
   33MOL   C10730891   1.267   3.849   7.454 -0.2127  0.8543  0.7954
   33MOL   C10830892   1.354   3.752   7.364 -0.1245 -1.1660 -0.7390
   33MOL   O10930893   1.484   3.748   7.416 -0.4505 -0.4638 -0.0654
   33MOL   C11030894   1.592   3.763   7.345 -0.6494 -0.2097 -0.2130
   33MOL   O11130895   1.600   3.777   7.222 -0.6520  0.4574 -0.3499
   33MOL   C11230896   1.725   3.761   7.424 -0.2757  0.2375  0.2547
   33MOL   C11330897   1.776   3.884   7.493  0.0448 -0.1020  0.0008
   33MOL   C11430898   1.688   3.918   7.620  0.0938  0.3274 -0.0846
   33MOL   C11530899   1.745   4.041   7.690  0.5568  0.3137  0.5685
   33MOL   C11630900   1.867   4.029   0.026 -0.0077  0.5143  0.1228
   33MOL   O11730901   1.968   4.100   0.014 -0.5413 -0.6609 -0.0087
   33MOL   H11830902   0.795   4.584   0.008  3.0109 -1.3554  3.1201
   33MOL   H11930903   0.829   4.718   7.667  0.0577  1.9737  2.9508
   33MOL   H12030904   0.864   4.479   7.580  0.1958  1.0096  0.0281
   33MOL   H12130905   0.987   4.447   7.691  0.2866 -0.9794 -1.5383
   33MOL   H12230906   1.007   4.655   7.467 -2.7628  1.5683  2.3216
   33MOL   H12330907   1.127   4.612   7.595 -0.9971 -1.6524  0.5916
   33MOL   H12430908   1.190   4.511   7.402  2.6425 -1.7186  3.4964
   33MOL   H12530909   1.021   4.442   7.371 -1.6618  1.5495  0.7312
   33MOL   H12630910   1.054   4.272   7.550  0.4564 -0.2108 -0.3106
   33MOL   H12730911   1.201   4.343   7.604 -0.9701 -1.4832  0.6298
   33MOL   H12830912   1.318   4.241   7.433  0.3597 -1.1791 -0.2469
   33MOL   H12930913   1.189   4.243   7.318 -1.4187 -0.6741  0.2050
   33MOL   H13030914   1.086   4.043   7.441 -0.0620  2.2330 -1.5323
   33MOL   H13130915   1.185   4.080   7.569 -2.3107  1.9356  0.5359
   33MOL   H13230916   1.386   4.020   7.412 -0.6793 -0.3440  1.3868
   33MOL   H13330917   1.262   3.987   7.286  1.6724  2.3646 -0.8958
   33MOL   H13430918   1.283   3.844   7.562 -1.8564  1.3863  1.0826
   33MOL   H13530919   1.165   3.818   7.434 -0.1750  0.4287  1.2539
   33MOL   H13630920   1.351   3.793   7.263 -2.2862  1.0977  0.2055
   33MOL   H13730921   1.315   3.651   7.366 -1.8058 -0.5076  0.7903
   33MOL   H13830922   1.721   3.681   7.498  2.5016 -0.9363 -0.7950
   33MOL   H13930923   1.813   3.742   7.362 -0.7789 -0.7440 -0.1604
   33MOL   H14030924   1.778   3.970   7.426  0.4401  0.5577  0.8447
   33MOL   H14130925   1.877   3.864   7.527 -0.8437 -2.4381  1.3644
   33MOL   H14230926   1.685   3.830   7.684  0.9611  1.9702  2.2703
   33MOL   H14330927   1.585   3.936   7.589  1.3156  1.3051 -3.9088
   33MOL   H14430928   1.665   4.082   7.753 -0.6219 -1.5069  0.2989
   33MOL   H14530929   1.775   4.115   7.616  1.0085 -0.5641 -0.1327
   33MOL   O14630930   1.853   3.941   0.117 -0.0043  0.3375 -0.5442
   33MOL   C14730931   1.953   3.907   0.221 -0.0295 -0.1709  0.0876
   33MOL   C14830932   2.070   3.825   0.172 -0.2056 -0.2959  0.1358
   33MOL   C14930933   2.035   3.684   0.122  0.2154 -0.6034  0.0968
   33MOL   C15030934   2.156   3.609   0.063 -0.2573  0.2055  0.5067
   33MOL   C15130935   2.133   3.457   0.044 -0.2274  0.2659  0.0583
   33MOL   C15230936   2.070   3.433   7.675 -1.6132 -0.1228  0.0850
   33MOL   C15330937   2.029   3.284   7.636 -1.0572 -0.5663  0.0021
   33MOL   C15430938   2.016   3.268   7.485  0.1911  0.1905  1.0903
   33MOL   C15530939   1.949   3.131   7.438  0.7408  0.1964 -0.1228
   33MOL   C15630940   2.027   3.008   7.494 -0.0120  0.3564 -0.3102
   33MOL   O15730941   1.995   2.880   7.435 -0.3909  0.4033  0.2925
   33MOL   C15830942   2.048   2.769   7.486  0.6847 -0.1179 -0.1129
   33MOL   O15930943   2.123   2.756   7.583  0.4465  0.1742  0.3130
   33MOL   C16030944   2.029   2.646   7.398  0.1274  0.3755 -0.3864
   33MOL   C16130945   1.910   2.559   7.445  0.0458 -0.5283 -0.1362
   33MOL   C16230946   1.874   2.435   7.361  0.2684 -0.1432  0.3516
   33MOL   C16330947   1.983   2.329   7.346 -0.3127  0.4227 -0.2634
   33MOL   C16430948   1.941   2.186   7.298 -0.4476 -0.1346 -0.0693
   33MOL   O16530949   1.821   2.170   7.264 -0.0467 -0.5979 -0.2783
   33MOL   H16630950   1.982   4.008   0.252 -1.2614  0.1498  0.2147
   33MOL   H16730951   1.899   3.872   0.309  1.6009  1.4097  1.7935
   33MOL   H16830952   2.145   3.814   0.251  2.3871 -3.0343 -2.5639
   33MOL   H16930953   2.120   3.888   0.098  0.3566  0.0192  0.7788
   33MOL   H17030954   2.008   3.620   0.206 -0.4542  1.1659  1.2358
   33MOL   H17130955   1.948   3.687   0.056  0.4597 -1.2674 -0.2677
   33MOL   H17230956   2.246   3.617   0.125  1.9718  0.1338 -2.6140
   33MOL   H17330957   2.183   3.660   7.735  1.0439 -2.6100 -0.7266
   33MOL   H17430958   2.075   3.411   0.124  2.4500 -0.3984  1.6947
   33MOL   H17530959   2.235   3.419   0.053 -0.3593  0.4498  2.7680
   33MOL   H17630960   2.139   3.465   7.598 -0.1248 -2.7209  0.2893
   33MOL   H17730961   1.985   3.493   7.640  0.3352  2.4124 -0.4665
   33MOL   H17830962   1.938   3.243   7.679 -1.5751  1.0771  0.5223
   33MOL   H17930963   2.114   3.223   7.664 -0.7408 -0.2503 -0.2594
   33MOL   H18030964   2.107   3.284   7.428 -2.4235  0.4158 -3.2314
   33MOL   H18130965   1.953   3.352   7.457 -1.3723 -1.0562  0.7706
   33MOL   H18230966   1.851   3.123   7.484  0.4601 -1.8535 -1.0122
   33MOL   H18330967   1.936   3.112   7.332  2.1337 -0.7085 -0.1587
   33MOL   H18430968   2.007   2.991   7.600  3.3270  0.0038  0.3120
   33MOL   H18530969   2.132   3.035   7.483  0.5634 -1.6800  0.0587
   33MOL   H18630970   2.022   2.667   7.291  0.5716 -1.9394 -0.9037
   33MOL   H18730971   2.111   2.575   7.412 -0.7914 -0.3444  1.4835
   33MOL   H18830972   1.821   2.620   7.458 -0.7716 -1.8262  0.4784
   33MOL   H18930973   1.936   2.519   7.543  0.2023  0.0686  0.0623
   33MOL   H19030974   1.834   2.460   7.263 -0.4512 -0.2668  0.6061
   33MOL   H19130975   1.784   2.391   7.405  0.1346 -1.3483 -1.1089
   33MOL   H19230976   2.019   2.312   7.448 -0.5486 -0.9439 -0.3867
   33MOL   H19330977   2.057   2.362   7.273  2.0103 -0.7901  1.4563
   33MOL   O19430978   2.035   2.089   7.317 -0.1230  0.1188  0.5930
   33MOL   C19530979   2.017   1.961   7.265  1.0326  0.2026 -0.6848
   33MOL   C19630980   2.156   1.883   7.294 -0.6524 -0.6246  0.1559
   33MOL   C19730981   2.164   1.732   7.259  0.9702  0.4512 -0.5337
   33MOL   C19830982   2.052   1.640   7.320 -0.1472 -0.2602 -0.0873
   33MOL   C19930983   1.921   1.619   7.232  0.1283  0.0158 -0.0794
   33MOL   C20030984   1.914   1.501   7.137  0.5459  0.4923 -0.1849
   33MOL   C20130985   1.987   1.516   7.011 -0.9232  0.2939  0.5071
   33MOL   C20230986   1.934   1.623   6.918  0.2890 -0.4238  0.2995
   33MOL   C20330987   1.996   1.604   6.776 -0.2521  0.1202 -0.1464
   33MOL   C20430988   1.886   1.592   6.660  0.1059 -0.1534 -0.1555
   33MOL   O20530989   1.943   1.577   6.531  0.2015  0.3355  0.1196
   33MOL   C20630990   1.889   1.632   6.424  0.1990 -0.0400 -0.1192
   33MOL   O20730991   1.799   1.711   6.427 -0.0793 -0.1037 -0.0145
   33MOL   C20830992   1.938   1.556   6.299 -0.1360  0.0238  0.3863
   33MOL   C20930993   2.023   1.644   6.202  0.0666  0.8813 -0.2936
   33MOL   C21030994   1.929   1.672   6.074 -0.2955 -0.4771 -0.1544
   33MOL   C21130995   2.006   1.730   5.957 -0.2836  0.0268 -0.2804
   33MOL   C21230996   2.135   1.654   5.929  0.3947  0.0202  0.0003
   33MOL   O21330997   2.128   1.545   5.880  0.1269  0.4532 -0.0962
   33MOL   H21430998   1.932   1.915   7.315 -0.2824  3.0708 -0.1949
   33MOL   H21530999   1.999   1.967   7.157  0.4055 -1.2554 -0.6643
   33MOL   H21631000   2.163   1.896   7.402  1.3641  0.0079 -0.0408
   33MOL   H21731001   2.244   1.925   7.246 -0.7383 -4.4956 -3.6874
   33MOL   H21831002   2.153   1.739   7.151 -1.8992  0.6037 -0.2637
   33MOL   H21931003   2.262   1.688   7.275  0.0803 -0.7318  1.8079
   33MOL   H22031004   2.027   1.687   7.415  0.0951 -1.6546  0.6724
   33MOL   H22131005   2.080   1.539   7.351  0.3200 -0.5956 -1.5624
   33MOL   H22231006   1.881   1.711   7.190  0.2996  0.7235  1.2665
   33MOL   H22331007   1.840   1.586   7.297  0.2195  0.1115  0.0846
   33MOL   H22431008   1.811   1.477   7.110 -0.3182  2.7233  0.9353
   33MOL   H22531009   1.956   1.414   7.186 -2.4347 -1.4053 -0.9020
   33MOL   H22631010   1.990   1.415   6.969 -0.5022  0.4133  0.2408
   33MOL   H22731011   2.089   1.540   7.041 -0.0697 -1.2785 -0.9561
   33MOL   H22831012   1.947   1.726   6.950 -2.6014 -0.7139  2.6309
   33MOL   H22931013   1.827   1.602   6.913 -0.3910  2.9942 -0.5585
   33MOL   H23031014   2.059   1.691   6.758  2.6855 -1.5305  1.7425
   33MOL   H23131015   2.066   1.521   6.775  0.0987  0.4044  0.2149
   33MOL   H23231016   1.832   1.686   6.673  0.7961  0.5543 -2.1560
   33MOL   H23331017   1.812   1.514   6.677 -0.4117  0.3616  0.0103
   33MOL   H23431018   2.005   1.477   6.333 -0.3077 -0.4414 -0.3475
   33MOL   H23531019   1.851   1.510   6.254  1.9187 -1.6509 -1.9628
   33MOL   H23631020   2.106   1.579   6.176 -0.3960 -0.6655  1.9169
   33MOL   H23731021   2.054   1.741   6.241  1.4128 -0.3202  1.7364
   33MOL   H23831022   1.844   1.738   6.092  2.1932  3.2290 -1.5863
   33MOL   H23931023   1.885   1.577   6.045  0.3765 -1.2246  1.2114
   33MOL   H24031024   2.022   1.835   5.979  0.8190  0.2198 -1.9031
   33MOL   H24131025   1.941   1.719   5.870  0.7089 -1.4802 -0.8534
   33MOL   O24231026   2.245   1.721   5.959  0.1404  0.3944 -0.6004
   33MOL   C24331027   2.370   1.670   5.918  0.5259  0.0779  0.1930
   33MOL   C24431028   2.479   1.717   6.022  0.0538 -0.0461  0.3795
   33MOL   C24531029   2.508   1.865   6.005  0.2822 -0.2755  0.1196
   33MOL   C24631030   2.652   1.901   6.047 -0.4448  0.5647 -0.0093
   33MOL   C24731031   2.680   2.052   6.033 -0.6256 -0.2580 -0.4061
   33MOL   C24831032   2.810   2.091   6.107  0.0996 -0.1447  0.6964
   33MOL   C24931033   2.815   2.244   6.110 -0.2553  0.0967  0.9501
   33MOL   C25031034   2.719   2.304   6.208  0.1742  0.2461 -0.4446
   33MOL   C25131035   2.727   2.459   6.219  0.2231  0.1118  0.1910
   33MOL   C25231036   2.612   2.523   6.298  0.1761  0.4231 -0.5450
   33MOL   O25331037   2.593   2.449   6.416 -0.5451  0.4914 -0.1463
   33MOL   C25431038   2.492   2.475   6.497 -0.1608  0.2576 -0.0283
   33MOL   O25531039   2.401   2.554   6.474  0.4981 -0.3512 -0.4509
   33MOL   C25631040   2.498   2.397   6.628 -0.2586  0.6337  0.1389
   33MOL   C25731041   2.582   2.471   6.735  0.2702  0.3535  0.2612
   33MOL   C25831042   2.720   2.416   6.764 -0.6890 -0.2442 -0.1402
   33MOL   C25931043   2.827   2.410   6.653 -0.2662 -0.5410 -0.2008
   33MOL   C26031044   2.883   2.545   6.614 -0.2137 -0.7345 -0.8296
   33MOL   O26131045   2.879   2.590   6.499  0.7268  0.1260  0.4065
   33MOL   H26231046   2.385   1.562   5.924 -1.6069 -0.1825  1.3886
   33MOL   H26331047   2.394   1.711   5.820  3.5517  0.8933  1.2125
   33MOL   H26431048   2.571   1.660   6.005 -2.3771 -4.1793  0.5512
   33MOL   H26531049   2.449   1.680   6.120 -2.3305 -4.1230 -1.7913
   33MOL   H26631050   2.496   1.898   5.901  0.0005 -1.1364 -0.1227
   33MOL   H26731051   2.434   1.921   6.063  3.4533  1.9159  2.1931
   33MOL   H26831052   2.725   1.843   5.990 -0.0228 -0.1874  1.2700
   33MOL   H26931053   2.659   1.882   6.154  0.4434 -1.3037 -0.3882
   33MOL   H27031054   2.590   2.106   6.062 -1.4959 -1.5755 -0.6146
   33MOL   H27131055   2.689   2.081   5.928  0.1928 -0.8874 -0.5209
   33MOL   H27231056   2.900   2.068   6.051 -0.4417 -0.4489 -0.0614
   33MOL   H27331057   2.821   2.037   6.201 -0.6720 -0.3777  0.6590
   33MOL   H27431058   2.804   2.295   6.014  0.1089  0.3659  1.0510
   33MOL   H27531059   2.916   2.264   6.144  0.3392  2.1351 -1.8427
   33MOL   H27631060   2.709   2.253   6.303  1.7907  0.8094  0.0484
   33MOL   H27731061   2.619   2.280   6.173  1.1524 -0.4394 -2.9078
   33MOL   H27831062   2.825   2.485   6.258  0.2516 -0.2792  0.3851
   33MOL   H27931063   2.717   2.507   6.121  2.9860  0.5508  0.0800
   33MOL   H28031064   2.522   2.549   6.242  2.3805  3.1278 -3.0415
   33MOL   H28131065   2.660   2.617   6.328 -1.9548  1.5163 -0.4525
   33MOL   H28231066   2.400   2.378   6.673  0.7175 -0.9777  1.6517
   33MOL   H28331067   2.560   2.307   6.620  1.2677  1.7458 -0.7144
   33MOL   H28431068   2.510   2.478   6.817 -1.3889  2.9765 -1.3592
   33MOL   H28531069   2.590   2.575   6.705 -0.2824  0.3876  0.2226
   33MOL   H28631070   2.725   2.317   6.809  1.0208 -0.2490 -0.3159
   33MOL   H28731071   2.742   2.486   6.844 -1.4673 -1.9182  1.5930
   33MOL   H28831072   2.791   2.354   6.567 -0.2619  1.2912 -1.4134
   33MOL   H28931073   2.914   2.353   6.686 -0.7966 -0.0323  2.1808
   33MOL   O29031074   2.943   2.599   6.724  0.2731  0.0582 -0.1050
   33MOL   C29131075   3.021   2.716   6.711 -0.0574 -0.1721 -0.3650
   33MOL   C29231076   3.166   2.685   6.747  0.5592 -0.1124 -0.4318
   33MOL   C29331077   3.260   2.801   6.729  0.6967 -0.2924 -0.2048
   33MOL   C29431078   3.399   2.772   6.789  0.4255 -0.0260  0.2298
   33MOL   C29531079   3.494   2.892   6.766 -0.0828  0.0213 -0.3627
   33MOL   C29631080   3.636   2.851   6.812 -0.0339 -0.3225 -0.0684
   33MOL   C29731081   3.754   2.940   6.786 -0.2587  0.1406 -0.3099
   33MOL   C29831082   3.885   2.873   6.837 -0.0787  0.0996 -0.6932
   33MOL   C29931083   4.010   2.963   6.825  0.4917 -0.5084  0.3422
   33MOL   C30031084   4.135   2.885   6.857 -1.3805  0.4632  0.0244
   33MOL   O30131085   4.153   2.788   6.757  0.2459  0.1482 -0.3080
   33MOL   C30231086   4.233   2.684   6.780  0.2259  0.2984  0.6927
   33MOL   O30331087   4.313   2.673   6.873  0.0650 -0.6393  0.0441
   33MOL   C30431088   4.229   2.584   6.668  0.3454  0.5515 -0.4182
   33MOL   C30531089   4.103   2.499   6.663  0.5744  0.3429 -0.2858
   33MOL   C30631090   4.068   2.399   6.765  0.2413  0.5353  0.7450
   33MOL   C30731091   3.929   2.332   6.746 -0.8763 -0.5538  1.3634
   33MOL   C30831092   3.809   2.401   6.802  0.3158  0.2881  0.4037
   33MOL   O30931093   3.814   2.517   6.842 -0.8628 -0.2751  0.1330
   33MOL   H31031094   3.027   2.757   6.610  2.1028 -1.4631 -0.7970
   33MOL   H31131095   2.970   2.789   6.775 -0.2203 -0.0140 -0.6746
   33MOL   H31231096   3.200   2.596   6.694  0.0592  0.2481 -1.3621
   33MOL   H31331097   3.174   2.651   6.851 -2.6883  0.6747  0.1223
   33MOL   H31431098   3.275   2.835   6.626  1.2505 -1.7268 -0.6190
   33MOL   H31531099   3.225   2.885   6.789  3.0168  1.5269 -1.2962
   33MOL   H31631100   3.443   2.688   6.735  0.5903 -0.4460  1.0252
   33MOL   H31731101   3.394   2.749   6.895 -0.4881  0.3902  0.2830
   33MOL   H31831102   3.460   2.968   6.836 -2.2683 -2.3146  1.2236
   33MOL   H31931103   3.490   2.933   6.665  1.5470 -1.1721 -0.9337
   33MOL   H32031104   3.653   2.757   6.759  2.1915 -0.3045  0.5635
   33MOL   H32131105   3.632   2.836   6.920 -0.4476 -1.1621 -0.1916
   33MOL   H32231106   3.739   3.042   6.821  0.1555 -0.0724  0.4939
   33MOL   H32331107   3.773   2.945   6.679  0.0651 -1.4809 -0.3428
   33MOL   H32431108   3.897   2.788   6.770  0.0969  0.8190 -1.5864
   33MOL   H32531109   3.864   2.829   6.935  1.0275  1.4351  0.1630
   33MOL   H32631110   4.019   3.014   6.729  0.4843 -0.8805  0.1462
   33MOL   H32731111   3.996   3.044   6.897  0.5134  0.3642 -0.6184
   33MOL   H32831112   4.134   2.832   6.952  1.6479  0.3385  0.0459
   33MOL   H32931113   4.224   2.945   6.874  0.6788 -2.7456  0.8628
   33MOL   H33031114   4.231   2.637   6.573 -1.1505 -1.6040 -1.7152
   33MOL   H33131115   4.316   2.519   6.674 -0.1289  0.0946  2.3722
   33MOL   H33231116   4.088   2.458   6.563  3.4328  3.2251 -1.9449
   33MOL   H33331117   4.023   2.572   6.662 -1.3061 -1.6521 -1.6838
   33MOL   H33431118   4.085   2.447   6.862 -1.3813 -0.4340  1.5379
   33MOL   H33531119   4.152   2.330   6.759  0.1473  0.4281  0.6759
   33MOL   H33631120   3.920   2.238   6.799  0.7275 -0.1755  2.3350
   33MOL   H33731121   3.912   2.310   6.641  0.9025  1.2360  0.6543
   33MOL   O33831122   3.702   2.327   6.800  0.8254 -0.4467 -0.0168
   33MOL   C33931123   3.584   2.389   6.852  0.1799 -0.7186  0.5632
   33MOL   C34031124   3.466   2.289   6.852  0.4152  0.1743  0.0651
   33MOL   C34131125   3.331   2.364   6.851 -0.0575  0.1948  0.7838
   33MOL   C34231126   3.221   2.281   6.916 -0.6891 -0.1369 -0.0528
   33MOL   C34331127   3.089   2.358   6.924  0.2621  0.4943 -0.0647
   33MOL   C34431128   2.985   2.287   7.011 -0.2310 -1.0170  0.5577
   33MOL   C34531129   2.956   2.140   6.971  0.0260 -0.7196 -0.0407
   33MOL   C34631130   2.866   2.074   7.073 -0.1716 -0.4076 -0.1703
   33MOL   C34731131   2.828   1.929   7.033  0.3131 -0.2499  0.8817
   33MOL   C34831132   2.680   1.901   7.083  0.7055  0.5855  0.0928
   33MOL   O34931133   2.583   1.976   7.007 -0.4134  0.1925  0.0968
   33MOL   C35031134   2.459   1.929   6.992 -0.8974 -0.2944 -0.0829
   33MOL   O35131135   2.408   1.835   7.047 -0.3207  0.6885  0.3987
   33MOL   C35231136   2.386   2.027   6.901 -0.1943  0.0648  0.2268
   33MOL   C35331137   2.417   2.011   6.752 -0.3650 -0.1003 -0.6560
   33MOL   C35431138   2.429   1.860   6.704 -0.0679 -0.8971 -0.1473
   33MOL   C35531139   2.351   1.826   6.575 -0.6486 -0.2517 -0.1783
   33MOL   C35631140   2.415   1.895   6.458 -0.0192 -0.6313 -0.9348
   33MOL   O35731141   2.523   1.872   6.404 -0.4684 -0.1753  0.1289
   33MOL   H35831142   3.614   2.417   6.953  3.7059 -3.3873  0.3624
   33MOL   H35931143   3.566   2.478   6.793  1.8129  0.2435  1.4659
   33MOL   H36031144   3.466   2.245   6.951  0.1125 -0.9155 -0.4092
   33MOL   H36131145   3.467   2.221   6.766 -0.5390 -1.0576  1.0261
   33MOL   H36231146   3.340   2.468   6.884 -0.3794  1.2311 -2.2432
   33MOL   H36331147   3.299   2.383   6.749  1.5475 -2.0546 -0.1708
   33MOL   H36431148   3.251   2.260   7.018 -0.9285  2.1558  0.5195
   33MOL   H36531149   3.203   2.189   6.862  2.8161  0.0305 -1.6224
   33MOL   H36631150   3.047   2.372   6.825 -0.3292 -0.4153  0.0523
   33MOL   H36731151   3.096   2.459   6.965 -0.8175  0.8908 -0.8232
   33MOL   H36831152   2.887   2.336   7.009  0.8744  1.2745  0.2271
   33MOL   H36931153   3.018   2.294   7.115 -1.9150  0.7030  0.9982
   33MOL   H37031154   3.050   2.085   6.959  0.6115  0.0199  1.0051
   33MOL   H37131155   2.902   2.130   6.877  1.7139  0.1910 -1.1365
   33MOL   H37231156   2.777   2.135   7.086 -1.3442 -1.6160 -2.2939
   33MOL   H37331157   2.910   2.085   7.172 -0.4526 -1.5312  0.0897
   33MOL   H37431158   2.827   1.912   6.926 -0.4095  2.0981  0.4924
   33MOL   H37531159   2.897   1.851   7.066  1.6530  0.3309 -0.5134
   33MOL   H37631160   2.683   1.924   7.190 -0.3310  0.7740  0.0844
   33MOL   H37731161   2.667   1.793   7.074  2.4426  0.2730  1.0676
   33MOL   H37831162   2.282   2.003   6.922 -0.1801  1.3670  1.9194
   33MOL   H37931163   2.395   2.133   6.928 -3.6897  0.7373 -1.0377
   33MOL   H38031164   2.505   2.068   6.720  0.3649 -1.3534 -0.9190
   33MOL   H38131165   2.335   2.064   6.704  0.4030  0.0148 -1.8699
   33MOL   H38231166   2.403   1.786   6.779 -0.0593 -1.7290 -0.9595
   33MOL   H38331167   2.536   1.839   6.692 -0.2760 -0.9935 -1.8294
   33MOL   H38431168   2.247   1.858   6.585 -0.5870 -0.5342  1.4951
   33MOL   H38531169   2.358   1.721   6.547 -1.1642  0.0218 -1.3911
   33MOL   O38631170   2.330   1.991   6.405  0.1202  0.5401 -0.0020
   33MOL   C38731171   2.379   2.074   6.304  0.0986 -0.1470 -0.2123
   33MOL   C38831172   2.334   2.213   6.333  0.1897 -1.1014  0.2026
   33MOL   C38931173   2.179   2.227   6.332 -0.0128  0.3165 -0.0811
   33MOL   C39031174   2.115   2.174   6.210 -0.8108 -0.1353 -0.7728
   33MOL   C39131175   1.958   2.188   6.212  0.5876  0.4618  0.4320
   33MOL   C39231176   1.878   2.111   6.319  0.6449 -0.3586  0.3659
   33MOL   C39331177   1.721   2.121   6.303  0.2183 -0.9992 -0.7892
   33MOL   C39431178   1.655   2.025   6.401 -0.0612 -0.1929 -0.2788
   33MOL   C39531179   1.499   2.040   6.408  0.6030  0.3988  0.3407
   33MOL   C39631180   1.433   1.914   6.471  0.7524 -0.7216  0.5955
   33MOL   O39731181   1.292   1.923   6.476  0.3885  0.4587  0.1750
   33MOL   C39831182   1.214   1.815   6.493  0.0531 -0.0163  0.0768
   33MOL   O39931183   1.251   1.699   6.510 -0.1494  0.4840  0.2796
   33MOL   C40031184   1.068   1.844   6.499  0.0571 -0.1290 -0.3540
   33MOL   C40131185   1.015   1.834   6.639  0.3549 -0.3039  0.5566
   33MOL   C40231186   1.036   1.708   6.721 -0.6828  0.8939 -0.2536
   33MOL   C40331187   0.987   1.582   6.650 -0.0964  0.2112  0.2862
   33MOL   C40431188   0.831   1.583   6.630 -0.4464 -1.4594 -0.1807
   33MOL   O40531189   0.774   1.583   6.521  0.2311 -0.1866 -0.4498
   33MOL   H40631190   2.486   2.060   6.287 -0.1781 -0.5449 -1.7316
   33MOL   H40731191   2.333   2.045   6.209 -2.0764 -1.2861  1.1303
   33MOL   H40831192   2.385   2.269   6.255 -2.8325 -0.2589 -1.2575
   33MOL   H40931193   2.374   2.259   6.423  1.3602  0.3399 -1.0334
   33MOL   H41031194   2.135   2.186   6.423  0.6883 -0.4393 -0.0829
   33MOL   H41131195   2.156   2.334   6.341 -0.7877 -0.0335  2.7154
   33MOL   H41231196   2.132   2.067   6.197 -0.3522 -0.1753  0.1380
   33MOL   H41331197   2.138   2.245   6.130  0.4395  0.2592 -0.0786
   33MOL   H41431198   1.921   2.140   6.121  1.8031  0.0061  0.1686
   33MOL   H41531199   1.947   2.296   6.220  1.2029  0.4198  1.9476
   33MOL   H41631200   1.916   2.150   6.413  1.0701  1.0518 -0.3789
   33MOL   H41731201   1.897   2.003   6.320 -1.1993 -0.7268  4.2882
   33MOL   H41831202   1.686   2.079   6.209  1.4109 -1.5649 -0.9855
   33MOL   H41931203   1.681   2.221   6.323  1.1227 -0.7299 -0.3236
   33MOL   H42031204   1.702   2.037   6.499  1.6779  1.5256 -1.2802
   33MOL   H42131205   1.674   1.925   6.361  0.6238 -0.2332  0.1229
   33MOL   H42231206   1.468   2.131   6.459 -0.0017  1.4636 -1.8691
   33MOL   H42331207   1.462   2.070   6.310 -0.5316  1.5392  1.1061
   33MOL   H42431208   1.460   1.888   6.573 -1.6413 -1.7166  1.0166
   33MOL   H42531209   1.459   1.826   6.411 -1.2141 -0.8074 -0.1812
   33MOL   H42631210   1.055   1.943   6.455 -0.8102  0.2257  0.6830
   33MOL   H42731211   1.019   1.769   6.438  0.2297  0.6981 -1.5167
   33MOL   H42831212   0.907   1.849   6.628  0.5627 -0.9015 -2.5431
   33MOL   H42931213   1.051   1.930   6.676  0.0407  0.5115 -1.1989
   33MOL   H43031214   0.982   1.723   6.815  2.7900 -1.1495  2.1527
   33MOL   H43131215   1.144   1.699   6.736 -0.6193 -0.5992 -1.5226
   33MOL   H43231216   1.008   1.500   6.719 -0.6295  0.9591  1.3553
   33MOL   H43331217   1.037   1.568   6.554  1.0330  1.4021  0.6838
   33MOL   O43431218   0.769   1.566   6.743 -0.7175  0.0109  0.2628
   33MOL   C43531219   0.631   1.525   6.743 -0.0195 -0.2935  0.2476
   33MOL   C43631220   0.578   1.551   6.885  0.1291  0.3665 -0.5789
   33MOL   C43731221   0.655   1.477   6.996 -0.1617 -0.4271  0.4825
   33MOL   C43831222   0.579   1.491   7.136 -0.7210 -0.2482  0.4754
   33MOL   C43931223   0.647   1.405   7.248  0.4666  0.3366 -0.8153
   33MOL   C44031224   0.645   1.254   7.231 -0.0170 -0.6683  0.5635
   33MOL   C44131225   0.689   1.175   7.360  0.3700 -0.3920  0.4951
   33MOL   C44231226   0.830   1.211   7.409 -0.6869  0.4714  0.1949
   33MOL   C44331227   0.879   1.123   7.526  0.3877  0.3635 -0.0254
   33MOL   C44431228   1.031   1.129   7.552 -0.0819  0.0151 -0.4985
   33MOL   O44531229   1.053   1.086   7.683  0.2848 -0.0729  0.2102
   33MOL   C44631230   1.155   1.009   7.715  0.3366 -0.1525 -0.1780
   33MOL   O44731231   1.248   0.973   7.641 -0.3242 -0.0664  0.3979
   33MOL   C44831232   1.144   0.969   0.099  0.2407 -0.5629  0.1066
   33MOL   C44931233   1.280   0.961   0.169  0.0672  0.9836 -0.1591
   33MOL   C45031234   1.270   0.980   0.326 -0.7849 -0.5383 -0.0016
   33MOL   C45131235   1.412   0.957   0.398  0.1574 -0.0157  0.2305
   33MOL   C45231236   1.524   1.048   0.347 -0.1287 -0.4371 -0.5519
   33MOL   O45331237   1.515   1.169   0.325 -0.4148 -0.0715  0.1199
   33MOL   H45431238   0.577   1.587   6.671  0.9093 -0.7912 -0.8947
   33MOL   H45531239   0.622   1.421   6.712  2.3507 -0.7093  0.8723
   33MOL   H45631240   0.475   1.517   6.873 -0.5558  2.1868 -0.0052
   33MOL   H45731241   0.575   1.657   6.909  0.4873  0.4694 -0.9754
   33MOL   H45831242   0.660   1.373   6.966 -2.9966 -0.7109  0.8118
   33MOL   H45931243   0.754   1.522   6.994  0.4641 -1.7956 -0.1966
   33MOL   H46031244   0.476   1.460   7.123 -0.6793  0.1446 -0.9043
   33MOL   H46131245   0.579   1.597   7.163  0.9263 -0.8303  2.9315
   33MOL   H46231246   0.601   1.442   7.339 -0.0143  0.5603 -1.1476
   33MOL   H46331247   0.753   1.425   7.267  0.7009 -1.7779  0.2306
   33MOL   H46431248   0.719   1.229   7.154  0.5374  1.7211  0.2701
   33MOL   H46531249   0.544   1.231   7.196  0.3672 -2.6176  0.6723
   33MOL   H46631250   0.680   1.068   7.347  0.9379 -0.2273 -1.3509
   33MOL   H46731251   0.612   1.200   7.433 -1.1013 -1.7200 -0.5988
   33MOL   H46831252   0.851   1.314   7.439 -1.6077  1.3173 -1.9565
   33MOL   H46931253   0.906   1.206   7.331  1.3659 -0.7472  2.2200
   33MOL   H47031254   0.832   1.144   7.622  1.0689  0.1895  0.3535
   33MOL   H47131255   0.855   1.018   7.509  0.6723  0.0832  1.2246
   33MOL   H47231256   1.079   1.227   7.550  3.8212 -1.7062  2.0965
   33MOL   H47331257   1.097   1.074   7.483 -1.4756 -1.3955 -0.7358
   33MOL   H47431258   1.093   1.050   0.151  1.1692  1.1343 -1.5688
   33MOL   H47531259   1.095   0.873   0.117  0.7757 -1.0751 -1.1393
   33MOL   H47631260   1.358   1.024   0.125 -0.5050  2.5211  1.0122
   33MOL   H47731261   1.313   0.858   0.151 -2.4488 -0.0771  1.0890
   33MOL   H47831262   1.194   0.919   0.375 -0.1164 -0.6700  0.8851
   33MOL   H47931263   1.229   1.081   0.336  2.3373  0.8087 -0.1697
   33MOL   H48031264   1.442   0.853   0.386  5.0973  0.9536  3.0773
   33MOL   H48131265   1.405   0.980   0.505 -2.4712  1.2360 -0.1591
   33MOL   O48231266   1.635   0.980   0.317 -0.4346  0.1104 -0.1706
   33MOL   C48331267   1.744   1.040   0.255  0.4004 -0.0276 -0.6868
   33MOL   C48431268   1.770   0.956   0.129 -0.3690  0.6279  0.7049
   33MOL   C48531269   1.902   0.995   0.063  0.1093  0.2126 -0.5410
   33MOL   C48631270   1.927   0.899   7.709 -0.1755  0.0075  0.0184
   33MOL   C48731271   2.059   0.931   7.630 -0.1729 -0.5777  0.2455
   33MOL   C48831272   2.184   0.926   7.716  0.7971 -0.1272 -0.0785
   33MOL   C48931273   2.311   0.944   7.632  0.4875  0.3607 -0.0283
   33MOL   C49031274   2.442   0.882   7.699 -0.8570 -0.6041 -0.5013
   33MOL   C49131275   2.569   0.921   7.620  0.5023  0.9803 -0.0463
   33MOL   C49231276   2.706   0.867   7.676 -0.1861 -0.3155 -0.9468
   33MOL   O49331277   2.730   0.954   0.025  0.2572  0.1634  0.0690
   33MOL   C49431278   2.847   0.958   0.089 -0.1112  0.3187  0.4416
   33MOL   O49531279   2.951   0.887   0.065  0.4107 -0.6426  0.1101
   33MOL   C49631280   2.839   1.059   0.203 -0.9804  0.0698  0.3431
   33MOL   C49731281   2.765   1.187   0.173 -0.2821 -0.9975  0.4930
   33MOL   C49831282   2.851   1.288   0.102  0.4218  0.3570  0.5570
   33MOL   C49931283   2.774   1.402   0.038 -0.7938 -0.9685  0.5259
   33MOL   C50031284   2.741   1.515   0.124  0.3629 -0.4432  0.2255
   33MOL   O50131285   2.787   1.626   0.105 -1.2540 -0.3837  0.0082
   33MOL   H50231286   1.727   1.143   0.224  1.2170  0.6253  0.9950
   33MOL   H50331287   1.826   1.041   0.327 -0.0826  1.5701 -0.1586
   33MOL   H50431288   1.686   0.944   0.061 -0.9290 -2.7136  1.9147
   33MOL   H50531289   1.781   0.854   0.165  0.6276  0.1448 -0.9186
   33MOL   H50631290   1.908   1.096   0.024 -0.5271  0.0058 -1.1733
   33MOL   H50731291   1.979   0.988   0.140  0.5012  1.7853 -0.7915
   33MOL   H50831292   1.845   0.910   7.638 -0.2691 -1.3660 -0.1029
   33MOL   H50931293   1.916   0.797   7.747  0.1892  0.1046  0.3877
   33MOL   H51031294   2.045   1.029   7.584  0.5161 -0.7516 -0.3479
   33MOL   H51131295   2.074   0.866   7.544  0.5153 -1.0056  0.6827
   33MOL   H51231296   2.191   0.835   0.012  1.8116 -0.8111 -1.1884
   33MOL   H51331297   2.198   1.003   0.027 -0.7925  1.2153 -1.1340
   33MOL   H51431298   2.332   1.049   7.612 -1.6580  0.7793 -0.2154
   33MOL   H51531299   2.308   0.879   7.544 -0.8742  0.3241  0.0342
   33MOL   H51631300   2.425   0.775   7.711 -0.3831 -0.3216  3.5081
   33MOL   H51731301   2.438   0.914   0.039  0.9037 -2.6523  0.2410
   33MOL   H51831302   2.552   0.882   7.519  0.3812  2.5167 -0.6389
   33MOL   H51931303   2.572   1.027   7.597  2.2369  1.8707  4.0130
   33MOL   H52031304   2.786   0.897   7.608 -0.7092  1.9857 -0.5640
   33MOL   H52131305   2.718   0.759   7.692  0.1679 -0.4131 -1.8128
   33MOL   H52231306   2.791   1.015   0.290  0.2138 -0.0517  0.9519
   33MOL   H52331307   2.944   1.079   0.226 -1.1225  1.6148 -0.2438
   33MOL   H52431308   2.741   1.228   0.272 -0.0878  2.5449 -0.8485
   33MOL   H52531309   2.669   1.173   0.125 -0.4553  0.5611  0.3371
   33MOL   H52631310   2.913   1.239   0.026 -0.6424 -1.2783  0.7288
   33MOL   H52731311   2.921   1.336   0.170  0.2242  1.6850 -0.1527
   33MOL   H52831312   2.698   1.354   7.740 -0.8411  0.1834 -0.3086
   33MOL   H52931313   2.847   1.451   7.739  1.7199 -0.4078  3.7214
   33MOL   O53031314   2.656   1.484   0.218 -0.7054 -0.5325  0.1122
   33MOL   C53131315   2.609   1.587   0.311  0.3533  0.3144  0.2106
   33MOL   C53231316   2.494   1.525   0.394  0.5359 -0.3670 -0.0448
   33MOL   C53331317   2.460   1.616   0.512  0.2050 -0.1539 -0.8665
   33MOL   C53431318   2.339   1.556   0.592 -0.4700  0.8382 -0.2437
   33MOL   C53531319   2.271   1.662   0.678  0.3075  0.4279 -0.2775
   33MOL   C53631320   2.143   1.609   0.758  0.3062 -0.4123 -0.0231
   33MOL   C53731321   2.041   1.720   0.798 -0.2308 -0.1815 -0.4863
   33MOL   C53831322   1.911   1.667   0.872 -0.0936  0.1741 -0.3501
   33MOL   C53931323   1.947   1.654   1.020  0.4912 -0.0829 -0.3645
   33MOL   C54031324   1.834   1.643   1.125  0.2122 -0.0486  0.3739
   33MOL   O54131325   1.755   1.760   1.115  0.0153  0.4583  0.0457
   33MOL   C54231326   1.647   1.765   1.036  0.1611  0.0636  0.4681
   33MOL   O54331327   1.617   1.681   0.949  0.2767 -0.7544  0.3635
   33MOL   C54431328   1.566   1.893   1.058  0.5525 -0.1863 -0.4919
   33MOL   C54531329   1.650   2.025   1.102 -0.2194  0.3280 -0.1260
   33MOL   C54631330   1.750   2.069   0.992 -0.0747 -0.5169 -0.9255
   33MOL   C54731331   1.706   2.131   0.865 -0.2692 -0.0227 -0.1314
   33MOL   C54831332   1.639   2.038   0.758 -0.4176 -0.0758 -0.5372
   33MOL   O54931333   1.532   2.069   0.701  0.0883 -0.6316 -0.2180
   33MOL   H55031334   2.699   1.612   0.368 -0.5359  2.4345  0.7431
   33MOL   H55131335   2.576   1.670   0.248  0.5291  0.0401 -0.2447
   33MOL   H55231336   2.507   1.424   0.433 -0.6932 -0.1153  1.0492
   33MOL   H55331337   2.403   1.515   0.335 -0.3881  1.2154  1.0581
   33MOL   H55431338   2.549   1.627   0.573 -0.9880 -1.3879  1.1316
   33MOL   H55531339   2.435   1.714   0.471 -1.6839  0.3166  1.2746
   33MOL   H55631340   2.367   1.474   0.657 -4.8189 -0.0514  0.6639
   33MOL   H55731341   2.265   1.511   0.526  0.8206 -2.0299  0.2137
   33MOL   H55831342   2.235   1.739   0.610  2.9028  1.3257 -0.6925
   33MOL   H55931343   2.349   1.712   0.735  0.4883 -0.3533  0.1697
   33MOL   H56031344   2.172   1.549   0.844  2.6661  0.1952 -0.3578
   33MOL   H56131345   2.081   1.537   0.704  0.3769 -1.7512  1.6520
   33MOL   H56231346   2.008   1.775   0.710  1.3752  1.7660  0.0775
   33MOL   H56331347   2.091   1.790   0.865 -1.3830  0.4342 -0.2521
   33MOL   H56431348   1.849   1.586   0.834 -0.3941  1.7921 -3.4854
   33MOL   H56531349   1.846   1.753   0.860 -0.3039  0.1936  0.8726
   33MOL   H56631350   2.021   1.574   1.022  1.3708  0.6951 -1.6453
   33MOL   H56731351   2.001   1.746   1.043 -1.1278  1.0680 -1.0602
   33MOL   H56831352   1.887   1.636   1.220  1.3881 -2.1162 -0.4001
   33MOL   H56931353   1.773   1.554   1.114 -0.7669  0.7227 -0.4903
   33MOL   H57031354   1.500   1.915   0.974  0.6926  2.0834 -0.0531
   33MOL   H57131355   1.507   1.867   1.146  1.7493 -0.4953  0.2329
   33MOL   H57231356   1.696   2.012   1.200  1.3072  1.4845 -0.6601
   33MOL   H57331357   1.587   2.110   1.128 -0.1534  0.2646  0.2440
   33MOL   H57431358   1.817   1.986   0.970  2.9051  1.7182 -0.6241
   33MOL   H57531359   1.812   2.142   1.045 -0.7632 -0.8339  0.3438
   33MOL   H57631360   1.803   2.160   0.825  0.3690  1.6186  2.5336
   33MOL   H57731361   1.642   2.212   0.899 -1.2460  0.3369 -2.7132
   33MOL   O57831362   1.717   1.935   0.729 -0.6711 -0.5302  1.0933
   33MOL   C57931363   1.659   1.832   0.647 -0.3232 -0.1349 -0.4199
   33MOL   C58031364   1.709   1.798   0.505  0.1951 -0.2100 -0.1780
   33MOL   C58131365   1.656   1.909   0.408 -0.3278 -0.1370  0.2824
   33MOL   C58231366   1.709   1.909   0.262  0.3089 -0.4750  0.5296
   33MOL   C58331367   1.618   2.013   0.186  0.2082  0.7951  0.8047
   33MOL   C58431368   1.486   1.950   0.133  0.5566  0.7275 -0.2271
   33MOL   C58531369   1.421   2.047   0.036 -0.3790  0.1129 -0.8085
   33MOL   C58631370   1.279   1.999   7.758  0.1272 -1.2099 -0.4189
   33MOL   C58731371   1.172   2.004   0.099 -0.7350  0.2918  0.2505
   33MOL   C58831372   1.045   1.926   0.048 -0.8200 -0.4317 -0.0625
   33MOL   O58931373   0.976   2.012   7.732 -0.4414  0.7529 -0.5014
   33MOL   C59031374   0.971   1.997   7.602 -0.2090  0.9996  1.0476
   33MOL   O59131375   1.031   1.910   7.539  0.6933 -0.6516 -0.4732
   33MOL   C59231376   0.876   2.099   7.535 -0.7335  0.0933  0.3556
   33MOL   C59331377   0.899   2.250   7.573  0.1886 -0.3680  0.0304
   33MOL   C59431378   1.024   2.325   7.530 -0.5214  0.2645 -0.4238
   33MOL   C59531379   1.021   2.372   7.385 -0.6021  0.0942  0.3659
   33MOL   C59631380   1.090   2.508   7.372  0.5050 -0.0920 -0.0444
   33MOL   O59731381   1.178   2.516   7.294 -0.0786  0.1720  0.1400
   33MOL   H59831382   1.657   1.748   0.716  1.0705 -1.2578 -1.6980
   33MOL   H59931383   1.551   1.840   0.638 -0.3422  0.9075  0.6126
   33MOL   H60031384   1.677   1.702   0.464  0.1718 -0.2339 -0.1048
   33MOL   H60131385   1.817   1.784   0.500  0.3570  0.1905  1.7846
   33MOL   H60231386   1.547   1.904   0.412 -0.2713 -0.7131  1.3233
   33MOL   H60331387   1.676   2.010   0.441 -0.4921 -0.5064  1.5411
   33MOL   H60431388   1.706   1.816   0.206 -0.3207 -0.0929 -0.0929
   33MOL   H60531389   1.810   1.950   0.271  0.0191  0.1480  0.9794
   33MOL   H60631390   1.664   2.070   0.105  0.2370 -0.9202 -0.4127
   33MOL   H60731391   1.600   2.091   0.260 -0.5635  0.4910  0.9390
   33MOL   H60831392   1.414   1.937   0.214  0.8360 -1.1194 -0.2354
   33MOL   H60931393   1.497   1.846   0.102  0.6955  0.5343  0.4451
   33MOL   H61031394   1.490   2.055   7.717  1.1528 -0.6388  0.3353
   33MOL   H61131395   1.412   2.147   0.080 -0.1210 -0.6392  1.0202
   33MOL   H61231396   1.279   1.913   7.692 -2.0208  0.8114 -3.1871
   33MOL   H61331397   1.247   2.072   7.684  1.9576  1.4368  1.2992
   33MOL   H61431398   1.193   1.953   0.193 -0.1553 -0.4380 -0.2686
   33MOL   H61531399   1.149   2.106   0.131  4.0548  0.9234  2.0112
   33MOL   H61631400   0.978   1.903   0.131  0.9069 -0.6965  1.2873
   33MOL   H61731401   1.069   1.827   0.010  0.2294 -1.5716  3.3873
   33MOL   H61831402   0.887   2.082   7.428 -1.0232 -0.3609  0.3985
   33MOL   H61931403   0.776   2.063   7.560 -0.2183 -2.9242 -1.7150
   33MOL   H62031404   0.903   2.256   7.682 -2.0331  0.9971  0.0583
   33MOL   H62131405   0.810   2.309   7.552  1.6710  2.1407  0.5516
   33MOL   H62231406   1.107   2.256   7.544 -0.6523  0.1164 -0.3659
   33MOL   H62331407   1.042   2.408   7.598 -0.4815  1.7722 -2.2392
   33MOL   H62431408   0.919   2.366   7.346 -0.2905 -1.1334 -0.2817
   33MOL   H62531409   1.076   2.305   7.320 -2.4362  0.0377 -1.1707
   33MOL   O62631410   1.048   2.599   7.465 -0.1004  0.1730 -0.1889
   33MOL   C62731411   1.113   2.733   7.472 -0.0986 -0.2584  0.5177
   33MOL   C62831412   1.003   2.842   7.447  0.0657  0.1844  0.3611
   33MOL   C62931413   1.047   2.990   7.454  0.2512  0.3613 -0.2254
   33MOL   C63031414   0.937   3.091   7.426 -0.4832  0.3405  0.9347
   33MOL   C63131415   0.884   3.092   7.282 -0.6804  0.6386  0.0210
   33MOL   C63231416   0.823   3.231   7.249 -0.8213  0.1877  0.6166
   33MOL   C63331417   0.915   3.334   7.171  0.0463 -0.3969  0.4113
   33MOL   C63431418   0.855   3.474   7.178  0.5608 -0.2215  0.1387
   33MOL   C63531419   0.926   3.579   7.103  0.4037 -0.3087 -0.1678
   33MOL   C63631420   0.849   3.708   7.115 -0.7148 -0.0206 -0.2257
   33MOL   O63731421   0.913   3.814   7.036 -0.2342 -0.0675 -0.3309
   33MOL   C63831422   0.964   3.914   7.106 -0.7631 -0.1279  0.4951
   33MOL   O63931423   0.983   3.922   7.229  0.4446  0.4268  0.7711
   33MOL   C64031424   1.012   4.017   7.012 -0.0175 -0.3952 -0.1003
   33MOL   C64131425   0.904   4.127   6.989 -0.2419 -0.1110 -0.6372
   33MOL   C64231426   0.915   4.203   6.856  0.0044 -0.0837 -0.1622
   33MOL   C64331427   0.802   4.300   6.822  0.2461  0.3248  0.0347
   33MOL   C64431428   0.845   4.353   6.682  0.3365 -0.2627 -0.1640
   33MOL   O64531429   0.817   4.292   6.578  0.1581 -0.2799 -0.1897
   33MOL   H64631430   1.152   2.749   7.572 -0.0376 -1.8968  0.7670
   33MOL   H64731431   1.193   2.755   7.400 -0.4587  1.2398  0.5699
   33MOL   H64831432   0.931   2.830   7.528  1.8720 -0.5067  1.8846
   33MOL   H64931433   0.958   2.810   7.353 -1.1099 -2.7344  1.8488
   33MOL   H65031434   1.072   3.018   7.557 -2.9914  2.3354  0.1272
   33MOL   H65131435   1.120   3.022   7.381 -0.0444  2.1942  0.2478
   33MOL   H65231436   0.968   3.194   7.444  1.0460 -0.0527  0.6105
   33MOL   H65331437   0.853   3.067   7.492 -0.3676  0.2800  1.0602
   33MOL   H65431438   0.805   3.016   7.276 -0.3431  0.3089 -0.2358
   33MOL   H65531439   0.961   3.070   7.208 -1.7289 -1.1363 -0.5816
   33MOL   H65631440   0.787   3.281   7.339 -0.1763  1.7852  0.0239
   33MOL   H65731441   0.731   3.214   7.195  0.2566  2.5644 -2.1364
   33MOL   H65831442   0.929   3.301   7.068  0.4318  1.0059  0.0074
   33MOL   H65931443   1.011   3.331   7.223  0.1138 -2.4919  0.2099
   33MOL   H66031444   0.833   3.496   7.282 -0.7175 -0.0804 -0.1454
   33MOL   H66131445   0.758   3.461   7.129  0.2178  0.5860  0.5993
   33MOL   H66231446   1.031   3.589   7.132  0.2441  1.6175 -0.1947
   33MOL   H66331447   0.930   3.554   6.997 -2.0273 -3.5375  0.4386
   33MOL   H66431448   0.836   3.737   7.220 -1.2836 -1.9808  0.2669
   33MOL   H66531449   0.746   3.710   7.081 -0.0143  0.7506 -2.3971
   33MOL   H66631450   1.107   4.059   7.047 -0.5583 -0.1879  1.1354
   33MOL   H66731451   1.029   3.963   6.919 -1.6741 -3.2771  1.2018
   33MOL   H66831452   0.912   4.194   7.075  0.2385 -3.1007  1.7038
   33MOL   H66931453   0.800   4.097   6.999 -0.1019 -1.0511 -1.9483
   33MOL   H67031454   0.943   4.129   6.780  1.3800  1.2301 -0.9627
   33MOL   H67131455   1.005   4.264   6.862  1.2960 -1.8856 -0.6422
   33MOL   H67231456   0.791   4.375   6.900  2.2466  0.2615  0.4055
   33MOL   H67331457   0.713   4.238   6.815  0.2637  0.4126 -1.0990
   33MOL   O67431458   0.913   4.464   6.692 -0.0001 -0.0818  0.2841
   33MOL   C67531459   0.959   4.535   6.577 -0.7154  0.9035 -0.0163
   33MOL   C67631460   1.014   4.672   6.622  0.5258 -0.6499 -0.4327
   33MOL   C67731461   1.151   4.654   6.680 -0.1026 -0.1375  0.3043
   33MOL   C67831462   1.210   4.781   6.721 -0.2593 -0.5923  0.5994
   33MOL   C67931463   1.351   4.768   6.777 -0.5461  0.0624 -0.7937
   33MOL   C68031464   1.461   4.813   6.682 -0.5233  0.9379  0.3369
   33MOL   C68131465   1.595   4.805   6.755 -0.0635  0.4803 -0.0268
   33MOL   C68231466   1.717   4.857   6.672 -0.2297  0.5380  0.3411
   33MOL   C68331467   1.838   4.835   6.770  0.6629 -0.1277  0.3317
   33MOL   C68431468   1.972   4.861   6.693  0.0653  0.3455 -0.2397
   33MOL   O68531469   1.987   4.785   6.578 -0.5682 -0.7029 -0.6060
   33MOL   C68631470   2.113   4.790   6.514  0.1417  0.3646  0.3452
   33MOL   O68731471   2.202   4.873   6.538 -0.7360  0.1441 -0.0568
   33MOL   C68831472   2.130   4.679   6.412 -0.1210 -0.1855 -0.3231
   33MOL   C68931473   2.267   4.678   6.333 -0.1500  0.6212 -0.2569
   33MOL   C69031474   2.399   4.666   6.409 -0.0402  0.1388 -0.2597
   33MOL   C69131475   2.512   4.665   6.308 -0.0758  0.2445 -0.3515
   33MOL   C69231476   2.651   4.714   6.351 -0.8914  0.1984  0.5030
   33MOL   O69331477   2.676   4.833   6.360  0.1155 -0.2082  0.2019
   33MOL   H69431478   1.039   4.476   6.532  0.0432  1.4328  0.6477
   33MOL   H69531479   0.882   4.543   6.500  1.6836  1.5003 -2.4358
   33MOL   H69631480   0.945   4.724   6.688  0.8528  0.4237 -0.9297
   33MOL   H69731481   1.023   4.736   6.534  0.0894 -2.4177 -1.7880
   33MOL   H69831482   1.148   4.590   6.768 -0.1421 -1.8419 -0.9318
   33MOL   H69931483   1.214   4.617   6.600 -1.2099  0.2123 -0.7463
   33MOL   H70031484   1.146   4.824   6.798 -1.4730  0.9082 -1.1883
   33MOL   H70131485   1.198   4.850   6.637  1.0782  1.7729  2.3196
   33MOL   H70231486   1.370   4.672   6.825  1.1489  1.2553  1.0226
   33MOL   H70331487   1.360   4.840   6.859  2.3116 -0.5185 -0.5334
   33MOL   H70431488   1.449   4.914   6.642 -1.0143 -0.2549 -2.6064
   33MOL   H70531489   1.467   4.750   6.594  1.0646  2.7863 -0.9025
   33MOL   H70631490   1.611   4.700   6.778  0.2036  0.7353  0.9912
   33MOL   H70731491   1.594   4.868   6.845 -0.8359 -1.1139  1.1187
   33MOL   H70831492   1.712   4.963   6.647  0.1906  0.3976 -0.3392
   33MOL   H70931493   1.725   4.792   6.585 -2.7274 -1.3235  1.4381
   33MOL   H71031494   1.839   4.891   6.864  1.9567  1.1686 -0.4325
   33MOL   H71131495   1.823   4.730   6.794 -1.0921  0.6711  2.9990
   33MOL   H71231496   2.049   4.849   6.769 -0.6170 -2.2448  0.0978
   33MOL   H71331497   1.968   4.967   6.667  0.4170  1.0659  2.4984
   33MOL   H71431498   2.113   4.592   6.475  0.4550  1.2650  1.8711
   33MOL   H71531499   2.055   4.684   6.333 -0.2005 -1.7384 -0.3714
   33MOL   H71631500   2.266   4.763   6.265 -2.4083  2.8591  2.4426
   33MOL   H71731501   2.251   4.588   6.274  0.5370 -0.8286  1.7291
   33MOL   H71831502   2.402   4.570   6.461 -0.2148 -0.4724 -1.3768
   33MOL   H71931503   2.414   4.746   6.482  0.6494  0.3056 -0.5850
   33MOL   H72031504   2.488   4.736   6.229  0.4834 -0.1011 -0.8284
   33MOL   H72131505   2.528   4.570   6.258 -0.5151  0.1114 -0.2419
   33MOL   O72231506   2.741   4.611   6.380 -0.0080 -0.0937 -0.3157
   33MOL   C72331507   2.877   4.665   6.399  0.2356  0.3365  0.4660
   33MOL   C72431508   2.964   4.666   6.267 -0.3578  0.1438 -0.1941
   33MOL   C72531509   2.919   4.749   6.146  0.4949 -0.5172  1.0053
   33MOL   C72631510   2.998   4.727   6.019 -0.2432  0.1107  0.3583
   33MOL   C72731511   2.967   4.826   5.907 -0.1988 -0.0905 -0.5327
   33MOL   C72831512   3.063   4.825   5.784  0.5011  0.5638 -0.0724
   33MOL   C72931513   3.034   4.939   5.682 -0.0418  0.6678 -0.0688
   33MOL   C73031514   3.144   4.935   5.578  0.1420  0.2127 -0.2108
   33MOL   C73131515   3.136   5.026   5.455  0.5973  0.8948 -0.1880
   33MOL   C73231516   3.269   5.012   5.371  0.0244 -0.2763  0.0385
   33MOL   O73331517   3.291   4.880   5.333 -0.5988 -0.4932 -0.2656
   33MOL   C73431518   3.328   4.852   5.206  0.0717  0.5457  0.1847
   33MOL   O73531519   3.351   4.943   5.124 -0.1962 -0.1412  0.1536
   33MOL   C73631520   3.327   4.704   5.177  0.1483  0.7170  0.4354
   33MOL   C73731521   3.344   4.667   5.034  0.1085 -0.2813 -0.5860
   33MOL   C73831522   3.479   4.698   4.972  1.5414 -0.4457 -0.9376
   33MOL   C73931523   3.494   4.656   4.824  0.1906 -0.3418  0.1527
   33MOL   C74031524   3.623   4.705   4.761 -0.0558 -0.3534 -0.3081
   33MOL   O74131525   3.722   4.632   4.756  0.1884 -0.0970 -0.4227
   33MOL   H74231526   2.873   4.766   6.441  2.1456  0.2404  0.9340
   33MOL   H74331527   2.924   4.601   6.474 -0.2061 -1.6342 -0.9215
   33MOL   H74431528   2.979   4.562   6.237 -2.2306 -0.9036  2.3576
   33MOL   H74531529   3.056   4.714   6.301 -0.2818 -1.2363  1.6646
   33MOL   H74631530   2.823   4.714   6.108  1.0191 -1.8786  0.9190
   33MOL   H74731531   2.911   4.855   6.172  1.6698  0.0928 -1.0300
   33MOL   H74831532   3.006   4.628   5.976  1.0820 -0.2106  1.3170
   33MOL   H74931533   3.104   4.743   6.039  0.1177  0.9163 -1.9803
   33MOL   H75031534   2.965   4.928   5.946  0.6163  0.1168 -1.0230
   33MOL   H75131535   2.866   4.798   5.877 -0.2216  0.5853 -1.0821
   33MOL   H75231536   3.037   4.729   5.741  0.0621  1.0556 -0.9100
   33MOL   H75331537   3.170   4.807   5.800  0.9125  2.0528 -1.0409
   33MOL   H75431538   3.035   5.039   5.726  1.1194 -0.2967  2.2369
   33MOL   H75531539   2.933   4.926   5.646 -0.1858  0.6682  0.3301
   33MOL   H75631540   3.155   4.835   5.539 -1.1558  0.9131 -2.4316
   33MOL   H75731541   3.245   4.951   5.618  0.3997  0.2645 -0.8815
   33MOL   H75831542   3.054   4.984   5.397 -1.8376  0.2976  3.5411
   33MOL   H75931543   3.121   5.132   5.478 -1.3883  0.5239  0.2816
   33MOL   H76031544   3.352   5.048   5.433  0.2522  0.1218 -0.4954
   33MOL   H76131545   3.258   5.080   5.287 -0.5912 -1.9623 -1.2698
   33MOL   H76231546   3.414   4.658   5.223 -0.3792  1.0342  1.7750
   33MOL   H76331547   3.237   4.661   5.221  0.0720 -0.1421 -0.5157
   33MOL   H76431548   3.270   4.723   4.978  0.8185  1.5497  0.2454
   33MOL   H76531549   3.323   4.560   5.025  2.1345 -0.7728  0.2357
   33MOL   H76631550   3.555   4.648   5.032 -0.3601  0.5971  2.4398
   33MOL   H76731551   3.505   4.804   4.985  1.9666 -0.4308 -1.8482
   33MOL   H76831552   3.416   4.688   4.754 -0.9403 -0.9799  1.0834
   33MOL   H76931553   3.500   4.547   4.818  1.0416 -0.1816 -2.4077
   33MOL   O77031554   3.618   4.836   4.715 -0.0884  0.2556  0.0312
   33MOL   C77131555   3.734   4.907   4.676  0.2783 -0.0517  0.9038
   33MOL   C77231556   3.713   5.054   4.730 -0.6301 -0.2512  0.0172
   33MOL   C77331557   3.703   5.069   4.883 -0.2890 -0.6398  0.3543
   33MOL   C77431558   3.670   5.207   4.935 -0.0589 -0.4247  0.2252
   33MOL   C77531559   3.661   5.211   5.094 -0.1258  0.1800  0.2945
   33MOL   C77631560   3.635   5.346   5.161  0.6182  0.5966 -0.1265
   33MOL   C77731561   3.595   5.331   5.310  0.2320 -0.6352 -0.2818
   33MOL   C77831562   3.701   5.288   5.408 -0.5264 -0.3855  0.0889
   33MOL   C77931563   3.661   5.279   5.560 -0.7280  0.5258  0.0047
   33MOL   C78031564   3.776   5.246   5.651 -0.4169  0.2166 -0.2019
   33MOL   O78131565   3.824   5.116   5.627 -0.1263 -0.2771 -0.0243
   33MOL   C78231566   3.786   5.007   5.697  0.5836 -0.2222 -0.3204
   33MOL   O78331567   3.702   5.012   5.789 -0.4400  0.0967  0.6015
   33MOL   C78431568   3.853   4.879   5.647  0.0836  0.2726 -0.3347
   33MOL   C78531569   3.769   4.809   5.540 -0.3341 -0.1061 -0.2852
   33MOL   C78631570   3.767   4.890   5.409  0.0847  0.6279  0.4705
   33MOL   C78731571   3.676   4.841   5.300  0.8472  0.4919 -0.3961
   33MOL   C78831572   3.725   4.712   5.257  0.1352  0.2279 -0.2259
   33MOL   O78931573   3.664   4.611   5.286 -0.1800  0.2978  0.1537
   33MOL   H79031574   3.829   4.867   4.711  0.3471  0.4845  1.3455
   33MOL   H79131575   3.725   4.927   4.569  0.0086  1.1152  1.1374
   33MOL   H79231576   3.624   5.103   4.691 -0.2193 -0.5306 -1.2986
   33MOL   H79331577   3.799   5.111   4.695 -0.4467 -0.0184  0.8512
   33MOL   H79431578   3.619   5.003   4.904 -0.5426 -0.0883  1.0686
   33MOL   H79531579   3.797   5.044   4.933  0.0396 -0.1071  0.0150
   33MOL   H79631580   3.583   5.252   4.887  0.0468  0.1920  0.6103
   33MOL   H79731581   3.762   5.258   4.905  0.5061 -2.1544 -1.0908
   33MOL   H79831582   3.746   5.163   5.143 -2.2759 -0.6175  3.4138
   33MOL   H79931583   3.580   5.140   5.114 -0.9491  0.7072 -1.0748
   33MOL   H80031584   3.553   5.385   5.101 -0.7202 -0.9982  0.6276
   33MOL   H80131585   3.721   5.412   5.147  1.1634  0.1343  0.9907
   33MOL   H80231586   3.510   5.263   5.318  0.1588 -0.6659 -1.3229
   33MOL   H80331587   3.550   5.427   5.335 -0.3028 -0.5204 -1.6871
   33MOL   H80431588   3.776   5.364   5.387  0.4768 -0.8201  2.0016
   33MOL   H80531589   3.742   5.194   5.373 -1.4454 -0.6754 -0.2152
   33MOL   H80631590   3.616   5.369   5.601 -2.0927 -0.0304 -0.2612
   33MOL   H80731591   3.587   5.201   5.577 -1.1993  1.1797  1.0184
   33MOL   H80831592   3.738   5.245   5.754  0.3510 -0.6367  0.0827
   33MOL   H80931593   3.862   5.312   5.636 -0.4159  0.5140  1.0390
   33MOL   H81031594   3.953   4.899   5.609 -0.1167 -0.9194 -1.5323
   33MOL   H81131595   3.868   4.813   5.732  0.3292  0.3413 -0.3230
   33MOL   H81231596   3.667   4.790   5.573 -0.3916  0.9251  0.1558
   33MOL   H81331597   3.827   4.720   5.512  0.6668  0.3739  0.2323
   33MOL   H81431598   3.871   4.903   5.380  0.0864 -0.1045  0.1469
   33MOL   H81531599   3.728   4.990   5.428 -1.7029  0.1297 -0.4204
   33MOL   H81631600   3.671   4.919   5.224 -0.9413  1.1567  0.3698
   33MOL   H81731601   3.572   4.833   5.332  1.0106 -0.0028  0.0157
   33MOL   O81831602   3.833   4.719   5.184  0.1596  0.2447  0.0052
   33MOL   C81931603   3.885   4.601   5.125  0.5978 -0.1013 -0.2794
   33MOL   C82031604   4.004   4.651   5.047  0.3821 -0.7719  0.1975
   33MOL   C82131605   4.142   4.675   5.117  0.2292 -0.1843 -0.9124
   33MOL   C82231606   4.259   4.727   5.027  0.7643 -0.5034 -0.3110
   33MOL   C82331607   4.283   4.657   4.897  0.1288 -0.2532 -0.0711
   33MOL   C82431608   4.308   4.506   4.911 -0.3873 -0.4513 -0.4166
   33MOL   C82531609   4.273   4.427   4.791 -0.8611  0.6426 -0.1021
   33MOL   C82631610   4.334   4.486   4.670  0.3942 -0.2443  0.6539
   33MOL   C82731611   4.318   4.388   4.541  0.6930 -0.1057  0.4569
   33MOL   C82831612   4.428   4.409   4.434 -0.3938  0.6097 -0.1743
   33MOL   O82931613   4.380   4.331   4.328  0.2498 -0.0203 -0.7428
   33MOL   C83031614   4.296   4.380   4.244  0.2218  0.3950  0.3716
   33MOL   O83131615   4.258   4.496   4.246  0.5430 -0.0937  0.5220
   33MOL   C83231616   4.268   4.282   4.128  0.3095 -0.9628 -0.4074
   33MOL   C83331617   4.144   4.315   4.041  0.2120 -0.3326 -0.1899
   33MOL   C83431618   4.026   4.255   4.121 -0.1966  1.2447 -0.1804
   33MOL   C83531619   3.888   4.321   4.101 -0.0035 -0.5916  0.2471
   33MOL   C83631620   3.819   4.289   3.971  0.2145 -0.2720 -0.0231
   33MOL   O83731621   3.725   4.209   3.964  0.5776  0.0150 -0.5824
   33MOL   H83831622   3.913   4.527   5.199 -0.5213 -0.0057  0.2467
   33MOL   H83931623   3.814   4.560   5.053  0.0682 -1.9155  1.2523
   33MOL   H84031624   3.976   4.749   5.007 -1.0360 -0.8174  1.0436
   33MOL   H84131625   4.019   4.588   4.959 -0.5316 -0.0160 -0.5155
   33MOL   H84231626   4.116   4.743   5.198 -0.7140 -0.2909 -1.1215
   33MOL   H84331627   4.163   4.579   5.165 -0.3850 -1.5834 -3.3533
   33MOL   H84431628   4.352   4.733   5.084 -0.4100  0.7580  1.5419
   33MOL   H84531629   4.244   4.830   4.994  1.2742  0.2948  1.8356
   33MOL   H84631630   4.372   4.702   4.853  0.1301  1.3504  1.5207
   33MOL   H84731631   4.195   4.670   4.833  0.2619 -1.3850 -0.5035
   33MOL   H84831632   4.246   4.474   4.995 -0.4952 -3.0310 -1.4299
   33MOL   H84931633   4.410   4.500   4.951 -0.6270 -2.0879 -0.0235
   33MOL   H85031634   4.164   4.429   4.786 -1.0612 -2.1170  1.9794
   33MOL   H85131635   4.289   4.321   4.809  1.0466  0.9699  0.2597
   33MOL   H85231636   4.440   4.511   4.677  0.0271  2.0031 -1.1104
   33MOL   H85331637   4.280   4.576   4.642  1.2734 -0.5972 -2.3864
   33MOL   H85431638   4.331   4.287   4.578 -0.0921 -1.0858 -1.8523
   33MOL   H85531639   4.216   4.395   4.504  1.0738  2.2529 -0.2801
   33MOL   H85631640   4.522   4.377   4.480  0.1871  0.0904 -1.6869
   33MOL   H85731641   4.430   4.514   4.408 -1.8969  0.1733 -2.1791
   33MOL   H85831642   4.358   4.279   4.067  0.3978 -0.5673 -0.3003
   33MOL   H85931643   4.245   4.181   4.162  1.6861 -0.9464  0.6479
   33MOL   H86031644   4.158   4.253   3.952 -1.0384 -1.3901  0.3344
   33MOL   H86131645   4.139   4.423   4.025 -1.6758 -0.4729 -0.6723
   33MOL   H86231646   4.056   4.281   4.223 -2.1348  2.3455  0.1338
   33MOL   H86331647   4.008   4.147   4.127  2.0679  0.9498  2.0937
   33MOL   H86431648   3.891   4.430   4.109 -1.3692 -0.5777  0.6991
   33MOL   H86531649   3.811   4.285   4.170  0.1294  0.1783  0.8105
   33MOL   O86631650   3.872   4.351   3.873  0.2924 -0.4409  0.1520
   33MOL   C86731651   3.836   4.330   3.732  0.5794 -0.0614  0.7473
   33MOL   C86831652   3.905   4.210   3.671  0.5523 -0.1431  0.3631
   33MOL   C86931653   4.055   4.233   3.658  0.0737  0.1434 -0.1043
   33MOL   C87031654   4.128   4.112   3.611 -0.3560  0.5239  0.5799
   33MOL   C87131655   4.093   4.079   3.462 -0.9282 -0.4857 -0.5549
   33MOL   C87231656   4.202   4.000   3.387 -0.1056  0.2423 -0.8200
   33MOL   C87331657   4.156   3.939   3.255  0.3049 -0.3412 -0.4524
   33MOL   C87431658   4.253   3.844   3.183 -0.8386  0.0502  0.5045
   33MOL   C87531659   4.377   3.916   3.116 -0.4460 -0.1392 -0.1595
   33MOL   C87631660   4.463   3.824   3.028  0.1822 -1.1350  0.5394
   33MOL   O87731661   4.583   3.890   2.979 -0.0003 -0.5192 -0.5708
   33MOL   C87831662   4.644   3.845   2.874  0.8791  1.0072 -0.1747
   33MOL   O87931663   4.621   3.735   2.820 -0.1962 -0.4900  0.2968
   33MOL   C88031664   4.759   3.928   2.826  0.5915 -0.1637 -0.3012
   33MOL   C88131665   4.749   4.090   2.833  0.2644  0.4857  0.2426
   33MOL   C88231666   4.628   4.139   2.748  0.7278 -0.3941  0.0067
   33MOL   C88331667   4.630   4.290   2.721  0.3024 -0.2582  0.2014
   33MOL   C88431668   4.717   4.329   2.605  0.1795  0.5513  0.2534
   33MOL   O88531669   4.810   4.413   2.621  0.0919 -0.7592  0.7807
   33MOL   H88631670   3.727   4.326   3.733  0.5503  0.8464  0.9879
   33MOL   H88731671   3.847   4.414   3.664 -1.0690 -1.6095 -1.4942
   33MOL   H88831672   3.854   4.184   3.578 -0.4706 -1.2815  1.2302
   33MOL   H88931673   3.894   4.121   3.734 -0.8173  0.9152  1.6665
   33MOL   H89031674   4.079   4.323   3.603 -2.1948  0.7745 -0.1150
   33MOL   H89131675   4.098   4.257   3.755 -1.0469  0.2473  0.3667
   33MOL   H89231676   4.109   4.022   3.669  0.9738  0.9157  1.6310
   33MOL   H89331677   4.234   4.140   3.612 -0.3798  0.6517 -0.1447
   33MOL   H89431678   4.086   4.175   3.410 -1.4125 -0.6713 -0.8400
   33MOL   H89531679   3.999   4.024   3.454 -1.8335  1.1162 -1.2587
   33MOL   H89631680   4.237   3.914   3.444 -1.8107 -0.7069 -1.1745
   33MOL   H89731681   4.289   4.061   3.364  1.1817 -0.9845  0.6368
   33MOL   H89831682   4.119   4.014   3.186 -1.6274 -0.5181  0.3581
   33MOL   H89931683   4.077   3.879   3.300  0.4310 -0.4792 -0.4112
   33MOL   H90031684   4.197   3.790   3.106  0.9760  0.3627 -1.0786
   33MOL   H90131685   4.287   3.764   3.248 -1.1437 -0.4198  0.0849
   33MOL   H90231686   4.330   3.994   3.057  1.1872  1.3684  0.4472
   33MOL   H90331687   4.437   3.968   3.192 -1.4444 -1.1562  1.3606
   33MOL   H90431688   4.408   3.779   2.945  2.1398 -2.5643 -0.0157
   33MOL   H90531689   4.499   3.738   3.084  1.1374  0.7393  2.8922
   33MOL   H90631690   4.847   3.901   2.885  0.2237 -1.0206 -0.1438
   33MOL   H90731691   4.791   3.892   2.729 -0.0353  1.2949 -1.0635
   33MOL   H90831692   4.842   4.131   2.794  0.3179 -0.0840 -0.2521
   33MOL   H90931693   4.751   4.127   2.935  1.3647 -0.8465  0.7313
   33MOL   H91031694   4.538   4.115   2.804 -0.5962  1.7960 -1.1112
   33MOL   H91131695   4.610   4.082   2.657 -2.5384  0.2752  0.1752
   33MOL   H91231696   4.656   4.352   2.807 -1.8410 -2.9308  2.8930
   33MOL   H91331697   4.534   4.326   2.684 -0.6228 -3.6121 -0.8583
   33MOL   O91431698   4.679   4.271   2.488  0.0370 -0.3911 -0.0869
   33MOL   C91531699   4.751   4.300   2.371  0.4347  0.4559 -0.4680
   33MOL   C91631700   4.662   4.284   2.244  0.3134  0.1129 -0.5264
   33MOL   C91731701   4.647   4.137   2.197  0.1036  0.1655  0.0114
   33MOL   C91831702   4.525   4.108   2.110 -0.3076 -0.1753 -0.2716
   33MOL   C91931703   4.505   3.965   2.047  0.0561  0.3186 -0.0436
   33MOL   C92031704   4.377   3.977   1.965  0.0855 -0.5674 -0.6736
   33MOL   C92131705   4.328   3.844   1.903  0.8113 -0.4991 -0.5424
   33MOL   C92231706   4.182   3.842   1.846 -0.9475 -0.2440  0.4963
   33MOL   C92331707   4.131   3.707   1.802 -0.5618  0.1143 -0.3055
   33MOL   C92431708   4.060   3.634   1.904 -0.2824  0.2042 -0.5412
   33MOL   O92531709   4.032   3.505   1.854 -0.2958 -0.3283  0.1183
   33MOL   C92631710   4.036   3.398   1.930 -0.6480 -0.3759  0.0700
   33MOL   O92731711   4.075   3.394   2.047 -0.5982 -0.0885  0.1201
   33MOL   C92831712   4.014   3.271   1.851 -0.4789 -0.2922 -0.1263
   33MOL   C92931713   4.011   3.135   1.933  0.6777 -0.7502  0.1723
   33MOL   C93031714   3.875   3.105   2.008  0.3102 -0.0164 -0.5579
   33MOL   C93131715   3.880   3.070   2.160 -0.7012 -0.0910 -0.3912
   33MOL   C93231716   3.925   2.925   2.181 -0.0284  0.3086  0.1779
   33MOL   O93331717   4.025   2.883   2.125 -0.5301  0.4709  0.3299
   33MOL   H93431718   4.775   4.406   2.375  1.8745  0.1080  0.3888
   33MOL   H93531719   4.845   4.247   2.358 -0.8699 -1.0766 -4.3407
   33MOL   H93631720   4.716   4.335   2.164  0.1197 -2.4328 -2.3274
   33MOL   H93731721   4.564   4.329   2.264  0.4917 -0.3410  1.4153
   33MOL   H93831722   4.734   4.113   2.136 -1.0074  0.0808 -1.5342
   33MOL   H93931723   4.648   4.067   2.281  0.6466 -0.3099 -0.3907
   33MOL   H94031724   4.541   4.169   2.021 -0.0813 -0.0707 -0.1601
   33MOL   H94131725   4.435   4.136   2.164 -1.2198 -1.9879 -0.8118
   33MOL   H94231726   4.491   3.887   2.122 -0.0761  0.1147 -0.2824
   33MOL   H94331727   4.589   3.939   1.984  1.1751 -2.0600  2.3277
   33MOL   H94431728   4.375   4.058   1.892 -1.2394 -1.7432 -1.9638
   33MOL   H94531729   4.304   4.013   2.038  0.9159 -1.2478  0.4991
   33MOL   H94631730   4.325   3.770   1.983 -0.1562  0.4118  0.2850
   33MOL   H94731731   4.394   3.812   1.822 -0.7636 -1.9191 -1.2872
   33MOL   H94831732   4.196   3.899   1.754  0.4552  0.5231  1.1653
   33MOL   H94931733   4.109   3.896   1.906  0.3199  2.4884 -0.3297
   33MOL   H95031734   4.080   3.736   1.710  2.9077  1.8909 -1.7618
   33MOL   H95131735   4.215   3.646   1.769  0.8053  1.4907  0.5559
   33MOL   H95231736   3.962   3.675   1.929  0.1558  0.5994  0.5511
   33MOL   H95331737   4.121   3.637   1.994 -2.5592 -1.5862  1.1550
   33MOL   H95431738   3.920   3.280   1.797  1.0227  1.4397 -2.5567
   33MOL   H95531739   4.098   3.267   1.781 -1.1110 -2.3439 -0.8072
   33MOL   H95631740   4.095   3.117   2.000 -1.1196 -2.0418  2.1500
   33MOL   H95731741   4.006   3.053   1.861  0.5526  0.6276 -1.4255
   33MOL   H95831742   3.820   3.031   1.949 -2.1007  0.5064  0.9482
   33MOL   H95931743   3.813   3.194   2.007 -0.7648 -0.7508 -0.6324
   33MOL   H96031744   3.780   3.074   2.204 -1.3546  1.8080 -1.9781
   33MOL   H96131745   3.944   3.141   2.212  2.2434 -1.7509 -1.6469
   33MOL   H96231746   3.886   2.862   2.261  0.4645  2.4157  2.1363
   34MOL     O131747   3.771   5.083   4.371  0.7345 -0.4757  0.1086
   34MOL     C231748   3.715   5.204   4.328 -0.1922  0.9696  0.0611
   34MOL     C331749   3.824   5.318   4.325 -0.0363 -0.1326  0.9723
   34MOL     C431750   3.918   5.291   4.208 -0.2227 -0.0117  0.0763
   34MOL     C531751   4.018   5.410   4.196  0.1248 -0.4169  0.0220
   34MOL     C631752   4.126   5.416   4.309 -0.0869 -0.7422 -0.1266
   34MOL     C731753   4.226   5.534   4.281 -0.5369 -0.1287  0.4501
   34MOL     C831754   4.339   5.555   4.375 -0.6165 -0.3583 -0.6973
   34MOL     C931755   4.297   5.616   4.512  0.5419 -0.0073 -0.4900
   34MOL    C1031756   4.417   5.663   4.589 -0.3235  0.4858  0.5229
   34MOL    C1131757   4.375   5.678   4.730  0.2114 -0.5756 -0.0104
   34MOL    O1231758   4.483   5.723   4.815 -0.3207 -0.3208 -0.1798
   34MOL    C1331759   4.463   5.761   4.944  0.3260  0.8934  0.2325
   34MOL    O1431760   4.354   5.756   4.999  1.1089  0.3470 -0.7504
   34MOL    C1531761   4.589   5.816   5.012 -0.4241 -0.0660 -0.4764
   34MOL    C1631762   4.575   5.962   5.072 -0.0994  0.2587  0.4083
   34MOL    C1731763   4.538   5.962   5.222  0.1413 -0.0115 -0.3779
   34MOL    C1831764   4.492   6.093   5.293  0.2395 -0.0043  0.0973
   34MOL    C1931765   4.359   6.154   5.255 -0.6614  0.2064 -0.3872
   34MOL    O2031766   4.333   6.263   5.294 -0.7765 -0.0578 -0.0075
   34MOL    H2131767   3.660   5.190   4.235  1.0281 -0.2744 -0.4876
   34MOL    H2231768   3.637   5.240   4.396 -2.6382 -0.7057 -1.7956
   34MOL    H2331769   3.880   5.318   4.419  0.8364  1.6464  0.4664
   34MOL    H2431770   3.771   5.413   4.314 -0.2352 -0.2843  0.6395
   34MOL    H2531771   3.971   5.198   4.225 -0.0482 -0.4952 -2.8285
   34MOL    H2631772   3.876   5.261   4.112  1.3437  2.9340 -1.6238
   34MOL    H2731773   3.967   5.505   4.181  0.9137  0.2984  1.6682
   34MOL    H2831774   4.073   5.392   4.104 -0.4584 -0.0161 -0.4058
   34MOL    H2931775   4.180   5.322   4.324 -0.1021 -0.7009  0.1880
   34MOL    H3031776   4.086   5.456   4.401  1.1814  0.9265 -0.2605
   34MOL    H3131777   4.162   5.622   4.281 -0.9416 -0.4019  2.6020
   34MOL    H3231778   4.258   5.523   4.178  1.4891  1.9814  0.8163
   34MOL    H3331779   4.406   5.625   4.326 -1.0126  0.5502  0.0272
   34MOL    H3431780   4.395   5.464   4.395  2.5558  1.4057 -1.3445
   34MOL    H3531781   4.231   5.548   4.565 -0.9681  3.2270  1.8749
   34MOL    H3631782   4.236   5.703   4.490  0.4898  0.2272  0.5745
   34MOL    H3731783   4.498   5.593   4.568 -0.5319  0.4703 -0.2388
   34MOL    H3831784   4.457   5.758   4.555 -1.2767  0.3289 -1.0781
   34MOL    H3931785   4.344   5.590   4.787  2.8146 -1.5910 -0.0998
   34MOL    H4031786   4.291   5.746   4.741  1.1513  0.6164 -0.1600
   34MOL    H4131787   4.615   5.744   5.090 -0.1234  0.8002  0.2317
   34MOL    H4231788   4.663   5.824   4.933 -1.6106 -0.0773 -1.6050
   34MOL    H4331789   4.486   6.002   5.024 -0.9458 -1.9293  0.0672
   34MOL    H4431790   4.652   6.036   5.051 -0.2607  0.1403 -0.6380
   34MOL    H4531791   4.621   5.924   5.281  1.5155  2.2560 -0.7922
   34MOL    H4631792   4.456   5.891   5.227  0.0731  0.1741  1.7913
   34MOL    H4731793   4.571   6.168   5.282 -0.3501  0.5407 -0.4902
   34MOL    H4831794   4.490   6.064   5.398  0.2117  0.9951  0.3772
   34MOL    H4931795   3.823   5.050   4.299  1.9883  2.4631 -0.4055
   34MOL    O5031796   4.297   6.082   5.164  0.1782 -0.1791  0.0354
   34MOL    C5131797   4.200   6.149   5.096 -0.1202  0.1371  0.0553
   34MOL    C5231798   4.123   6.050   4.998 -0.1976 -0.1501 -0.3773
   34MOL    C5331799   4.125   6.080   4.848 -0.0388 -0.4868 -0.2955
   34MOL    C5431800   4.049   5.970   4.765 -0.5692  0.6053 -0.3201
   34MOL    C5531801   4.076   5.983   4.616  0.3761 -0.4681 -0.3108
   34MOL    C5631802   4.000   5.886   4.519 -0.0053  0.9765 -0.2100
   34MOL    C5731803   4.037   5.913   4.377  0.5871 -0.7597  0.7589
   34MOL    C5831804   3.958   5.836   4.274 -0.3099 -0.1817 -0.1495
   34MOL    C5931805   3.991   5.876   4.132 -0.0613 -0.2607  0.0486
   34MOL    C6031806   3.914   5.796   4.026  0.0790  0.2777 -0.1921
   34MOL    O6131807   3.774   5.806   4.049 -0.2142 -0.1375 -0.4023
   34MOL    C6231808   3.693   5.784   3.937  0.3260 -0.3457 -0.0546
   34MOL    O6331809   3.725   5.768   3.818 -0.0432 -0.7471  0.1279
   34MOL    C6431810   3.547   5.792   3.967 -0.1472 -0.8305  0.0544
   34MOL    C6531811   3.471   5.664   3.967  0.1316  0.0616 -0.0755
   34MOL    C6631812   3.327   5.681   4.014  0.2797 -0.7457  0.3841
   34MOL    C6731813   3.314   5.704   4.170  0.0069  0.2030 -0.1504
   34MOL    C6831814   3.323   5.578   4.262 -0.2513 -0.3227 -0.5586
   34MOL    O6931815   3.435   5.533   4.284  0.1513  0.0130  0.0070
   34MOL    H7031816   4.149   6.208   5.171  0.2386  0.2663  0.1982
   34MOL    H7131817   4.253   6.232   5.049  0.1654  0.9049  1.7014
   34MOL    H7231818   4.021   6.037   5.034  0.7046 -1.2153  1.8762
   34MOL    H7331819   4.173   5.953   5.007  1.8650  0.8376 -0.8169
   34MOL    H7431820   4.091   6.181   4.824 -1.5152 -0.7876  0.4772
   34MOL    H7531821   4.231   6.072   4.824  0.0512 -3.4817  0.9324
   34MOL    H7631822   3.944   5.968   4.790 -0.6072  1.4772 -0.3999
   34MOL    H7731823   4.075   5.870   4.800 -0.7140  1.0776  1.1675
   34MOL    H7831824   4.181   6.001   4.592 -0.5134  2.7994 -2.1278
   34MOL    H7931825   4.035   6.080   4.588  0.6565  0.0982  1.2021
   34MOL    H8031826   3.893   5.893   4.535  0.0178  0.3795  0.2190
   34MOL    H8131827   4.034   5.785   4.545  0.0135  1.4184  1.5559
   34MOL    H8231828   4.145   5.902   4.369  0.8969  1.2933  1.7118
   34MOL    H8331829   4.015   6.019   4.363  1.2280 -0.5332  1.4605
   34MOL    H8431830   3.850   5.846   4.290 -0.2934 -0.8789  0.3774
   34MOL    H8531831   3.962   5.729   4.293 -0.6837  0.0257  1.1733
   34MOL    H8631832   3.973   5.980   4.108 -1.3723 -1.2371 -3.4813
   34MOL    H8731833   4.096   5.850   4.119 -0.0582 -0.9729  1.3737
   34MOL    H8831834   3.952   5.694   4.016 -1.1345 -0.1501 -0.5669
   34MOL    H8931835   3.946   5.837   3.930  0.4165 -0.6064 -0.4575
   34MOL    H9031836   3.540   5.836   4.067  1.2897  1.0801 -0.6463
   34MOL    H9131837   3.500   5.854   3.891 -1.9887 -1.2348  0.8387
   34MOL    H9231838   3.525   5.590   4.027  0.0552 -0.8487 -1.1205
   34MOL    H9331839   3.480   5.627   3.865  1.5176  2.2804 -0.8024
   34MOL    H9431840   3.280   5.590   3.977  0.6380 -1.2745  1.2168
   34MOL    H9531841   3.289   5.761   3.950 -0.0011 -1.2004 -0.0137
   34MOL    H9631842   3.222   5.757   4.195  0.2263  0.0711  0.9480
   34MOL    H9731843   3.389   5.776   4.204  1.9212 -1.1406 -1.4367
   34MOL    O9831844   3.201   5.531   4.293 -0.3417  0.5400  0.3675
   34MOL    C9931845   3.200   5.389   4.338 -0.0152  0.1235  0.1009
   34MOL   C10031846   3.088   5.366   4.434  0.0380 -0.5360  0.2094
   34MOL   C10131847   3.093   5.457   4.567 -0.6853  0.9063  0.6092
   34MOL   C10231848   2.969   5.432   4.663 -0.7463  0.0751  0.8755
   34MOL   C10331849   2.979   5.522   4.787 -0.5355  0.7641  0.1814
   34MOL   C10431850   2.883   5.479   4.888  0.1140  0.0447  0.7498
   34MOL   C10531851   2.876   5.586   5.002  0.1604  0.7013  0.1258
   34MOL   C10631852   2.793   5.550   5.122  0.3836 -0.0990 -0.4418
   34MOL   C10731853   2.642   5.533   5.105 -0.6437  0.4847  0.0156
   34MOL   C10831854   2.575   5.511   5.239  0.0191 -0.0741  0.7169
   34MOL   O10931855   2.437   5.495   5.226 -0.1159  0.8755  0.4668
   34MOL   C11031856   2.371   5.381   5.270 -0.6165 -0.1434  0.1510
   34MOL   O11131857   2.420   5.278   5.318 -0.9132  0.4173 -0.5105
   34MOL   C11231858   2.222   5.395   5.256  0.2567 -0.1185 -0.0761
   34MOL   C11331859   2.162   5.412   5.399  0.0185  0.2262  0.4279
   34MOL   C11431860   2.160   5.295   5.501  0.2106 -0.0738  0.0561
   34MOL   C11531861   2.111   5.348   5.639 -0.4056  0.8438 -0.1513
   34MOL   C11631862   2.134   5.249   5.749  0.1225 -0.7998  0.5377
   34MOL   O11731863   2.222   5.263   5.837 -0.0564 -0.1745  0.2263
   34MOL   H11831864   3.206   5.310   4.263 -0.4534 -0.4078  0.6199
   34MOL   H11931865   3.290   5.385   4.399 -1.5021 -2.4705  2.2956
   34MOL   H12031866   3.085   5.259   4.459 -1.6938 -0.6532 -0.4391
   34MOL   H12131867   2.998   5.388   4.377  0.6952  0.5646 -0.4074
   34MOL   H12231868   3.187   5.452   4.623 -1.1598  0.6554  1.3791
   34MOL   H12331869   3.093   5.558   4.525  2.7933 -0.1039 -2.0684
   34MOL   H12431870   2.975   5.329   4.700  1.5199 -0.4295 -0.7653
   34MOL   H12531871   2.877   5.456   4.609 -0.0967 -0.1995 -0.3847
   34MOL   H12631872   2.964   5.629   4.768  2.3048  1.4295  1.3772
   34MOL   H12731873   3.081   5.511   4.824 -0.4412  0.9746 -0.0123
   34MOL   H12831874   2.897   5.377   4.923 -3.3351  0.1656  2.7401
   34MOL   H12931875   2.779   5.474   4.855  0.8458  0.9198 -1.8596
   34MOL   H13031876   2.850   5.684   4.962 -1.2323 -0.2711 -1.3949
   34MOL   H13131877   2.980   5.595   5.033 -0.3572  1.9692  1.5085
   34MOL   H13231878   2.812   5.623   5.201 -2.8282 -1.1874  1.4472
   34MOL   H13331879   2.824   5.452   5.157  0.3903 -1.2330 -3.5054
   34MOL   H13431880   2.598   5.623   5.063 -0.1933  0.2860 -0.8898
   34MOL   H13531881   2.623   5.447   5.040 -0.3681  0.1289  0.4063
   34MOL   H13631882   2.586   5.612   5.277 -0.5935  0.0568  0.5576
   34MOL   H13731883   2.622   5.446   5.313 -0.5196  0.1387  1.2484
   34MOL   H13831884   2.195   5.471   5.183  0.3996 -1.2836 -1.3721
   34MOL   H13931885   2.195   5.297   5.215 -1.4339  0.7336 -1.0440
   34MOL   H14031886   2.067   5.464   5.381 -0.8980 -1.1341  1.2383
   34MOL   H14131887   2.215   5.496   5.444 -2.1668  0.8258  1.9944
   34MOL   H14231888   2.268   5.277   5.505  0.0533 -1.0128  0.0771
   34MOL   H14331889   2.115   5.202   5.467  1.3120 -1.9375  3.4922
   34MOL   H14431890   2.006   5.369   5.657 -0.7747 -0.7597 -0.3441
   34MOL   H14531891   2.157   5.443   5.666 -0.4394  0.8440 -0.0961
   34MOL   O14631892   2.037   5.151   5.749 -0.6506  0.3164  0.4420
   34MOL   C14731893   2.031   5.061   5.860 -0.1183  0.2060 -0.6138
   34MOL   C14831894   1.933   4.953   5.852 -0.3591 -0.3621 -0.7164
   34MOL   C14931895   1.791   5.008   5.881  0.2046 -0.3971 -0.1646
   34MOL   C15031896   1.682   4.898   5.893  0.3696 -0.7082 -0.3012
   34MOL   C15131897   1.692   4.786   5.778 -0.1984  0.4356 -0.4233
   34MOL   C15231898   1.595   4.667   5.793 -0.6764  0.3971 -0.1761
   34MOL   C15331899   1.442   4.711   5.784  0.5487 -0.3813  0.0059
   34MOL   C15431900   1.342   4.591   5.794  0.1334  0.5728  0.1120
   34MOL   C15531901   1.203   4.619   5.746  0.0271 -0.6377 -0.0179
   34MOL   C15631902   1.121   4.496   5.790  0.3827 -0.6110 -0.0105
   34MOL   O15731903   0.978   4.518   5.786  0.2428 -0.0093  0.3142
   34MOL   C15831904   0.910   4.512   5.676 -0.3104  0.5689  0.8563
   34MOL   O15931905   0.967   4.508   5.566 -0.5266  0.2272  0.9804
   34MOL   C16031906   0.758   4.513   5.696 -0.0547 -0.7018 -0.7024
   34MOL   C16131907   0.700   4.373   5.695  0.6460 -0.1647  0.1560
   34MOL   C16231908   0.690   4.305   5.833 -0.1144  0.2505  0.3258
   34MOL   C16331909   0.628   4.163   5.831 -0.4170 -0.9236 -0.7887
   34MOL   C16431910   0.734   4.059   5.789 -0.0450 -0.2957  0.6218
   34MOL   O16531911   0.805   4.001   5.872 -0.0932  0.3550 -0.5847
   34MOL   H16631912   2.132   5.021   5.875 -0.3384 -0.7135 -1.5145
   34MOL   H16731913   2.019   5.114   5.954  0.0794 -0.7777 -0.0331
   34MOL   H16831914   1.957   4.868   5.917  0.8286 -0.9186 -1.8499
   34MOL   H16931915   1.949   4.917   5.750 -1.4261  0.0845 -1.0421
   34MOL   H17031916   1.794   5.061   5.977 -0.3121 -2.0571  0.7943
   34MOL   H17131917   1.756   5.086   5.814  0.3111  0.7193  1.0725
   34MOL   H17231918   1.584   4.946   5.893  1.3710  1.3840  1.3863
   34MOL   H17331919   1.692   4.848   5.989  1.8300 -1.4078 -0.8103
   34MOL   H17431920   1.796   4.752   5.780 -0.6766 -1.0883 -1.0530
   34MOL   H17531921   1.673   4.832   5.681  2.1283 -3.5066 -2.8804
   34MOL   H17631922   1.612   4.606   5.882 -1.1501  2.4970  1.3982
   34MOL   H17731923   1.612   4.601   5.708 -1.4581 -0.9215  0.6630
   34MOL   H17831924   1.416   4.765   5.693  1.6195  0.1544  0.0114
   34MOL   H17931925   1.426   4.774   5.872  0.7257 -0.1820 -0.1048
   34MOL   H18031926   1.356   4.548   5.893  2.9401  2.4980  0.5994
   34MOL   H18131927   1.384   4.521   5.722  0.3251 -1.6979  2.3443
   34MOL   H18231928   1.160   4.706   5.795  0.9178 -0.9889  1.4120
   34MOL   H18331929   1.188   4.639   5.640  0.0486 -1.0788 -0.1065
   34MOL   H18431930   1.139   4.480   5.896  0.2356  1.6970  0.3855
   34MOL   H18531931   1.145   4.404   5.737  0.6513  0.5357 -1.9131
   34MOL   H18631932   0.723   4.577   5.778 -0.1307 -1.6339  0.0074
   34MOL   H18731933   0.727   4.562   5.604  2.6357 -0.3695 -1.4760
   34MOL   H18831934   0.766   4.314   5.633  0.9659  0.8076 -0.4409
   34MOL   H18931935   0.606   4.348   5.646  0.9401 -0.5792 -0.1943
   34MOL   H19031936   0.619   4.356   5.898 -1.1896  0.7642 -1.2152
   34MOL   H19131937   0.785   4.308   5.887 -0.4943  1.9359  0.9321
   34MOL   H19231938   0.538   4.158   5.770 -2.8632  0.3019  2.5651
   34MOL   H19331939   0.592   4.148   5.932 -1.8220  0.0577 -1.1398
   34MOL   O19431940   0.755   4.054   5.648 -0.1352 -0.2164  0.3655
   34MOL   C19531941   0.870   3.991   5.592 -0.1902  0.0585 -0.2614
   34MOL   C19631942   0.828   3.883   5.492 -0.5241 -0.8879 -0.6373
   34MOL   C19731943   0.944   3.824   5.410  0.5092  0.3172  0.3368
   34MOL   C19831944   0.888   3.759   5.278 -0.3754  0.2586  0.0878
   34MOL   C19931945   1.004   3.712   5.186  0.6212 -0.0688  0.3431
   34MOL   C20031946   0.945   3.620   5.083  0.4296 -1.0076  0.1488
   34MOL   C20131947   0.878   3.692   4.967  0.3308  0.2340 -0.3355
   34MOL   C20231948   0.792   3.587   4.881 -0.0156 -0.2496 -0.3647
   34MOL   C20331949   0.887   3.498   4.797  0.2005  0.4059 -0.2763
   34MOL   C20431950   0.975   3.568   4.687  0.4497  0.2510 -0.3606
   34MOL   O20531951   0.908   3.626   4.577  0.3525  0.5463  0.0330
   34MOL   C20631952   0.950   3.741   4.525 -0.4026  0.6121 -0.1227
   34MOL   O20731953   1.060   3.792   4.550  0.3306  0.3651  0.5607
   34MOL   C20831954   0.846   3.809   4.434  0.0593 -0.0265 -0.5342
   34MOL   C20931955   0.707   3.827   4.494  0.0021 -0.1352  0.6054
   34MOL   C21031956   0.708   3.933   4.609  1.1367 -0.6295 -0.1464
   34MOL   C21131957   0.572   3.948   4.687  0.5606  0.7093 -0.2586
   34MOL   C21231958   0.579   4.046   4.800 -0.6681 -0.6974 -0.1242
   34MOL   O21331959   0.563   4.002   4.917 -0.0890 -0.0267  0.2925
   34MOL   H21431960   0.922   4.067   5.532  1.1156 -0.1442  0.5870
   34MOL   H21531961   0.935   3.951   5.669 -0.3213 -2.1064 -1.2365
   34MOL   H21631962   0.762   3.935   5.422  0.8856  0.3888 -1.0271
   34MOL   H21731963   0.760   3.808   5.532 -0.6778 -1.5949 -2.1576
   34MOL   H21831964   1.002   3.912   5.384 -1.1750  1.0768 -0.9964
   34MOL   H21931965   1.017   3.761   5.460 -0.0566  0.5013  1.4023
   34MOL   H22031966   0.837   3.835   5.218 -0.3565  1.6444  1.7737
   34MOL   H22131967   0.821   3.679   5.309 -3.7295  2.8857 -0.0888
   34MOL   H22231968   1.074   3.645   5.236  0.5917  0.2665  0.8263
   34MOL   H22331969   1.054   3.799   5.146 -0.1893  1.1107  1.8462
   34MOL   H22431970   0.870   3.556   5.131 -0.6123 -1.7911 -2.4784
   34MOL   H22531971   1.022   3.552   5.048  0.8330 -1.5452  2.0221
   34MOL   H22631972   0.952   3.747   4.909 -0.2806  1.6379  0.1985
   34MOL   H22731973   0.807   3.764   5.007 -0.2068 -0.5932  0.2242
   34MOL   H22831974   0.734   3.646   4.809 -1.8394 -0.8628  0.5807
   34MOL   H22931975   0.714   3.534   4.935  0.8124 -0.0199  1.0741
   34MOL   H23031976   0.949   3.436   4.862  0.1053 -0.1428 -0.7040
   34MOL   H23131977   0.822   3.429   4.743  0.3892  0.1105 -0.1268
   34MOL   H23231978   1.052   3.499   4.653  0.8342  0.0340  0.9366
   34MOL   H23331979   1.041   3.642   4.733 -0.8883  2.1419 -1.4271
   34MOL   H23431980   0.895   3.897   4.392 -0.1644  2.1393  3.4717
   34MOL   H23531981   0.842   3.740   4.350  1.6833 -2.4429  1.3017
   34MOL   H23631982   0.659   3.734   4.525  1.5910 -1.1624  0.0352
   34MOL   H23731983   0.639   3.862   4.416  2.0467  2.2085 -0.1967
   34MOL   H23831984   0.734   4.034   4.577  0.8240 -0.2793  0.6694
   34MOL   H23931985   0.775   3.910   4.692 -1.1285 -1.0817  1.6179
   34MOL   H24031986   0.553   3.847   4.722  1.1430  0.7551  0.2001
   34MOL   H24131987   0.499   3.988   4.617  0.3615 -0.3704 -0.6911
   34MOL   O24231988   0.612   4.162   4.755 -0.8120 -0.8492  0.2960
   34MOL   C24331989   0.634   4.277   4.834 -0.6811 -0.4576  0.0800
   34MOL   C24431990   0.778   4.275   4.905  0.0051 -0.5471  0.1931
   34MOL   C24531991   0.875   4.273   4.787  0.9782  0.0564 -0.2530
   34MOL   C24631992   1.020   4.278   4.838  0.2319 -0.4565 -0.2358
   34MOL   C24731993   1.135   4.258   4.736  0.0270  0.3924  0.1649
   34MOL   C24831994   1.263   4.220   4.818  0.1969  0.4102 -0.2099
   34MOL   C24931995   1.379   4.169   4.725  0.3498 -0.9998 -0.2257
   34MOL   C25031996   1.346   4.031   4.666 -0.1701 -0.3135 -0.0149
   34MOL   C25131997   1.474   3.980   4.592  0.1543 -0.0531  0.9112
   34MOL   C25231998   1.454   3.847   4.520  0.3889 -0.1496 -0.2153
   34MOL   O25331999   1.570   3.801   4.455 -0.0914 -0.2449 -0.3703
   34MOL   C25432000   1.586   3.667   4.433 -0.6293 -0.7383  0.2045
   34MOL   O25532001   1.502   3.577   4.446  0.2456  0.2429 -0.5885
   34MOL   C25632002   1.728   3.635   4.388 -0.5304 -0.4564 -0.4067
   34MOL   C25732003   1.743   3.645   4.239  0.8539  0.1454  0.8459
   34MOL   C25832004   1.702   3.517   4.156  0.0676 -0.4430  0.2198
   34MOL   C25932005   1.755   3.529   4.015  0.4428  0.5970 -0.4164
   34MOL   C26032006   1.680   3.454   3.913  0.7921  0.6406 -0.4851
   34MOL   O26132007   1.653   3.335   3.923 -0.5619 -0.4333  0.0913
   34MOL   H26232008   0.613   4.370   4.781 -2.7904 -0.2810  1.1598
   34MOL   H26332009   0.552   4.273   4.906  0.1706  0.1817  1.1011
   34MOL   H26432010   0.788   4.186   4.967 -1.9777 -0.6208  0.4483
   34MOL   H26532011   0.795   4.354   4.978 -2.8221  0.8131 -0.5260
   34MOL   H26632012   0.857   4.192   4.716  0.3461 -0.8680  0.9417
   34MOL   H26732013   0.877   4.356   4.716  0.8008  1.1471  1.0155
   34MOL   H26832014   1.039   4.214   4.925 -0.1976  2.2961  1.9658
   34MOL   H26932015   1.035   4.377   4.881 -0.7683 -0.3897 -0.0173
   34MOL   H27032016   1.157   4.349   4.680  0.7300  0.4369  0.5112
   34MOL   H27132017   1.104   4.191   4.657  0.9111  1.6927 -1.3243
   34MOL   H27232018   1.245   4.144   4.894  0.6216 -1.9592 -2.3976
   34MOL   H27332019   1.312   4.295   4.881  0.4589  0.6413 -0.6883
   34MOL   H27432020   1.476   4.169   4.775  0.7995  0.3781 -1.0695
   34MOL   H27532021   1.402   4.250   4.657 -0.3246 -0.1259  0.5672
   34MOL   H27632022   1.261   4.028   4.598  1.0103  0.0148 -1.5098
   34MOL   H27732023   1.332   3.959   4.747  0.2098  0.4216  0.7183
   34MOL   H27832024   1.505   4.058   4.522 -2.1127 -0.4098 -0.5242
   34MOL   H27932025   1.565   3.973   4.651  0.8636  0.3591 -0.1082
   34MOL   H28032026   1.376   3.855   4.444 -0.1479 -1.2956  0.1985
   34MOL   H28132027   1.422   3.773   4.594 -0.3694  1.1583  0.7905
   34MOL   H28232028   1.790   3.708   4.441 -1.5014  1.0123 -1.2653
   34MOL   H28332029   1.768   3.540   4.424 -1.0826 -0.3577  0.4930
   34MOL   H28432030   1.849   3.665   4.221  0.6301  0.1685 -0.5540
   34MOL   H28532031   1.683   3.729   4.204 -1.0611 -1.9027 -0.9733
   34MOL   H28632032   1.594   3.499   4.154  0.2302 -1.3767 -0.4766
   34MOL   H28732033   1.750   3.427   4.194 -0.6632 -1.1760 -0.5765
   34MOL   H28832034   1.856   3.490   4.023 -0.5702 -1.7615  1.5521
   34MOL   H28932035   1.765   3.636   3.993 -1.6214  0.4809 -2.0992
   34MOL   O29032036   1.632   3.534   3.814  0.1594 -0.1137  0.4403
   34MOL   C29132037   1.573   3.465   3.704  0.0785  0.5000  0.1952
   34MOL   C29232038   1.598   3.543   3.581  0.1987 -0.2692 -0.0855
   34MOL   C29332039   1.564   3.468   3.453 -0.4886  0.8630 -0.2795
   34MOL   C29432040   1.414   3.439   3.431 -0.0413  0.1317 -0.7101
   34MOL   C29532041   1.376   3.363   3.294 -0.4257  0.5240  0.1208
   34MOL   C29632042   1.230   3.323   3.283  0.6330  0.4593 -0.0245
   34MOL   C29732043   1.177   3.283   3.142  0.2878 -0.2541  0.1145
   34MOL   C29832044   1.183   3.402   3.031  0.6960 -0.0551  0.2388
   34MOL   C29932045   1.097   3.521   3.075 -0.8324 -0.9957 -0.2850
   34MOL   C30032046   1.104   3.646   2.987  0.3236 -0.2431 -0.4184
   34MOL   O30132047   1.072   3.755   3.080 -0.6134 -0.1812  0.1107
   34MOL   C30232048   1.051   3.884   3.031 -0.0079 -0.2467 -0.0740
   34MOL   O30332049   1.055   3.913   2.908  0.6753 -0.4301 -0.0860
   34MOL   C30432050   1.038   3.993   3.144 -0.1385  1.0528  0.3089
   34MOL   C30532051   1.142   4.099   3.112 -0.0379 -0.6931 -1.0220
   34MOL   C30632052   1.132   4.239   3.175 -0.2634 -0.6342 -0.2268
   34MOL   C30732053   1.113   4.258   3.319 -0.7052  0.0966  0.1796
   34MOL   C30832054   1.229   4.214   3.405 -0.6891 -0.0568 -0.4366
   34MOL   O30932055   1.301   4.304   3.460 -0.1765  0.4401  0.0178
   34MOL   H31032056   1.607   3.363   3.683  0.0145  0.8527 -1.7005
   34MOL   H31132057   1.465   3.464   3.719 -0.0372 -1.7648 -0.5125
   34MOL   H31232058   1.706   3.555   3.582  0.1524  0.2608  2.6142
   34MOL   H31332059   1.550   3.640   3.595  0.2715 -0.4104  1.1972
   34MOL   H31432060   1.603   3.536   3.378 -0.0676  0.6209 -0.2800
   34MOL   H31532061   1.624   3.379   3.438 -0.1587  0.9424  0.5484
   34MOL   H31632062   1.359   3.533   3.429  2.0958  1.4466  0.4257
   34MOL   H31732063   1.371   3.377   3.509 -1.4614 -0.3111 -1.8302
   34MOL   H31832064   1.439   3.276   3.278 -0.0797  0.6176  0.9330
   34MOL   H31932065   1.417   3.434   3.223  0.0002  0.2525  0.0894
   34MOL   H32032066   1.162   3.397   3.325  0.0777 -1.0547  1.8242
   34MOL   H32132067   1.225   3.238   3.352  2.6276 -0.6823 -1.2369
   34MOL   H32232068   1.073   3.252   3.148  0.4214 -0.7826 -0.2904
   34MOL   H32332069   1.231   3.197   3.104  0.4527 -1.3033  2.6411
   34MOL   H32432070   1.152   3.356   2.937  2.9522  0.6993 -0.8870
   34MOL   H32532071   1.286   3.434   3.017  1.0754  0.4990  3.7276
   34MOL   H32632072   0.993   3.493   3.091 -1.1752  0.9707  1.1919
   34MOL   H32732073   1.141   3.549   3.171  0.7986 -1.5741 -0.8564
   34MOL   H32832074   1.031   3.644   2.906  0.1703 -3.6397 -0.2521
   34MOL   H32932075   1.194   3.652   2.927  2.0768 -1.0165  2.0689
   34MOL   H33032076   0.933   4.021   3.142 -0.5522 -0.2463  2.6578
   34MOL   H33132077   1.046   3.950   3.244  0.1189 -0.1722 -0.2323
   34MOL   H33232078   1.151   4.118   3.005 -3.5940  1.0289 -1.0709
   34MOL   H33332079   1.238   4.051   3.133  0.6533  1.5443  1.1076
   34MOL   H33432080   1.053   4.286   3.115  1.8959  2.1621 -1.0073
   34MOL   H33532081   1.214   4.308   3.155  1.0477 -2.0962  0.0795
   34MOL   H33632082   1.016   4.212   3.341 -0.9019 -0.3307 -1.5016
   34MOL   H33732083   1.107   4.366   3.337  3.0027 -0.1087  3.0489
   34MOL   O33832084   1.239   4.081   3.410  0.0167  0.1364 -0.2112
   34MOL   C33932085   1.366   4.031   3.457  0.1588  0.7013  0.2757
   34MOL   C34032086   1.336   3.938   3.577  0.2230 -0.0935  0.2749
   34MOL   C34132087   1.252   3.815   3.527 -1.0384  0.5027  0.3669
   34MOL   C34232088   1.230   3.718   3.641 -0.0182 -0.6021 -0.6223
   34MOL   C34332089   1.124   3.613   3.620  0.4786  0.1041 -0.1269
   34MOL   C34432090   1.093   3.511   3.731 -0.8445  0.0024  0.2456
   34MOL   C34532091   0.996   3.411   3.675  0.0249  0.3097 -0.0373
   34MOL   C34632092   0.961   3.286   3.755 -0.3263 -0.1600 -0.4392
   34MOL   C34732093   0.881   3.183   3.674 -0.6324  1.1959  0.3542
   34MOL   C34832094   0.847   3.065   3.758  0.2647  0.6143  0.5561
   34MOL   O34932095   0.804   2.959   3.677 -0.5856 -0.1139 -0.6503
   34MOL   C35032096   0.680   2.962   3.625  0.6295  0.4958  0.1337
   34MOL   O35132097   0.605   3.056   3.633  0.6712  0.3613 -0.3480
   34MOL   C35232098   0.648   2.841   3.535 -0.0170  0.1778  0.0994
   34MOL   C35332099   0.568   2.728   3.602  0.1667 -0.8364 -0.0196
   34MOL   C35432100   0.416   2.758   3.607  0.2385 -0.3151  0.1150
   34MOL   C35532101   0.328   2.648   3.671  0.4650 -0.1255  0.3073
   34MOL   C35632102   0.282   2.535   3.578 -0.2201 -0.0098  0.0819
   34MOL   O35732103   0.164   2.499   3.576  0.6745 -0.1944  0.1431
   34MOL   H35832104   1.408   3.965   3.380 -1.4555  1.1241 -1.0030
   34MOL   H35932105   1.440   4.108   3.475  0.5817 -0.1238  2.1743
   34MOL   H36032106   1.270   3.987   3.648 -0.4367 -0.0136 -0.3876
   34MOL   H36132107   1.427   3.906   3.627 -0.1540 -1.1196  0.3316
   34MOL   H36232108   1.159   3.864   3.498 -1.0288 -0.2711 -0.9863
   34MOL   H36332109   1.308   3.767   3.447 -0.4738  1.0532  0.4276
   34MOL   H36432110   1.215   3.776   3.732 -0.2680  0.1463 -1.1366
   34MOL   H36532111   1.319   3.665   3.676 -1.0491 -1.3085  1.0491
   34MOL   H36632112   1.157   3.557   3.532 -1.6760 -0.7172 -0.4393
   34MOL   H36732113   1.034   3.670   3.598  0.6120  0.2118 -0.4081
   34MOL   H36832114   1.052   3.566   3.816 -0.5191  0.8787 -0.1636
   34MOL   H36932115   1.188   3.464   3.757  0.7959  1.9713 -1.9866
   34MOL   H37032116   1.041   3.372   3.584  0.8908 -0.9742  0.9157
   34MOL   H37132117   0.902   3.455   3.642 -0.1740 -1.4799 -1.9162
   34MOL   H37232118   0.903   3.322   3.840 -0.8256  0.5094 -1.0565
   34MOL   H37332119   1.055   3.246   3.793 -0.1819  0.0440 -0.5787
   34MOL   H37432120   0.793   3.225   3.626  1.3756  1.7501 -2.9920
   34MOL   H37532121   0.931   3.148   3.584 -1.8361  1.0134 -0.2607
   34MOL   H37632122   0.769   3.092   3.829 -0.9004 -1.6305  0.1698
   34MOL   H37732123   0.934   3.029   3.814 -0.0059  2.2800  2.1164
   34MOL   H37832124   0.577   2.871   3.458 -1.0338 -0.1723  0.8880
   34MOL   H37932125   0.743   2.808   3.493 -0.2780 -0.6809  0.1769
   34MOL   H38032126   0.605   2.706   3.702  0.6752  1.1690  0.2533
   34MOL   H38132127   0.572   2.630   3.554 -1.6036 -1.0318  0.2160
   34MOL   H38232128   0.395   2.791   3.505  1.7831  0.8729  0.1512
   34MOL   H38332129   0.400   2.848   3.667 -0.1771  1.4495 -2.5352
   34MOL   H38432130   0.231   2.682   3.708 -0.0299 -0.8996 -0.2511
   34MOL   H38532131   0.380   2.611   3.759  2.3872 -1.1489 -1.2137
   34MOL   O38632132   0.381   2.485   3.504 -0.1595 -0.3960  0.6243
   34MOL   C38732133   0.358   2.372   3.418 -0.3590 -0.3775 -0.4718
   34MOL   C38832134   0.440   2.256   3.467 -0.1926  0.2840 -0.3461
   34MOL   C38932135   0.438   2.153   3.357  0.0395  0.4458  0.1827
   34MOL   C39032136   0.531   2.033   3.385  0.3753  0.0080  0.0756
   34MOL   C39132137   0.494   1.911   3.290  0.7100 -0.3583  0.0070
   34MOL   C39232138   0.593   1.791   3.307  0.9925  0.2342  0.2519
   34MOL   C39332139   0.733   1.815   3.236 -0.0086  0.0418 -0.0445
   34MOL   C39432140   0.719   1.824   3.086  0.0088  0.0940  0.2460
   34MOL   C39532141   0.834   1.896   3.017  0.3429 -0.7398  0.1350
   34MOL   C39632142   0.830   2.045   3.032  0.4375 -0.1779 -0.2940
   34MOL   O39732143   0.863   2.112   3.161  0.2684 -0.6494  0.1796
   34MOL   C39832144   0.840   2.245   3.169  0.0413  0.1525 -0.0445
   34MOL   O39932145   0.798   2.319   3.084 -0.3415  0.0397 -0.0435
   34MOL   C40032146   0.851   2.291   3.313  0.2455  0.0258 -0.4307
   34MOL   C40132147   0.801   2.427   3.348  0.0287  0.2571 -0.4532
   34MOL   C40232148   0.802   2.478   3.492  0.0603 -0.4797 -0.4289
   34MOL   C40332149   0.930   2.470   3.564  0.0131  0.1420 -0.2374
   34MOL   C40432150   1.043   2.546   3.504  0.6098 -0.3973  0.7372
   34MOL   O40532151   1.131   2.496   3.434 -0.3251  0.3204 -0.0785
   34MOL   H40632152   0.256   2.335   3.424 -0.2871 -0.4419  0.3745
   34MOL   H40732153   0.370   2.404   3.314 -1.2258  1.2412 -0.1071
   34MOL   H40832154   0.396   2.199   3.549 -1.1013  0.3539 -0.7711
   34MOL   H40932155   0.545   2.277   3.487  0.3406 -1.1589 -1.4685
   34MOL   H41032156   0.334   2.121   3.356  0.6674 -1.6765 -1.4560
   34MOL   H41132157   0.445   2.191   3.255  2.2724  0.7270  0.4072
   34MOL   H41232158   0.513   2.002   3.488 -0.7977 -2.6250 -0.8588
   34MOL   H41332159   0.632   2.065   3.362  0.9293 -1.0051  1.0984
   34MOL   H41432160   0.480   1.950   3.189 -0.3268 -2.0875 -0.5222
   34MOL   H41532161   0.399   1.876   3.329 -0.3064  0.6937 -1.4661
   34MOL   H41632162   0.547   1.695   3.287 -1.2655  1.1505  0.9023
   34MOL   H41732163   0.616   1.792   3.413  0.0598  1.3334  0.4554
   34MOL   H41832164   0.800   1.730   3.251  3.8778  2.7259 -1.6592
   34MOL   H41932165   0.785   1.902   3.275 -0.5241 -0.2698  1.3608
   34MOL   H42032166   0.627   1.864   3.045  1.1860  2.2099 -0.4330
   34MOL   H42132167   0.713   1.721   3.050 -1.4976  0.0241  0.6924
   34MOL   H42232168   0.931   1.856   3.045  0.2284 -1.3686 -0.3633
   34MOL   H42332169   0.834   1.869   2.912  1.3096  2.1945 -0.6740
   34MOL   H42432170   0.736   2.089   2.998 -0.7676 -0.3717  2.6328
   34MOL   H42532171   0.902   2.088   2.963 -0.0311  0.3901 -0.4350
   34MOL   H42632172   0.783   2.223   3.365  0.9305 -1.0152 -0.8847
   34MOL   H42732173   0.953   2.281   3.349  1.3236 -0.2556 -3.4768
   34MOL   H42832174   0.698   2.432   3.311  0.1365 -0.1483 -0.8078
   34MOL   H42932175   0.854   2.502   3.289 -0.8575  2.1327  1.0732
   34MOL   H43032176   0.735   2.421   3.557  1.1018 -0.8200  0.3673
   34MOL   H43132177   0.760   2.579   3.497 -0.4682 -0.7890  3.1102
   34MOL   H43232178   0.952   2.363   3.570  0.4218  0.1291 -1.8000
   34MOL   H43332179   0.921   2.506   3.667  1.4371 -1.0715  0.3256
   34MOL   O43432180   1.037   2.673   3.539  0.1644 -0.5088  0.3476
   34MOL   C43532181   1.152   2.758   3.504 -0.4457  0.1093  0.1510
   34MOL   C43632182   1.156   2.887   3.591 -0.6932 -0.5690  0.2554
   34MOL   C43732183   1.273   2.988   3.576  0.2986  0.4669 -0.2355
   34MOL   C43832184   1.410   2.931   3.570 -0.4067  0.1315 -0.4000
   34MOL   C43932185   1.514   3.041   3.593 -0.6231 -0.4489 -0.4401
   34MOL   C44032186   1.649   2.986   3.572 -0.5199 -0.6522  0.3313
   34MOL   C44132187   1.770   3.080   3.592 -0.7474 -0.4779  0.2754
   34MOL   C44232188   1.907   3.017   3.544  0.1754 -0.6983  0.3491
   34MOL   C44332189   1.924   2.980   3.391  0.1795 -0.4962  0.3713
   34MOL   C44432190   2.049   2.887   3.361  1.2553 -0.4102 -0.0804
   34MOL   O44532191   2.032   2.762   3.426  0.1134 -0.0293  0.1863
   34MOL   C44632192   1.986   2.656   3.357  0.1619  0.3738  0.3650
   34MOL   O44732193   1.972   2.647   3.235  0.7733  0.3177  0.4156
   34MOL   C44832194   1.951   2.542   3.448 -0.4083  0.1050  0.1313
   34MOL   C44932195   1.864   2.590   3.563  0.3687 -0.0005  0.2326
   34MOL   C45032196   1.819   2.478   3.659  0.3561  0.8576 -0.2345
   34MOL   C45132197   1.702   2.522   3.748 -0.2594  0.6052  0.3391
   34MOL   C45232198   1.743   2.590   3.880 -0.1013  0.5003  0.0553
   34MOL   O45332199   1.722   2.535   3.989  0.4344 -0.4755  0.1884
   34MOL   H45432200   1.245   2.702   3.507  0.5518  1.7651  1.8549
   34MOL   H45532201   1.143   2.782   3.398 -0.4645  1.8557  0.5210
   34MOL   H45632202   1.157   2.857   3.696  1.3467  1.3423  0.8230
   34MOL   H45732203   1.062   2.942   3.586 -0.1199  0.3870 -0.0169
   34MOL   H45832204   1.252   3.058   3.494 -1.0025  1.9915  1.3445
   34MOL   H45932205   1.262   3.058   3.659 -0.7056 -1.2450  1.1054
   34MOL   H46032206   1.426   2.878   3.475  2.7323  0.5293 -0.1466
   34MOL   H46132207   1.415   2.850   3.643  0.4604  0.7552  0.2326
   34MOL   H46232208   1.500   3.081   3.694 -1.2739 -0.2795 -0.5914
   34MOL   H46332209   1.487   3.118   3.520  2.5076 -0.9177 -2.1635
   34MOL   H46432210   1.654   2.949   3.470  4.1871  0.9140 -0.1409
   34MOL   H46532211   1.664   2.897   3.634 -2.2069 -0.6840  0.7020
   34MOL   H46632212   1.757   3.118   3.693 -1.5793 -0.1952  0.0662
   34MOL   H46732213   1.748   3.168   3.531  0.2840  0.2024  0.8802
   34MOL   H46832214   1.940   2.933   3.605 -1.1289 -1.7970 -0.4279
   34MOL   H46932215   1.985   3.091   3.561 -0.4619 -0.1524  0.8833
   34MOL   H47032216   1.834   2.935   3.349  0.8190  0.2851 -1.8946
   34MOL   H47132217   1.935   3.072   3.333  0.0020 -0.8510 -0.2258
   34MOL   H47232218   2.130   2.938   3.414  1.3806  1.6287 -2.1913
   34MOL   H47332219   2.081   2.873   3.258 -0.4680  0.5063 -0.7656
   34MOL   H47432220   1.912   2.450   3.406  0.5335 -1.2280  2.0783
   34MOL   H47532221   2.047   2.519   3.493  1.2002  1.3919 -2.5295
   34MOL   H47632222   1.773   2.634   3.521  0.1746  0.2354  0.8900
   34MOL   H47732223   1.905   2.671   3.624  1.9789 -0.6919  0.0667
   34MOL   H47832224   1.894   2.437   3.728  0.1432 -0.3881 -0.7315
   34MOL   H47932225   1.775   2.392   3.610  0.3735  0.3675  0.5960
   34MOL   H48032226   1.645   2.430   3.765 -2.3384  1.0827 -3.6004
   34MOL   H48132227   1.643   2.605   3.711 -3.1326 -1.4110  0.1858
   34MOL   O48232228   1.818   2.703   3.869  0.1119 -0.5304 -0.0929
   34MOL   C48332229   1.866   2.765   3.988 -0.0019 -0.3008 -0.5211
   34MOL   C48432230   1.779   2.886   4.028  0.5103 -0.5317 -0.0571
   34MOL   C48532231   1.839   2.957   4.153 -0.4130 -0.1305 -0.2888
   34MOL   C48632232   1.943   3.062   4.134 -0.4910 -0.5494  0.5041
   34MOL   C48732233   1.972   3.138   4.259 -0.0887  0.5114  0.8385
   34MOL   C48832234   2.067   3.255   4.238 -0.0803 -0.3376  0.5080
   34MOL   C48932235   2.131   3.293   4.365 -0.2977  0.2580 -0.3403
   34MOL   C49032236   2.213   3.428   4.350 -0.4377  0.8194  0.5576
   34MOL   C49132237   2.130   3.558   4.350  0.1075  0.3235  0.0013
   34MOL   C49232238   2.212   3.687   4.354  0.9249  0.1658  0.0028
   34MOL   O49332239   2.145   3.790   4.289 -0.2907 -0.2955  0.3966
   34MOL   C49432240   2.050   3.863   4.362  0.1590 -0.0184 -0.0573
   34MOL   O49532241   2.023   3.841   4.481  0.0409  0.0502 -0.4087
   34MOL   C49632242   1.963   3.952   4.276 -0.7458 -0.6543  0.0532
   34MOL   C49732243   1.894   4.061   4.348 -0.2665  0.1742  0.1800
   34MOL   C49832244   1.989   4.170   4.403  0.5803 -0.2433 -0.2364
   34MOL   C49932245   1.908   4.277   4.480 -0.0177 -0.0044 -0.1254
   34MOL   C50032246   1.848   4.225   4.613 -0.0975  0.3973 -0.8820
   34MOL   O50132247   1.727   4.237   4.636  0.3850 -0.1101 -0.2369
   34MOL   H50232248   1.881   2.696   4.071  1.0387 -0.5664 -0.9184
   34MOL   H50332249   1.967   2.803   3.970  0.1622 -0.3156  0.3220
   34MOL   H50432250   1.679   2.853   4.057  1.3235 -0.2722  3.3530
   34MOL   H50532251   1.754   2.965   3.959  0.5994  0.2952  0.8423
   34MOL   H50632252   1.753   3.009   4.198  0.7775 -0.0776  2.0115
   34MOL   H50732253   1.866   2.885   4.229  0.0913  0.0397 -0.3090
   34MOL   H50832254   1.920   3.133   4.055  2.6131 -0.5206 -0.4108
   34MOL   H50932255   2.035   3.012   4.104 -0.8839  0.3591 -2.3323
   34MOL   H51032256   2.012   3.061   4.324 -2.4434  0.2567  2.0242
   34MOL   H51132257   1.877   3.164   4.305 -0.3447  0.1189  0.5373
   34MOL   H51232258   2.005   3.338   4.203 -0.8727 -0.0073  2.5737
   34MOL   H51332259   2.141   3.228   4.162 -1.8481 -1.4654 -0.8603
   34MOL   H51432260   2.195   3.212   4.400 -1.4419 -2.0586 -3.3826
   34MOL   H51532261   2.058   3.307   4.445  2.1701  0.2591  1.9734
   34MOL   H51632262   2.270   3.426   4.257 -2.9677  3.5856 -1.0959
   34MOL   H51732263   2.300   3.426   4.417 -1.2800 -0.7073  1.6458
   34MOL   H51832264   2.084   3.568   4.252  0.5463 -0.4759 -0.2953
   34MOL   H51932265   2.050   3.554   4.424  0.9215 -1.9418  0.7912
   34MOL   H52032266   2.304   3.676   4.296  0.7534  1.1975 -0.4614
   34MOL   H52132267   2.242   3.708   4.456  1.9084 -0.7206 -0.0866
   34MOL   H52232268   2.012   3.988   4.186  1.0127 -0.0041  1.2563
   34MOL   H52332269   1.890   3.879   4.238 -0.0006 -2.5708  2.1955
   34MOL   H52432270   1.830   4.016   4.424 -1.2999  0.8832 -0.2627
   34MOL   H52532271   1.821   4.104   4.279  0.4136  2.1404  0.6663
   34MOL   H52632272   2.031   4.216   4.314  0.1620  0.5902 -0.0148
   34MOL   H52732273   2.068   4.118   4.458  2.1987 -0.5377 -2.7780
   34MOL   H52832274   1.824   4.306   4.417 -2.7961 -0.9189  3.0304
   34MOL   H52932275   1.974   4.359   4.507  1.2470 -1.3512  0.9821
   34MOL   O53032276   1.935   4.150   4.695 -0.7076  0.0342 -0.4609
   34MOL   C53132277   1.885   4.075   4.804 -0.2112 -0.4468  0.3083
   34MOL   C53232278   1.869   3.933   4.760 -1.3092  0.7148  0.4930
   34MOL   C53332279   1.852   3.826   4.875 -0.5939  0.3119 -0.8512
   34MOL   C53432280   1.827   3.694   4.815 -0.2176  0.2475  0.8987
   34MOL   C53532281   1.805   3.593   4.933 -0.6283 -0.0212  0.2129
   34MOL   C53632282   1.760   3.445   4.888 -0.4913  0.9292  0.3504
   34MOL   C53732283   1.764   3.344   5.009 -0.1415 -0.2973  0.3594
   34MOL   C53832284   1.794   3.199   4.973 -0.5183 -1.2191  0.3561
   34MOL   C53932285   1.788   3.101   5.088  0.4606  0.4866  0.1461
   34MOL   C54032286   1.843   2.965   5.060 -0.0375 -0.0705  0.9184
   34MOL   O54132287   1.780   2.901   4.948 -0.0500 -0.1696 -0.4515
   34MOL   C54232288   1.659   2.848   4.953 -0.2836  0.0431  0.3803
   34MOL   O54332289   1.578   2.846   5.048 -0.4403 -0.7702  0.1027
   34MOL   C54432290   1.625   2.783   4.822  0.3425  0.5421  0.4092
   34MOL   C54532291   1.495   2.848   4.761  0.2440 -0.3933  0.2834
   34MOL   C54632292   1.441   2.779   4.634  0.6877 -0.0690  0.6237
   34MOL   C54732293   1.500   2.811   4.498 -0.3680  0.1580  0.0872
   34MOL   C54832294   1.649   2.770   4.477  0.1787  0.7400 -0.0374
   34MOL   O54932295   1.735   2.859   4.485  0.5973 -0.3631  0.2548
   34MOL   H55032296   1.962   4.075   4.881 -0.8154 -1.6086  0.9295
   34MOL   H55132297   1.797   4.121   4.848 -0.4601 -2.6994  2.2950
   34MOL   H55232298   1.963   3.902   4.714 -1.6703  1.6684 -0.9364
   34MOL   H55332299   1.793   3.925   4.682 -0.8381 -1.6862  0.2230
   34MOL   H55432300   1.936   3.822   4.944 -1.1298  0.8397 -0.1650
   34MOL   H55532301   1.770   3.856   4.940 -0.7817 -0.9275 -0.5193
   34MOL   H55632302   1.902   3.657   4.745  0.7998  1.3635  1.3792
   34MOL   H55732303   1.740   3.697   4.748 -1.1196 -0.2865  2.0329
   34MOL   H55832304   1.738   3.630   5.010 -2.0345  0.0733 -1.0209
   34MOL   H55932305   1.899   3.585   4.987  0.6560  1.6017 -1.7132
   34MOL   H56032306   1.838   3.423   4.815 -0.1712  1.3603  0.5587
   34MOL   H56132307   1.662   3.450   4.842  0.1599 -0.6479 -1.2492
   34MOL   H56232308   1.669   3.344   5.063 -1.2636  0.2141 -1.5810
   34MOL   H56332309   1.830   3.365   5.093  0.0352 -1.7256  0.5765
   34MOL   H56432310   1.884   3.179   4.914 -0.5804 -0.2969 -0.0540
   34MOL   H56532311   1.712   3.161   4.912  0.7711 -0.1625 -2.1022
   34MOL   H56632312   1.836   3.145   5.175  0.9443  1.3235 -0.5376
   34MOL   H56732313   1.688   3.098   5.132  0.3692 -0.4244 -0.1236
   34MOL   H56832314   1.845   2.903   5.149  0.4562 -1.0337  0.2412
   34MOL   H56932315   1.945   2.978   5.025  0.1299 -2.5335  0.4539
   34MOL   H57032316   1.707   2.790   4.751 -0.0065  0.8170  0.0274
   34MOL   H57132317   1.616   2.678   4.848 -0.4486  0.6467  0.5769
   34MOL   H57232318   1.508   2.952   4.733 -2.6187  0.1608  0.8225
   34MOL   H57332319   1.422   2.840   4.842 -0.6122  0.1145 -0.4272
   34MOL   H57432320   1.335   2.794   4.618  0.7193  0.7835  1.1583
   34MOL   H57532321   1.445   2.674   4.664 -0.1467  0.1914  1.6587
   34MOL   H57632322   1.491   2.919   4.484  1.7765 -0.0440 -3.6284
   34MOL   H57732323   1.440   2.763   4.421  2.8763  0.1709 -2.5448
   34MOL   O57832324   1.658   2.644   4.435 -0.0419  0.1438 -1.1744
   34MOL   C57932325   1.792   2.587   4.422 -0.4402  0.2279  0.1043
   34MOL   C58032326   1.788   2.435   4.402 -0.0740 -0.2655  0.5387
   34MOL   C58132327   1.741   2.393   4.266 -0.6799  0.8026  0.2120
   34MOL   C58232328   1.733   2.242   4.248 -0.2656 -0.0987 -0.2524
   34MOL   C58332329   1.706   2.194   4.107 -0.0512  0.3628 -0.2367
   34MOL   C58432330   1.687   2.045   4.083  0.1769  0.2143  0.3178
   34MOL   C58532331   1.564   1.979   4.144  0.1785 -0.0531  0.2309
   34MOL   C58632332   1.559   1.833   4.113 -0.1132  0.2091  0.5597
   34MOL   C58732333   1.426   1.762   4.154 -0.2030  0.0091  0.0396
   34MOL   C58832334   1.433   1.610   4.136  0.3217  0.0567  0.4689
   34MOL   O58932335   1.327   1.540   4.208 -0.1419 -0.2060 -0.0005
   34MOL   C59032336   1.302   1.414   4.167  0.4713  0.5977  0.2709
   34MOL   O59132337   1.367   1.338   4.086  0.0122  0.4150 -0.0464
   34MOL   C59232338   1.177   1.366   4.238  0.2295 -0.5004  0.6172
   34MOL   C59332339   1.124   1.225   4.196 -0.2053 -0.4039 -0.5280
   34MOL   C59432340   1.078   1.220   4.052  0.7178 -0.0465 -0.2661
   34MOL   C59532341   0.968   1.116   4.018  0.0537  0.1615  0.3109
   34MOL   C59632342   1.019   0.972   4.025 -0.2385 -0.1229  0.4507
   34MOL   O59732343   0.959   0.892   4.097 -0.1783  0.0880 -0.3153
   34MOL   H59832344   1.855   2.637   4.348 -0.1970 -0.7644 -0.3685
   34MOL   H59932345   1.837   2.587   4.521 -1.3495 -2.1067  0.5386
   34MOL   H60032346   1.726   2.393   4.482 -0.3381 -0.1987  0.3698
   34MOL   H60132347   1.890   2.400   4.417 -0.2465 -1.4835 -1.0542
   34MOL   H60232348   1.642   2.430   4.242 -0.4172  1.5994  0.3592
   34MOL   H60332349   1.810   2.422   4.187 -0.5399 -1.2778 -0.4744
   34MOL   H60432350   1.649   2.213   4.311  1.9393  1.0041  3.3960
   34MOL   H60532351   1.821   2.190   4.286 -0.7528 -1.0967 -0.4850
   34MOL   H60632352   1.797   2.216   4.051 -0.5083  0.5697 -0.9084
   34MOL   H60732353   1.621   2.245   4.060 -0.1579 -0.4339 -0.9331
   34MOL   H60832354   1.770   1.987   4.124  0.7934  1.0873  0.3053
   34MOL   H60932355   1.688   2.030   3.975 -1.8538  0.7899  0.2014
   34MOL   H61032356   1.479   2.036   4.106  1.7652  2.2763  0.0382
   34MOL   H61132357   1.550   2.004   4.249 -1.3537 -0.3188  0.0973
   34MOL   H61232358   1.634   1.795   4.183  0.5547  0.9071  0.2290
   34MOL   H61332359   1.580   1.805   4.010  1.9506 -0.9257  1.2333
   34MOL   H61432360   1.419   1.788   4.260  2.0264 -1.6210  0.6450
   34MOL   H61532361   1.336   1.799   4.105 -0.4602 -1.6431 -0.7610
   34MOL   H61632362   1.526   1.569   4.175 -1.1312 -2.5610  1.3130
   34MOL   H61732363   1.444   1.578   4.032  3.2550  1.2826  0.3669
   34MOL   H61832364   1.179   1.386   4.345 -0.3136 -2.1620  0.9468
   34MOL   H61932365   1.097   1.429   4.199  0.7296  0.2351  0.7707
   34MOL   H62032366   1.052   1.193   4.271  0.5247 -0.7018  0.0528
   34MOL   H62132367   1.201   1.149   4.211 -1.8068 -1.4781  2.9174
   34MOL   H62232368   1.156   1.197   3.980  1.5783 -2.2556  1.3466
   34MOL   H62332369   1.043   1.320   4.025 -0.1812  0.1422  1.5417
   34MOL   H62432370   0.932   1.125   3.916  1.4316  1.2573 -0.1001
   34MOL   H62532371   0.886   1.140   4.085  0.6123 -0.2035  1.1275
   34MOL   O62632372   1.126   0.953   3.953 -0.3535 -0.1734 -0.0776
   34MOL   C62732373   1.180   0.829   3.923 -0.0271 -0.6380 -0.6921
   34MOL   C62832374   1.330   0.838   3.886 -0.2605  0.7203  0.1432
   34MOL   C62932375   1.391   0.915   4.010 -0.2240  0.3405 -0.1447
   34MOL   C63032376   1.537   0.902   4.022  0.0520 -0.0356  0.0688
   34MOL   C63132377   1.590   0.765   4.068 -0.0677  0.2183 -0.1412
   34MOL   C63232378   1.741   0.751   4.059 -0.8514  0.1021  0.5648
   34MOL   C63332379   1.789   0.623   4.132  0.5326  0.2966  0.0459
   34MOL   C63432380   1.941   0.619   4.157  0.6178 -0.1992 -0.6458
   34MOL   C63532381   1.985   0.483   4.225  0.1782 -0.1478  0.6366
   34MOL   C63632382   2.136   0.472   4.226 -0.1209  0.5139  0.6143
   34MOL   O63732383   2.197   0.593   4.272  0.0800 -0.0123 -0.3409
   34MOL   C63832384   2.213   0.610   4.403 -0.0157 -0.5518  0.2148
   34MOL   O63932385   2.168   0.546   4.498 -0.2910 -0.7550  0.4059
   34MOL   C64032386   2.305   0.730   4.427  0.0493 -0.6381 -0.4459
   34MOL   C64132387   2.252   0.861   4.367 -0.2237 -0.2375 -0.2867
   34MOL   C64232388   2.362   0.966   4.392  0.4414  0.4232  0.1007
   34MOL   C64332389   2.323   1.111   4.396  0.0165 -0.3165  0.1237
   34MOL   C64432390   2.278   1.176   4.264  0.3123  0.1130  0.0809
   34MOL   O64532391   2.286   1.120   4.157 -0.2173 -0.4196  0.3791
   34MOL   H64632392   1.178   0.774   4.017  1.2738  1.7020  0.7402
   34MOL   H64732393   1.116   0.777   3.851 -0.6577 -1.7268  0.6368
   34MOL   H64832394   1.342   0.897   3.795 -0.0902 -2.3818 -1.9214
   34MOL   H64932395   1.372   0.740   3.862 -0.8726 -0.5709  4.0504
   34MOL   H65032396   1.360   1.019   4.001 -1.4019 -0.1564 -2.3109
   34MOL   H65132397   1.346   0.879   4.102  2.8857 -0.9001  0.9562
   34MOL   H65232398   1.582   0.983   4.080  2.1592  1.1973 -3.1402
   34MOL   H65332399   1.597   0.935   3.937 -0.4772  1.0496  0.1006
   34MOL   H65432400   1.540   0.684   4.015  0.7818 -0.6866  0.4152
   34MOL   H65532401   1.552   0.751   4.170  1.0543  1.6828  0.4992
   34MOL   H65632402   1.787   0.838   4.105  0.3152 -0.6584  0.8499
   34MOL   H65732403   1.776   0.759   3.956 -0.0408  1.0275  0.9096
   34MOL   H65832404   1.757   0.542   4.067  1.2302  0.6429 -0.7352
   34MOL   H65932405   1.739   0.606   4.228 -1.0458  1.4329 -0.5462
   34MOL   H66032406   1.975   0.701   4.220 -1.2761 -0.7940  1.2106
   34MOL   H66132407   1.983   0.646   4.060  1.7338  1.4432  0.2680
   34MOL   H66232408   1.938   0.477   4.323 -2.2822 -1.1770 -0.5642
   34MOL   H66332409   1.947   0.398   4.167 -0.5956  0.4767  0.2168
   34MOL   H66432410   2.155   0.468   4.118 -0.8662  1.0559  0.4586
   34MOL   H66532411   2.183   0.390   4.280 -2.7613 -1.2330  0.3254
   34MOL   H66632412   2.331   0.731   4.533 -2.9788 -3.4506  0.4251
   34MOL   H66732413   2.401   0.702   4.383  0.0238 -2.5403  0.6371
   34MOL   H66832414   2.160   0.888   4.420 -1.0944  0.8325 -2.2743
   34MOL   H66932415   2.228   0.839   4.262 -0.1413  1.0372 -0.5794
   34MOL   H67032416   2.445   0.964   4.322  1.0983  0.7973  0.8563
   34MOL   H67132417   2.416   0.932   4.481  1.0633 -2.3916 -1.2792
   34MOL   H67232418   2.401   1.174   4.441 -1.0541  1.0204  0.1582
   34MOL   H67332419   2.239   1.127   4.464  0.7286  0.0012  0.9374
   34MOL   O67432420   2.235   1.302   4.279  0.7586 -0.4839  0.7246
   34MOL   C67532421   2.176   1.382   4.171 -0.7829  0.1413  0.3783
   34MOL   C67632422   2.188   1.519   4.233  0.2504 -0.1628 -0.1992
   34MOL   C67732423   2.148   1.631   4.142 -0.0958  0.2022 -0.0834
   34MOL   C67832424   2.155   1.763   4.226 -0.5729  0.3289  0.2039
   34MOL   C67932425   2.106   1.877   4.155 -0.1389 -1.1105  0.3030
   34MOL   C68032426   2.185   1.921   4.034  0.3222 -0.2137  0.6168
   34MOL   C68132427   2.113   2.031   3.946  0.0759  0.3681 -0.2888
   34MOL   C68232428   2.005   1.979   3.850 -0.1504 -0.5350  0.1239
   34MOL   C68332429   1.949   2.086   3.752 -0.3794  0.4266 -0.2424
   34MOL   C68432430   1.841   2.031   3.659  0.5037 -0.4231 -0.7362
   34MOL   O68532431   1.794   2.138   3.571 -0.3638 -0.1856  0.3465
   34MOL   C68632432   1.676   2.124   3.512 -0.0831 -0.6936  0.6073
   34MOL   O68732433   1.596   2.032   3.526 -0.1470  0.0682  0.2022
   34MOL   C68832434   1.661   2.231   3.397  0.1832  0.7358  0.7704
   34MOL   C68932435   1.549   2.206   3.299 -0.8332  0.1634 -0.1807
   34MOL   C69032436   1.595   2.119   3.185 -0.0141 -0.6940 -0.5540
   34MOL   C69132437   1.618   1.966   3.224  0.2392 -0.1512  0.1100
   34MOL   C69232438   1.687   1.888   3.110  0.4143 -0.2730  0.1492
   34MOL   O69332439   1.739   1.948   3.010 -0.4081  0.4060 -0.4898
   34MOL   H69432440   2.238   1.381   4.081  0.2841  0.5859  1.0975
   34MOL   H69532441   2.074   1.355   4.146 -0.2692 -1.3375 -0.2035
   34MOL   H69632442   2.292   1.528   4.264 -0.3694 -2.0633  2.6253
   34MOL   H69732443   2.129   1.516   4.325  2.7710 -1.2234  1.4161
   34MOL   H69832444   2.217   1.634   4.057  1.1562 -0.1105  0.9068
   34MOL   H69932445   2.048   1.614   4.102 -0.4611  0.9164  0.5164
   34MOL   H70032446   2.258   1.793   4.244 -0.4223  1.1369 -1.8006
   34MOL   H70132447   2.091   1.743   4.312 -2.5707  1.7944 -0.8619
   34MOL   H70232448   2.089   1.959   4.224  0.8474  1.1265 -2.0029
   34MOL   H70332449   2.009   1.859   4.109 -0.3737 -1.3173  0.8768
   34MOL   H70432450   2.220   1.846   3.964  0.4472  1.3310 -1.0369
   34MOL   H70532451   2.278   1.964   4.070 -1.0782  1.1082  2.7788
   34MOL   H70632452   2.190   2.085   3.891 -0.9194  2.5281  0.3978
   34MOL   H70732453   2.071   2.117   3.998  0.1335 -0.7860  1.7679
   34MOL   H70832454   1.918   1.942   3.904  0.3594 -3.0302 -0.6639
   34MOL   H70932455   2.052   1.896   3.797  1.6777 -0.0333  0.8964
   34MOL   H71032456   1.920   2.175   3.808 -1.8271  0.0683 -0.4023
   34MOL   H71132457   2.023   2.126   3.683 -1.2942 -0.7287 -1.9237
   34MOL   H71232458   1.764   1.981   3.718 -1.9075  1.8643 -1.7953
   34MOL   H71332459   1.874   1.947   3.598 -0.0757 -1.8242  0.8463
   34MOL   H71432460   1.621   2.323   3.439 -3.5220 -1.7074  2.9259
   34MOL   H71532461   1.756   2.266   3.357  0.0556  0.2876  0.0570
   34MOL   H71632462   1.508   2.300   3.262  2.4484  0.6915 -2.7602
   34MOL   H71732463   1.470   2.148   3.347  0.9612 -0.9290  1.5368
   34MOL   H71832464   1.692   2.150   3.146 -0.4363  1.2434 -0.0849
   34MOL   H71932465   1.532   2.125   3.097  0.2525 -2.9728 -0.9336
   34MOL   H72032466   1.520   1.929   3.256  0.5991 -0.8618  0.3908
   34MOL   H72132467   1.692   1.952   3.302  2.2735  2.1536 -1.3425
   34MOL   O72232468   1.705   1.764   3.145  0.0604  0.3642 -0.6968
   34MOL   C72332469   1.772   1.682   3.060  0.1490  0.4671  0.2485
   34MOL   C72432470   1.680   1.605   2.969 -0.6901 -0.6440 -0.7314
   34MOL   C72532471   1.758   1.521   2.872  0.6934 -0.3043 -0.2793
   34MOL   C72632472   1.657   1.454   2.777 -0.0498  0.0388  0.0312
   34MOL   C72732473   1.722   1.361   2.675  0.5882  0.6558  0.5760
   34MOL   C72832474   1.623   1.343   2.556  0.4464 -0.0117  0.3441
   34MOL   C72932475   1.659   1.249   2.439 -0.0128 -0.1069  0.2497
   34MOL   C73032476   1.540   1.244   2.341  0.3754  0.4262  0.3093
   34MOL   C73132477   1.554   1.155   2.214  0.3972 -0.2664 -0.4628
   34MOL   C73232478   1.430   1.150   2.117  0.1244 -0.4805 -0.4372
   34MOL   O73332479   1.422   1.270   2.042  0.8736  0.2352  0.3942
   34MOL   C73432480   1.318   1.301   1.959 -0.0135 -0.5566  0.0308
   34MOL   O73532481   1.222   1.230   1.937 -0.0195  0.4534  0.1842
   34MOL   C73632482   1.338   1.430   1.873  0.1287 -0.0257  0.0716
   34MOL   C73732483   1.453   1.525   1.909 -0.0476 -0.3064  1.0597
   34MOL   C73832484   1.419   1.605   2.042  0.6951  0.1144  1.0788
   34MOL   C73932485   1.317   1.726   2.051  0.0947 -0.6415  0.2232
   34MOL   C74032486   1.169   1.693   2.060 -0.1225  0.3527 -0.3385
   34MOL   O74132487   1.084   1.736   1.980  0.3112  0.1377  0.1917
   34MOL   H74232488   1.845   1.735   2.999  0.1250 -0.4738 -0.6137
   34MOL   H74332489   1.828   1.609   3.119  1.5464  1.8411  0.6676
   34MOL   H74432490   1.625   1.674   2.905  2.6105  1.6676 -1.1862
   34MOL   H74532491   1.604   1.549   3.024  0.2796 -3.4484 -2.1883
   34MOL   H74632492   1.832   1.573   2.811 -0.1673 -0.0263 -1.0949
   34MOL   H74732493   1.812   1.444   2.926  0.7788  1.2754  1.9461
   34MOL   H74832494   1.614   1.537   2.720  0.8726 -1.2580 -2.6718
   34MOL   H74932495   1.586   1.400   2.839  0.0221  2.1793  2.0679
   34MOL   H75032496   1.745   1.264   2.721 -2.3917 -0.2705  0.2467
   34MOL   H75132497   1.816   1.393   2.631  1.6795 -2.4150  0.5533
   34MOL   H75232498   1.596   1.440   2.515  1.2435  0.3341  0.6411
   34MOL   H75332499   1.532   1.298   2.597  0.0673  0.8760  0.4841
   34MOL   H75432500   1.680   1.154   2.490 -2.3408 -1.0342 -0.4311
   34MOL   H75532501   1.746   1.278   2.381 -1.1614 -1.3380 -2.1818
   34MOL   H75632502   1.525   1.349   2.315  1.2789  0.2910 -0.8103
   34MOL   H75732503   1.448   1.210   2.389 -1.3686  4.7982  0.3312
   34MOL   H75832504   1.638   1.194   2.157  1.8540 -1.8440  0.5217
   34MOL   H75932505   1.579   1.052   2.242 -1.1411 -0.6579 -0.5014
   34MOL   H76032506   1.338   1.137   2.174  0.0291 -1.1390 -0.7298
   34MOL   H76132507   1.434   1.065   2.048 -1.6787 -0.6425 -0.3585
   34MOL   H76232508   1.358   1.402   1.770 -0.1600 -0.4638  0.1328
   34MOL   H76332509   1.238   1.473   1.868 -0.2937 -0.9689  0.2345
   34MOL   H76432510   1.471   1.594   1.827 -0.0904  0.3137  1.5692
   34MOL   H76532511   1.536   1.454   1.917 -0.1706 -0.5636  0.0269
   34MOL   H76632512   1.511   1.652   2.075  1.3796  1.1663 -2.2010
   34MOL   H76732513   1.375   1.526   2.104 -1.6631  0.3860 -0.1747
   34MOL   H76832514   1.340   1.796   1.971  0.2319  2.1126  2.6078
   34MOL   H76932515   1.337   1.782   2.142 -3.1236 -0.7514  1.0748
   34MOL   O77032516   1.149   1.607   2.158  0.8110  0.4535 -0.3340
   34MOL   C77132517   1.021   1.557   2.209  0.1702  0.2317  0.6200
   34MOL   C77232518   1.012   1.409   2.236  0.2768 -0.5544 -0.2059
   34MOL   C77332519   1.106   1.361   2.350  0.8329 -0.2110  0.1890
   34MOL   C77432520   1.077   1.215   2.371  0.2777 -0.3304 -0.6674
   34MOL   C77532521   1.173   1.157   2.478 -0.4900  0.7496  0.2657
   34MOL   C77632522   1.168   1.220   2.617  0.2015 -0.2577 -0.2263
   34MOL   C77732523   1.039   1.179   2.688 -0.0873 -0.3308  0.3537
   34MOL   C77832524   1.018   1.243   2.826 -0.6747 -0.0915 -0.3651
   34MOL   C77932525   0.990   1.399   2.827  0.0344 -0.0593 -0.4906
   34MOL   C78032526   0.920   1.443   2.963  0.1443 -0.0783  0.2102
   34MOL   O78132527   1.004   1.447   3.072 -0.3945  0.3946 -0.6532
   34MOL   C78232528   0.987   1.364   3.182  0.1627 -0.8101 -0.2622
   34MOL   O78332529   0.902   1.278   3.192  0.5218  0.0372 -0.5435
   34MOL   C78432530   1.089   1.385   3.289 -0.6835 -0.1272  0.0910
   34MOL   C78532531   1.229   1.406   3.232 -0.8769 -0.4469 -0.4179
   34MOL   C78632532   1.339   1.410   3.344 -0.5348  0.4155  0.1701
   34MOL   C78732533   1.478   1.447   3.288  0.2274 -0.7056 -0.6396
   34MOL   C78832534   1.551   1.333   3.226  0.2228  0.5575 -0.2026
   34MOL   O78932535   1.639   1.278   3.288 -0.4712 -0.0943 -0.5079
   34MOL   H79032536   1.000   1.609   2.302 -0.2953  1.1926 -0.0103
   34MOL   H79132537   0.938   1.581   2.143  0.1049  0.3289  0.7382
   34MOL   H79232538   1.030   1.362   2.139  0.9239 -2.4406  0.8199
   34MOL   H79332539   0.907   1.389   2.254  0.0743  1.3502  0.8227
   34MOL   H79432540   1.210   1.392   2.338  0.6246  0.8109  0.9414
   34MOL   H79532541   1.075   1.412   2.441 -3.5894 -3.4979  0.6805
   34MOL   H79632542   1.076   1.159   2.277  0.9092 -0.4031 -0.6295
   34MOL   H79732543   0.970   1.210   2.394  0.3155 -1.6063 -0.7072
   34MOL   H79832544   1.272   1.133   2.440 -0.8906  0.5186 -0.6458
   34MOL   H79932545   1.150   1.051   2.491 -1.8324  1.1405  1.1967
   34MOL   H80032546   1.178   1.329   2.609 -3.6200  0.1579 -0.4280
   34MOL   H80132547   1.252   1.191   2.679 -0.4501  3.0721  2.3834
   34MOL   H80232548   1.026   1.070   2.684 -1.5103 -0.1108 -2.5742
   34MOL   H80332549   0.954   1.220   2.633 -1.9698 -2.7482  1.3553
   34MOL   H80432550   1.115   1.230   2.874 -0.0314 -2.5498 -2.2261
   34MOL   H80532551   0.926   1.204   2.868 -0.8555  2.4808  1.7136
   34MOL   H80632552   1.078   1.461   2.816 -1.0946  1.7642  0.6023
   34MOL   H80732553   0.920   1.422   2.747 -0.6943 -0.4212  0.0271
   34MOL   H80832554   0.832   1.381   2.982  1.3110 -2.0377 -0.5897
   34MOL   H80932555   0.878   1.544   2.958 -0.4906 -0.2492  1.8421
   34MOL   H81032556   1.058   1.473   3.346  0.3534  0.9352 -0.9597
   34MOL   H81132557   1.082   1.298   3.353  2.1484 -0.5781 -0.1636
   34MOL   H81232558   1.241   1.481   3.154  2.6129 -0.6155 -0.1467
   34MOL   H81332559   1.249   1.316   3.173  0.0707 -1.8196  1.8944
   34MOL   H81432560   1.334   1.315   3.396 -2.8369  1.0480  1.1752
   34MOL   H81532561   1.306   1.491   3.411  0.0851  1.0905 -0.3342
   34MOL   H81632562   1.537   1.475   3.375 -0.6547  0.2480 -0.3400
   34MOL   H81732563   1.474   1.538   3.228 -3.7685 -1.4390 -1.6919
   34MOL   O81832564   1.507   1.300   3.104  0.5588  0.2823  0.4076
   34MOL   C81932565   1.558   1.179   3.038 -0.6265  0.0404 -0.2696
   34MOL   C82032566   1.475   1.143   2.916 -0.4398 -0.2009  0.2153
   34MOL   C82132567   1.562   1.043   2.821  0.3440  0.5876 -0.2926
   34MOL   C82232568   1.481   0.981   2.703 -0.5084 -0.4696  0.1512
   34MOL   C82332569   1.555   0.874   2.622 -0.2146 -0.3294 -0.3159
   34MOL   C82432570   1.590   0.749   2.716 -0.2948  0.2525  0.6166
   34MOL   C82532571   1.649   0.633   2.642  0.2329 -0.2701  0.5934
   34MOL   C82632572   1.706   0.519   2.736 -0.3764  0.2164 -0.4090
   34MOL   C82732573   1.857   0.542   2.793  0.4275 -0.0907 -0.2016
   34MOL   C82832574   1.913   0.420   2.860 -0.1995  0.0876  0.5498
   34MOL   O82932575   2.041   0.449   2.916  0.0492 -0.3850 -0.3321
   34MOL   C83032576   2.156   0.430   2.855  0.3907 -0.0167 -0.4788
   34MOL   O83132577   2.168   0.409   2.736 -0.1843 -0.1718  0.0316
   34MOL   C83232578   2.273   0.458   2.949  0.1604 -0.2540  0.1566
   34MOL   C83332579   2.375   0.551   2.883  0.2409 -0.0943 -0.1774
   34MOL   C83432580   2.345   0.699   2.911  0.3813  0.8949  0.2213
   34MOL   C83532581   2.388   0.741   3.052  0.5454 -0.1202 -0.7480
   34MOL   C83632582   2.412   0.888   3.055  0.0875 -0.0163  0.0594
   34MOL   O83732583   2.320   0.971   3.032  0.1542 -0.0588 -0.4213
   34MOL   H83832584   1.663   1.197   3.016 -0.3458 -1.5751 -0.2915
   34MOL   H83932585   1.549   1.097   3.109 -3.5836  0.2577 -0.3283
   34MOL   H84032586   1.437   1.233   2.867  2.2306 -0.1499 -1.8774
   34MOL   H84132587   1.380   1.100   2.949  0.0133 -0.5367  1.0796
   34MOL   H84232588   1.649   1.093   2.779  1.8493 -0.4656  1.4596
   34MOL   H84332589   1.594   0.966   2.892 -0.8335 -0.3118 -0.7303
   34MOL   H84432590   1.455   1.060   2.633  0.2351  0.2056  0.6340
   34MOL   H84532591   1.387   0.937   2.737  0.4113 -1.6978  1.1550
   34MOL   H84632592   1.633   0.915   2.558 -1.9941  4.2754  0.2554
   34MOL   H84732593   1.486   0.835   2.547 -1.5004  1.8012 -0.2766
   34MOL   H84832594   1.504   0.720   2.777  0.7543 -2.2937  0.9397
   34MOL   H84932595   1.663   0.773   2.793  2.7422 -2.6191 -1.2480
   34MOL   H85032596   1.717   0.676   2.568 -0.1660 -0.6166  0.0246
   34MOL   H85132597   1.574   0.599   2.570  0.8167 -2.2970  0.9293
   34MOL   H85232598   1.694   0.420   2.691  1.4183 -1.1638  2.0343
   34MOL   H85332599   1.646   0.522   2.827  0.2357  4.1570 -0.0769
   34MOL   H85432600   1.919   0.554   2.704 -0.7869  2.1214 -0.8186
   34MOL   H85532601   1.870   0.640   2.839 -3.1953 -0.7158  2.3424
   34MOL   H85632602   1.902   0.336   2.790 -0.0290 -1.8660  2.8113
   34MOL   H85732603   1.847   0.406   2.945  0.5805 -2.6763  0.7769
   34MOL   H85832604   2.241   0.498   3.046 -0.7661 -1.1356  0.2316
   34MOL   H85932605   2.308   0.358   2.974 -1.0655 -0.5004  0.9724
   34MOL   H86032606   2.367   0.536   2.776  0.9672  1.7067 -0.5006
   34MOL   H86132607   2.474   0.518   2.915  0.3886  0.8007  0.3140
   34MOL   H86232608   2.239   0.720   2.897  0.3883 -0.3276 -1.9198
   34MOL   H86332609   2.402   0.756   2.838  2.1262 -1.6752 -0.4974
   34MOL   H86432610   2.481   0.692   3.080 -1.4472 -1.0804  5.0855
   34MOL   H86532611   2.311   0.722   3.128  2.1289 -1.1198  0.6419
   34MOL   O86632612   2.528   0.912   3.105 -0.8740 -0.1772 -0.2322
   34MOL   C86732613   2.569   1.041   3.115 -0.2339  0.2924 -1.3283
   34MOL   C86832614   2.642   1.079   3.256 -0.5294  0.3114 -0.1384
   34MOL   C86932615   2.762   0.997   3.291  0.0503  0.7620 -0.1419
   34MOL   C87032616   2.834   1.041   3.418  0.0237  0.1837 -0.0710
   34MOL   C87132617   2.944   0.944   3.456 -0.1150  0.1706 -0.0677
   34MOL   C87232618   3.043   1.002   3.563  0.3840  0.9998  0.5148
   34MOL   C87332619   3.126   0.890   3.630 -0.5932  0.0169  0.1264
   34MOL   C87432620   3.208   0.945   3.749  0.3204 -0.7644 -0.5305
   34MOL   C87532621   3.114   0.997   3.869 -0.3329 -0.2766 -0.6733
   34MOL   C87632622   3.203   1.034   3.989  0.5567  0.2164 -0.4956
   34MOL   O87732623   3.315   1.110   3.955 -0.7193 -0.0233 -0.2044
   34MOL   C87832624   3.298   1.247   3.932  0.1297 -0.2445 -0.2353
   34MOL   O87932625   3.186   1.308   3.949  0.1691  0.3264 -0.2611
   34MOL   C88032626   3.414   1.322   3.871 -0.2543 -0.2443  0.6936
   34MOL   C88132627   3.556   1.252   3.864 -0.8670 -0.0738  0.5344
   34MOL   C88232628   3.560   1.146   3.754 -0.1821 -0.4469 -0.1288
   34MOL   C88332629   3.711   1.119   3.714  0.0010 -0.6267  0.9248
   34MOL   C88432630   3.802   1.062   3.823  0.0184  0.6424  0.0981
   34MOL   O88532631   3.915   1.106   3.847  0.4450  0.1121 -0.5216
   34MOL   H88632632   2.640   1.058   3.034 -0.3818 -0.8001 -1.7026
   34MOL   H88732633   2.491   1.114   3.096  1.1000  2.3407  0.7125
   34MOL   H88832634   2.567   1.067   3.334  1.1668  0.7256  1.6035
   34MOL   H88932635   2.667   1.185   3.251 -1.1873  0.4545 -0.4422
   34MOL   H89032636   2.738   0.891   3.296  0.4873  0.6470 -0.3986
   34MOL   H89132637   2.830   0.990   3.206 -0.6400  2.4294 -0.8500
   34MOL   H89232638   2.763   1.031   3.501 -0.5949  2.1280 -0.3375
   34MOL   H89332639   2.870   1.143   3.414 -0.3145  0.3491  0.8872
   34MOL   H89432640   3.007   0.916   3.371 -0.2037  2.1128 -0.7991
   34MOL   H89532641   2.895   0.858   3.502 -0.4796  1.3615  1.8243
   34MOL   H89632642   2.986   1.052   3.642 -0.7693 -1.4873  1.3387
   34MOL   H89732643   3.107   1.080   3.524  0.8903  0.2470 -0.1738
   34MOL   H89832644   3.194   0.855   3.553 -1.3119  0.6940 -0.8442
   34MOL   H89932645   3.066   0.806   3.666  0.1580  0.0510  1.4763
   34MOL   H90032646   3.269   1.029   3.719 -0.3473 -1.0452 -2.7403
   34MOL   H90132647   3.282   0.870   3.779 -1.6905 -2.0131  1.5522
   34MOL   H90232648   3.049   1.081   3.845 -1.4468 -0.2648  2.1835
   34MOL   H90332649   3.061   0.905   3.891  0.4095 -0.4643  0.3737
   34MOL   H90432650   3.244   0.935   4.012 -1.9287 -1.5681 -3.3821
   34MOL   H90532651   3.142   1.062   4.075 -3.3105  2.0607 -3.7016
   34MOL   H90632652   3.394   1.357   3.770  0.5438  0.6737  0.8342
   34MOL   H90732653   3.423   1.420   3.919 -0.0851 -0.3519  0.8809
   34MOL   H90832654   3.590   1.216   3.962  2.0678 -0.7587 -0.6674
   34MOL   H90932655   3.635   1.326   3.851 -1.2684  0.8454  3.0690
   34MOL   H91032656   3.512   1.178   3.661 -0.7742 -1.0118 -0.0188
   34MOL   H91132657   3.498   1.061   3.782 -0.2061 -0.7953 -1.2094
   34MOL   H91232658   3.761   1.211   3.682 -0.1531  0.3046  3.2009
   34MOL   H91332659   3.717   1.037   3.644 -0.7611  0.8467 -0.9079
   34MOL   O91432660   3.746   0.955   3.884  0.5830 -0.0990 -0.0392
   34MOL   C91532661   3.817   0.881   3.986 -0.6892  0.2895  0.6952
   34MOL   C91632662   3.721   0.817   4.083 -0.2526  0.6056 -0.3780
   34MOL   C91732663   3.594   0.763   4.027  0.1332  0.1868 -0.3656
   34MOL   C91832664   3.516   0.698   4.137  0.2060 -0.5426 -0.0631
   34MOL   C91932665   3.382   0.634   4.092  0.0818 -0.1768  0.5948
   34MOL   C92032666   3.327   0.554   4.210  0.1670  0.0415  0.4554
   34MOL   C92132667   3.196   0.481   4.173 -0.5002  0.4511  0.2046
   34MOL   C92232668   3.065   0.568   4.183 -0.5607  0.2451 -0.5574
   34MOL   C92332669   2.944   0.470   4.169  0.2669 -0.0021  0.5039
   34MOL   C92432670   2.813   0.534   4.188  0.4081  0.5697  0.4268
   34MOL   O92532671   2.708   0.431   4.205 -0.6714  0.2977 -0.3016
   34MOL   C92632672   2.584   0.474   4.226  0.9670 -0.1696  0.3701
   34MOL   O92732673   2.552   0.596   4.229  0.3010 -0.1661 -0.3272
   34MOL   C92832674   2.480   0.358   4.224  0.4908 -0.3995  0.2974
   34MOL   C92932675   2.480   0.290   4.083  0.2793 -0.3136 -0.0878
   34MOL   C93032676   2.354   0.220   4.035  0.4279 -0.4299  0.0156
   34MOL   C93132677   2.387   0.117   3.918  0.5121 -0.2140 -0.1873
   34MOL   C93232678   2.435   0.184   3.790  0.0131  0.6408  0.5026
   34MOL   O93332679   2.461   0.114   3.695  0.4164 -0.1555 -0.0033
   34MOL   H93432680   3.864   0.798   3.934 -1.0846  0.3378  0.2591
   34MOL   H93532681   3.906   0.926   4.031 -0.7862  2.2974 -1.0421
   34MOL   H93632682   3.707   0.878   4.172  0.6590  0.1153  0.1112
   34MOL   H93732683   3.777   0.730   4.116  0.0556  1.0444  0.2699
   34MOL   H93832684   3.536   0.848   3.991  2.1765  1.3647 -0.9504
   34MOL   H93932685   3.604   0.689   3.948  0.4922 -0.9664  0.7388
   34MOL   H94032686   3.487   0.768   4.216 -0.3061  0.2595 -0.9531
   34MOL   H94132687   3.576   0.627   4.193  0.5908  0.5731  0.9756
   34MOL   H94232688   3.398   0.572   4.003  0.3081  0.0262  0.4946
   34MOL   H94332689   3.305   0.707   4.068 -0.8104 -1.7265 -1.4248
   34MOL   H94432690   3.305   0.609   4.302 -0.4348  0.8881 -0.1889
   34MOL   H94532691   3.406   0.484   4.238  1.1781  0.9375 -0.0984
   34MOL   H94632692   3.201   0.406   4.251  2.6005  0.9462  0.5347
   34MOL   H94732693   3.199   0.437   4.073 -0.4802 -0.1541  0.4687
   34MOL   H94832694   3.060   0.654   4.116 -1.2630  0.2761 -0.4754
   34MOL   H94932695   3.058   0.621   4.278 -0.4830  2.3127 -1.6788
   34MOL   H95032696   2.945   0.407   4.081 -0.4740  0.3703  0.2173
   34MOL   H95132697   2.965   0.399   4.249 -1.1741 -0.9738  0.0368
   34MOL   H95232698   2.788   0.570   4.088  1.1991  0.5353  0.2169
   34MOL   H95332699   2.797   0.611   4.264  1.2378  0.3105  0.8614
   34MOL   H95432700   2.498   0.278   4.296 -0.1221 -0.7846  0.0234
   34MOL   H95532701   2.391   0.420   4.232  0.8621  0.4488 -1.7900
   34MOL   H95632702   2.561   0.219   4.099 -0.6022 -1.5237 -0.9536
   34MOL   H95732703   2.520   0.358   4.008  0.1737  0.8210  0.8590
   34MOL   H95832704   2.281   0.295   4.002  0.0754 -0.8710 -0.2129
   34MOL   H95932705   2.319   0.160   4.119 -0.4268  0.3750  0.2460
   34MOL   H96032706   2.299   0.055   3.910  0.2841  0.1374 -0.4082
   34MOL   H96132707   2.460   0.042   3.949  0.0444 -1.0282 -1.0564
   34MOL   H96232708   2.446   0.292   3.780  0.3165  0.6189  0.5970
   35MOL     O132709   2.335   4.943   5.288  0.2574  0.1929  0.3049
   35MOL     C232710   2.225   4.936   5.373 -0.1059 -0.0230  0.2544
   35MOL     C332711   2.172   4.794   5.371 -0.4426 -0.2681 -0.5714
   35MOL     C432712   2.026   4.765   5.420 -0.4531 -0.3852 -0.0451
   35MOL     C532713   1.985   4.622   5.405  0.8142  0.1262 -0.3857
   35MOL     C632714   1.843   4.596   5.435 -0.5498 -0.3586  0.5480
   35MOL     C732715   1.734   4.656   5.351 -0.2057  0.2177 -0.2378
   35MOL     C832716   1.599   4.607   5.392  0.4415 -0.0679 -0.7612
   35MOL     C932717   1.487   4.665   5.298  1.0841 -0.3299 -0.6571
   35MOL    C1032718   1.347   4.637   5.353  0.4542 -0.8081 -0.1713
   35MOL    C1132719   1.251   4.725   5.275 -0.0795 -0.1275  0.3825
   35MOL    O1232720   1.121   4.685   5.297  0.6824 -0.0590 -0.0580
   35MOL    C1332721   1.047   4.628   5.204 -0.7667 -0.1435 -0.3142
   35MOL    O1432722   1.078   4.591   5.093 -0.5177 -0.3098 -0.5594
   35MOL    C1532723   0.902   4.607   5.244 -0.4706  0.1300  0.9195
   35MOL    C1632724   0.830   4.722   5.313 -0.2056 -0.0497  0.4013
   35MOL    C1732725   0.679   4.709   5.297  0.5969  0.1688  0.1164
   35MOL    C1832726   0.593   4.800   5.392  0.1862  0.3529 -0.3947
   35MOL    C1932727   0.450   4.759   5.418 -0.0379  0.7419 -0.1073
   35MOL    O2032728   0.394   4.800   5.524 -0.4048 -0.0499 -0.9180
   35MOL    H2132729   2.251   4.959   5.476 -0.0594 -0.2477  0.2926
   35MOL    H2232730   2.149   5.004   5.335  0.9694  0.7073 -0.6246
   35MOL    H2332731   2.254   4.749   5.426 -0.7852 -0.4088 -0.1655
   35MOL    H2432732   2.180   4.749   5.273  0.5733  0.9830 -1.0682
   35MOL    H2532733   2.016   4.798   5.523 -0.6978  1.0219 -0.5183
   35MOL    H2632734   1.961   4.834   5.367  0.6421 -0.2329 -1.2292
   35MOL    H2732735   2.047   4.548   5.457 -1.7494 -2.9594 -1.5370
   35MOL    H2832736   2.000   4.600   5.299 -0.2911 -0.9880 -0.3247
   35MOL    H2932737   1.822   4.625   5.538 -1.5347  0.7512  0.0435
   35MOL    H3032738   1.825   4.488   5.429  1.4999 -0.5801 -2.9966
   35MOL    H3132739   1.749   4.626   5.247  1.1101  2.2538 -0.6652
   35MOL    H3232740   1.737   4.765   5.354 -0.4466  0.2349 -0.6073
   35MOL    H3332741   1.589   4.650   5.491  1.2513 -0.8853 -0.3247
   35MOL    H3432742   1.590   4.499   5.404  0.7608  0.2261  2.5772
   35MOL    H3532743   1.498   4.620   5.200 -2.8217 -1.2789 -0.7546
   35MOL    H3632744   1.492   4.773   5.295 -1.8402 -0.1558 -0.5106
   35MOL    H3732745   1.318   4.531   5.350 -3.1337  0.0945 -0.4284
   35MOL    H3832746   1.338   4.665   5.458  1.5194 -0.0974 -0.2694
   35MOL    H3932747   1.270   4.732   5.168 -0.3527  1.4979  0.4281
   35MOL    H4032748   1.263   4.829   5.307  0.0851 -0.4157  1.2420
   35MOL    H4132749   0.844   4.565   5.161  0.0687  0.3716  0.4226
   35MOL    H4232750   0.914   4.522   5.312 -0.4107 -1.6769 -1.2829
   35MOL    H4332751   0.858   4.826   5.295 -1.0807  0.4535  1.9228
   35MOL    H4432752   0.865   4.707   5.415  0.1647 -0.3497  0.2353
   35MOL    H4532753   0.646   4.606   5.312 -0.2711 -0.0328 -2.9347
   35MOL    H4632754   0.645   4.736   5.198 -0.6559 -2.1572 -0.1327
   35MOL    H4732755   0.594   4.905   5.363 -1.5782  1.3551  2.8419
   35MOL    H4832756   0.648   4.783   5.485 -1.7834 -1.2257  0.5112
   35MOL    H4932757   2.362   5.034   5.296  3.9992 -0.5321 -2.6652
   35MOL    O5032758   0.386   4.687   5.321  0.0446  0.1491  1.3038
   35MOL    C5132759   0.270   4.618   5.352  0.0869 -0.2916  0.8366
   35MOL    C5232760   0.167   4.636   5.237 -0.5168  0.2599 -0.1431
   35MOL    C5332761   0.109   4.768   5.238 -0.5559 -0.8303  0.2521
   35MOL    C5432762   0.038   4.790   5.105 -0.0406  0.1640  0.0828
   35MOL    C5532763   7.699   4.905   5.113 -0.2196 -0.1046  0.3946
   35MOL    C5632764   7.637   4.932   4.966 -0.4808 -0.0766 -1.2975
   35MOL    C5732765   7.732   5.021   4.880  0.2692 -0.4881 -0.2348
   35MOL    C5832766   7.663   5.096   4.766  0.3826 -1.0583 -0.5001
   35MOL    C5932767   7.747   5.222   4.724  0.4708 -0.0809 -0.5497
   35MOL    C6032768   7.674   5.312   4.627 -0.7065  0.8050  0.4678
   35MOL    O6132769   7.753   5.418   4.579 -0.1167 -0.1640  0.1219
   35MOL    C6232770   7.706   5.538   4.564  0.3681  1.2674  0.4369
   35MOL    O6332771   7.591   5.573   4.589  0.0511  0.0581 -0.3941
   35MOL    C6432772   0.042   5.635   4.500  0.1454  0.2482 -0.4172
   35MOL    C6532773   0.195   5.608   4.526 -0.2607  0.0706  0.3545
   35MOL    C6632774   0.225   5.578   4.677  0.0255 -1.1699  0.6669
   35MOL    C6732775   0.366   5.605   4.695 -1.4451 -0.2654 -0.1723
   35MOL    C6832776   0.437   5.578   4.832 -1.0720 -0.4146 -0.5063
   35MOL    O6932777   0.523   5.666   4.874  0.1795 -0.1209  0.0169
   35MOL    H7032778   0.285   4.511   5.362 -0.8222 -0.6009 -0.8727
   35MOL    H7132779   0.215   4.659   5.437  1.9335  1.4147  1.2673
   35MOL    H7232780   0.093   4.556   5.244 -0.6652  0.4725  0.6960
   35MOL    H7332781   0.217   4.613   5.142 -2.1913 -0.0550 -0.9611
   35MOL    H7432782   0.039   4.785   5.319  0.7806 -1.2859  1.5245
   35MOL    H7532783   0.186   4.845   5.233 -0.1611 -1.2535 -0.2506
   35MOL    H7632784   7.744   4.698   5.093 -1.9010  1.1775  1.2212
   35MOL    H7732785   0.113   4.805   5.028  0.2719  0.1166  0.3781
   35MOL    H7832786   7.736   4.994   5.164  3.0979 -1.1411 -0.0766
   35MOL    H7932787   7.627   4.880   5.192  0.1825  0.7706  1.0461
   35MOL    H8032788   7.544   4.985   4.987 -0.4235 -1.6460  3.5165
   35MOL    H8132789   7.620   4.833   4.924  0.2371 -1.3994  1.3469
   35MOL    H8232790   0.052   4.962   4.844  1.5296  0.9973  0.2725
   35MOL    H8332791   7.761   5.105   4.942 -3.1248 -0.2160  1.0854
   35MOL    H8432792   7.566   5.138   4.793 -0.6461 -3.7710  0.2063
   35MOL    H8532793   7.649   5.022   4.687 -1.7847 -1.2114 -0.0111
   35MOL    H8632794   0.007   5.280   4.814 -1.7784 -1.4969  1.0190
   35MOL    H8732795   0.076   5.194   4.674  1.0345 -1.4278  1.1741
   35MOL    H8832796   7.590   5.357   4.682 -0.5362 -1.8848  3.0450
   35MOL    H8932797   7.621   5.254   4.552 -0.7326 -0.2359  1.2794
   35MOL    H9032798   0.020   5.641   4.393 -2.2409 -0.0898  0.0286
   35MOL    H9132799   0.011   5.732   4.540 -0.8290 -0.5644  0.8459
   35MOL    H9232800   0.235   5.707   4.507 -1.3141  1.1546  3.4177
   35MOL    H9332801   0.240   5.534   4.461 -1.8202  0.6583 -1.4474
   35MOL    H9432802   0.222   5.471   4.699 -1.5148 -1.2536  0.1095
   35MOL    H9532803   0.150   5.635   4.732  2.1379  1.6861  0.7347
   35MOL    H9632804   0.377   5.707   4.660 -3.4677 -0.6329 -1.9200
   35MOL    H9732805   0.417   5.550   4.616  0.7514  3.5229 -1.5065
   35MOL    O9832806   0.410   5.467   4.894  0.1009  0.1619  0.3895
   35MOL    C9932807   0.446   5.453   5.031  0.4000 -0.9764  0.6068
   35MOL   C10032808   0.400   5.318   5.083  0.6923  0.3415 -0.1886
   35MOL   C10132809   0.455   5.199   4.999 -0.1168 -0.4587 -0.2765
   35MOL   C10232810   0.399   5.064   5.051 -0.1676  0.1668  0.1748
   35MOL   C10332811   0.443   4.950   4.961 -0.2938 -0.3764 -0.0935
   35MOL   C10432812   0.592   4.924   4.947 -0.0381  0.3643 -0.2037
   35MOL   C10532813   0.616   4.794   4.865 -0.0708 -0.4583  0.1815
   35MOL   C10632814   0.763   4.758   4.846  0.6207 -0.1948  0.4680
   35MOL   C10732815   0.803   4.656   4.740  0.6678  0.2095  0.0751
   35MOL   C10832816   0.952   4.640   4.728 -0.4269  0.0430 -0.3544
   35MOL   O10932817   1.014   4.744   4.654  0.5130  0.3578  0.4339
   35MOL   C11032818   1.022   4.741   4.524  0.5644 -0.7079 -0.4263
   35MOL   O11132819   0.987   4.644   4.450 -0.4191  0.5618 -0.8555
   35MOL   C11232820   1.055   4.879   4.464  0.7067 -0.0226  0.5084
   35MOL   C11332821   0.948   4.941   4.383 -0.2193 -0.4883 -1.2764
   35MOL   C11432822   0.812   4.958   4.461  0.6135 -0.5224  0.4869
   35MOL   C11532823   0.697   5.002   4.371 -0.0634 -0.9040 -0.3990
   35MOL   C11632824   0.589   4.893   4.338 -0.3004  0.0600  0.1692
   35MOL   O11732825   0.577   4.787   4.400  0.3985 -0.3018 -0.3793
   35MOL   H11832826   0.553   5.470   5.042 -0.1488  3.5752 -0.0470
   35MOL   H11932827   0.384   5.527   5.082  1.2801  2.0719 -2.5940
   35MOL   H12032828   0.291   5.307   5.087  0.4880  2.5613  1.0074
   35MOL   H12132829   0.436   5.310   5.185  0.1868  0.6458  0.0158
   35MOL   H12232830   0.431   5.212   4.894  1.7457  0.9523 -0.5493
   35MOL   H12332831   0.563   5.198   5.013  0.1210 -1.7243 -2.0641
   35MOL   H12432832   0.291   5.068   5.039  0.0440  2.3972 -1.2159
   35MOL   H12532833   0.414   5.068   5.159 -0.4802  1.3651  0.1894
   35MOL   H12632834   0.416   4.982   4.860  0.8733 -1.5155 -0.7880
   35MOL   H12732835   0.395   4.857   4.991 -1.4737  0.4975  0.7399
   35MOL   H12832836   0.625   4.906   5.049 -2.4354 -2.4526  0.1484
   35MOL   H12932837   0.648   5.001   4.894 -0.1246 -0.4070 -1.4246
   35MOL   H13032838   0.592   4.816   4.761 -0.1886 -1.2353  0.0389
   35MOL   H13132839   0.546   4.719   4.901 -0.0317  0.4473  2.1795
   35MOL   H13232840   0.798   4.723   4.943 -3.3046  0.9290  2.4180
   35MOL   H13332841   0.821   4.848   4.826  2.4069 -1.1784  1.0830
   35MOL   H13432842   0.761   4.563   4.779  2.7742 -0.1659  1.5783
   35MOL   H13532843   0.760   4.675   4.641 -0.8016  2.7356  1.1534
   35MOL   H13632844   0.972   4.542   4.684 -2.6891 -1.1651  1.1901
   35MOL   H13732845   0.998   4.631   4.826  1.5349  0.9600 -1.1820
   35MOL   H13832846   1.068   4.953   4.543 -1.7319  0.9814  0.0294
   35MOL   H13932847   1.144   4.870   4.403 -0.7632 -0.5195 -1.6382
   35MOL   H14032848   0.923   4.872   4.302  0.4991 -0.9386 -1.1147
   35MOL   H14132849   0.976   5.031   4.328 -4.1912  0.4000 -2.0367
   35MOL   H14232850   0.834   5.045   4.523 -2.5658 -0.1685  1.1877
   35MOL   H14332851   0.795   4.877   4.533  0.2212 -0.4452  0.4784
   35MOL   H14432852   0.726   5.045   4.275  1.9583  0.6913  0.8795
   35MOL   H14532853   0.649   5.078   4.433 -0.5313  0.2028 -2.0776
   35MOL   O14632854   0.507   4.930   4.237 -0.5637 -0.3951  0.0062
   35MOL   C14732855   0.395   4.846   4.199  0.0656  0.0709 -0.3499
   35MOL   C14832856   0.417   4.714   4.129 -0.3072  0.3694 -0.5728
   35MOL   C14932857   0.467   4.720   3.982  0.1769 -0.2004 -0.5504
   35MOL   C15032858   0.474   4.585   3.916 -1.0495 -0.6571 -0.3306
   35MOL   C15132859   0.615   4.520   3.927  0.5463 -0.5131 -0.0154
   35MOL   C15232860   0.633   4.396   3.844  0.4949  0.2929  0.3657
   35MOL   C15332861   0.774   4.343   3.855  0.3073 -0.3533 -0.5923
   35MOL   C15432862   0.806   4.230   3.758 -0.4235  0.1558  0.0113
   35MOL   C15532863   0.958   4.223   3.719  0.4349 -0.1532  0.1014
   35MOL   C15632864   1.056   4.212   3.834 -0.9318  0.8570 -0.2481
   35MOL   O15732865   1.191   4.229   3.786  0.3430  0.0797  0.3332
   35MOL   C15832866   1.290   4.241   3.876  0.5665 -0.7822  0.1828
   35MOL   O15932867   1.287   4.243   3.999  0.0860  0.1320  0.1529
   35MOL   C16032868   1.420   4.284   3.805  0.0779 -0.2003  0.1009
   35MOL   C16132869   1.486   4.406   3.871 -0.7527 -0.3223 -0.0483
   35MOL   C16232870   1.422   4.540   3.829 -0.6207  0.0435  0.3140
   35MOL   C16332871   1.452   4.662   3.927  0.1567 -0.1885 -0.8245
   35MOL   C16432872   1.358   4.677   4.049 -0.0994 -0.8117  0.7091
   35MOL   O16532873   1.402   4.729   4.153 -0.0591 -0.2456 -0.2600
   35MOL   H16632874   0.330   4.845   4.286 -2.4975 -0.1127 -2.2104
   35MOL   H16732875   0.333   4.912   4.138 -2.3105 -0.3985  1.4785
   35MOL   H16832876   0.319   4.668   4.133  0.6275 -1.5799  1.0431
   35MOL   H16932877   0.484   4.653   4.189 -0.2515  0.7982 -0.1889
   35MOL   H17032878   0.405   4.792   3.929  0.1084 -1.1852 -1.8275
   35MOL   H17132879   0.563   4.773   3.985 -0.2300  0.5412 -0.3726
   35MOL   H17232880   0.461   4.584   3.807 -1.3640 -0.2017 -0.2967
   35MOL   H17332881   0.408   4.514   3.967 -0.6808 -1.5105 -1.0145
   35MOL   H17432882   0.639   4.511   4.033 -0.8086  1.7820  0.5190
   35MOL   H17532883   0.685   4.590   3.882 -1.2219  0.1376 -1.8511
   35MOL   H17632884   0.592   4.422   3.746  0.4933  1.3220  0.6355
   35MOL   H17732885   0.564   4.316   3.873 -0.4832 -0.0401 -2.6757
   35MOL   H17832886   0.793   4.311   3.958 -0.6994  2.4708  0.5219
   35MOL   H17932887   0.844   4.426   3.844 -2.0924  1.5980 -1.4999
   35MOL   H18032888   0.748   4.251   3.669  2.4717 -0.8413 -2.1963
   35MOL   H18132889   0.774   4.132   3.795 -0.9101  0.2398 -0.1824
   35MOL   H18232890   0.976   4.157   3.634 -0.8272 -0.9039  0.4014
   35MOL   H18332891   0.979   4.320   3.675 -1.3960  0.7741  1.1998
   35MOL   H18432892   1.047   4.120   3.890 -0.7562 -0.3565 -2.1517
   35MOL   H18532893   1.035   4.294   3.903 -0.2478  0.1114  0.8461
   35MOL   H18632894   1.484   4.197   3.788  1.5096  0.3970  2.3596
   35MOL   H18732895   1.396   4.306   3.701  0.4313  1.4940  0.3768
   35MOL   H18832896   1.588   4.427   3.839 -0.8269  0.8812  0.4889
   35MOL   H18932897   1.501   4.386   3.977 -0.6498 -0.8301 -0.1538
   35MOL   H19032898   1.313   4.528   3.822 -0.3520 -1.8121 -1.0704
   35MOL   H19132899   1.461   4.568   3.731  0.1204  3.3559  1.5025
   35MOL   H19232900   1.431   4.746   3.861 -1.3692  0.4559  0.4451
   35MOL   H19332901   1.557   4.678   3.951  0.3538 -0.4409 -1.5041
   35MOL   O19432902   1.242   4.628   4.026 -0.1109 -0.4328 -0.1457
   35MOL   C19532903   1.145   4.610   4.130  0.1063  0.4015  0.1695
   35MOL   C19632904   1.007   4.639   4.063  0.6239 -0.7890 -0.9806
   35MOL   C19732905   1.000   4.782   4.010  0.3554  0.2129  0.2125
   35MOL   C19832906   0.853   4.826   3.968 -0.2486  0.6828 -0.3991
   35MOL   C19932907   0.838   4.969   3.927 -0.1259  0.3388  0.2656
   35MOL   C20032908   0.686   5.010   3.926  0.0519  0.0886  0.1275
   35MOL   C20132909   0.670   5.161   3.907 -0.2796 -0.0673 -0.5205
   35MOL   C20232910   0.522   5.214   3.928 -0.8073  0.9388  0.6206
   35MOL   C20332911   0.417   5.183   3.818 -0.1099  1.0416 -0.3549
   35MOL   C20432912   0.330   5.064   3.843 -0.2022 -0.1636 -0.6447
   35MOL   O20532913   0.258   5.026   3.728  0.5048  0.2972  0.6162
   35MOL   C20632914   0.165   4.931   3.730  0.1003  0.1520 -0.2674
   35MOL   O20732915   0.147   4.855   3.826  0.0695  0.0078  0.2686
   35MOL   C20832916   0.084   4.933   3.598  0.8577 -0.0084 -0.2583
   35MOL   C20932917   0.129   4.828   3.495 -0.7497 -0.0938 -0.1272
   35MOL   C21032918   0.063   4.844   3.360 -0.1766  0.1323  0.6481
   35MOL   C21132919   0.073   4.983   3.298  0.0696  0.7360  0.0061
   35MOL   C21232920   0.024   4.995   3.148 -0.1036  0.2004  0.2409
   35MOL   O21332921   0.098   5.049   3.066  0.0917  0.3927  0.2263
   35MOL   H21432922   1.139   4.508   4.167 -1.4830  1.5702  3.4123
   35MOL   H21532923   1.173   4.677   4.212  0.1960 -0.0674  0.5236
   35MOL   H21632924   0.936   4.624   4.145  1.8617 -1.6625 -0.0337
   35MOL   H21732925   0.993   4.570   3.980  3.8415 -1.1503 -1.2788
   35MOL   H21832926   1.041   4.841   4.092 -2.0216  4.8604 -1.7042
   35MOL   H21932927   1.075   4.794   3.932  0.3658 -0.0440  0.1826
   35MOL   H22032928   0.793   4.817   4.059 -0.1698 -0.5447 -0.4516
   35MOL   H22132929   0.824   4.763   3.884  0.3605 -0.7216  0.4118
   35MOL   H22232930   0.887   4.994   3.833 -2.1857  0.1076 -0.9227
   35MOL   H22332931   0.880   5.029   4.007 -0.2530 -0.4273  0.9176
   35MOL   H22432932   0.635   4.974   4.016  1.9728 -1.1068  0.7602
   35MOL   H22532933   0.640   4.966   3.837  2.4625  1.3422 -1.7893
   35MOL   H22632934   0.711   5.194   3.812  0.0248  1.4456  0.1218
   35MOL   H22732935   0.730   5.218   3.978 -1.5431 -0.0783  0.5988
   35MOL   H22832936   0.538   5.320   3.907 -0.5782  0.9861  1.0319
   35MOL   H22932937   0.485   5.201   4.030  1.9242 -0.6192  1.4730
   35MOL   H23032938   0.355   5.272   3.803 -1.5660 -0.0023 -0.6685
   35MOL   H23132939   0.465   5.164   3.722 -0.5993  0.7476 -0.5462
   35MOL   H23232940   0.258   5.095   3.918 -0.2544 -2.3893  0.2761
   35MOL   H23332941   0.378   4.982   3.897 -1.3988  0.0629  0.7972
   35MOL   H23432942   7.750   4.914   3.642 -0.1366  1.0100 -1.9549
   35MOL   H23532943   0.076   5.039   3.576 -0.5193  0.3987  2.0662
   35MOL   H23632944   0.110   4.726   3.528 -2.2036  0.5128  0.9813
   35MOL   H23732945   0.236   4.826   3.477 -0.6921  1.2662  0.0238
   35MOL   H23832946   7.723   4.822   3.378 -0.4188  1.4388  0.8910
   35MOL   H23932947   0.110   4.769   3.296  0.7852  0.2083  1.2536
   35MOL   H24032948   0.171   5.031   3.302 -0.2235  1.4448 -1.0308
   35MOL   H24132949   0.014   5.055   3.355 -0.1335 -1.3420  2.4845
   35MOL   O24232950   7.667   4.939   3.125 -0.5088  0.1590 -0.1114
   35MOL   C24332951   7.622   4.906   2.995  0.0266  0.4011  0.4494
   35MOL   C24432952   7.694   4.773   2.945  0.9516  0.1504  0.8911
   35MOL   C24532953   7.663   4.642   3.023 -0.4681  0.1916 -0.4997
   35MOL   C24632954   7.732   4.514   2.972 -1.3307  0.7387 -0.2842
   35MOL   C24732955   7.664   4.453   2.855 -0.3391  0.6298 -0.8287
   35MOL   C24832956   7.700   4.310   2.829 -0.5777  0.2752  0.5315
   35MOL   C24932957   7.626   4.266   2.702 -0.7887 -0.7811  0.3507
   35MOL   C25032958   7.625   4.115   2.670 -0.0614 -0.6452  0.2532
   35MOL   C25132959   7.551   4.069   2.546  0.3607  0.4019  0.1229
   35MOL   C25232960   7.516   3.919   2.540 -0.6808 -0.1291 -0.1433
   35MOL   O25332961   7.634   3.845   2.527  0.0073  0.2452  0.0830
   35MOL   C25432962   7.621   3.709   2.542 -0.2054 -0.1473  0.1010
   35MOL   O25532963   7.513   3.655   2.543  0.0141 -0.4161  0.5509
   35MOL   C25632964   7.750   3.624   2.529  0.3107 -0.2961  0.2354
   35MOL   C25732965   0.066   3.643   2.656  0.1728  0.2589  0.3064
   35MOL   C25832966   0.214   3.605   2.662 -0.9744  0.4185  0.1087
   35MOL   C25932967   0.289   3.655   2.785  0.4075  0.0099 -0.1645
   35MOL   C26032968   0.230   3.597   2.920  0.4380  0.1269 -0.6671
   35MOL   O26132969   0.197   3.668   3.009  0.0022  0.0235 -0.1005
   35MOL   H26232970   7.514   4.892   2.993 -0.0060  0.6375  0.5932
   35MOL   H26332971   7.662   4.986   2.932 -1.6871  1.5433  0.7835
   35MOL   H26432972   0.039   4.768   2.945  0.8435 -4.4234  0.6735
   35MOL   H26532973   7.667   4.759   2.840 -0.5078 -1.9285  1.5257
   35MOL   H26632974   7.693   4.661   3.126 -0.3407  0.0805 -0.5164
   35MOL   H26732975   7.555   4.626   3.021 -0.5721  0.9096 -1.0502
   35MOL   H26832976   7.738   4.447   3.058 -2.8659 -0.5194 -1.1193
   35MOL   H26932977   0.070   4.526   2.940 -0.5099  0.5910  2.2163
   35MOL   H27032978   7.682   4.520   2.771  2.2973  1.0622  0.0348
   35MOL   H27132979   7.556   4.461   2.870 -0.5032  1.3138 -2.3634
   35MOL   H27232980   7.681   4.249   2.918 -0.8607  0.3702  0.5371
   35MOL   H27332981   0.040   4.294   2.802 -1.1530 -0.4636 -1.3417
   35MOL   H27432982   7.666   4.323   2.618 -0.7788 -0.4169  0.6027
   35MOL   H27532983   7.521   4.294   2.711 -0.7630 -0.2420 -0.8605
   35MOL   H27632984   7.590   4.068   2.762 -2.2214  0.8827  0.2624
   35MOL   H27732985   7.727   4.080   2.656  0.7560  0.2120  3.6050
   35MOL   H27832986   7.454   4.118   2.544  0.9050  1.4609 -0.8997
   35MOL   H27932987   7.591   4.103   2.451 -1.3171  1.0927 -0.3535
   35MOL   H28032988   7.449   3.911   2.454 -1.5458 -0.6280  0.5676
   35MOL   H28132989   7.460   3.891   2.629  2.0788 -1.4782  1.2056
   35MOL   H28232990   7.717   3.522   2.510  2.0629 -0.5951 -1.3811
   35MOL   H28332991   0.045   3.653   2.443 -0.8079 -1.4810 -0.9649
   35MOL   H28432992   0.011   3.612   2.745  0.3565  0.2136  0.4049
   35MOL   H28532993   0.076   3.751   2.665  0.1882  0.2959 -0.1514
   35MOL   H28632994   0.259   3.648   2.573  0.0620  0.0517  0.4496
   35MOL   H28732995   0.221   3.496   2.655 -2.0904  0.3923 -0.6743
   35MOL   H28832996   0.292   3.764   2.792  1.7686  0.0754 -1.4584
   35MOL   H28932997   0.393   3.622   2.785  1.1561  2.3275 -0.5333
   35MOL   O29032998   0.222   3.467   2.921  0.4123  0.5492  0.5430
   35MOL   C29132999   0.190   3.395   3.038  0.0577  0.8118  0.3426
   35MOL   C29233000   0.039   3.374   3.044 -0.7756 -0.0299  0.0169
   35MOL   C29333001   7.745   3.292   3.154 -0.5080 -0.4789  0.1869
   35MOL   C29433002   7.596   3.271   3.144  0.4336 -0.2283 -0.5981
   35MOL   C29533003   7.546   3.186   3.262  0.2927  0.2674  0.6646
   35MOL   C29633004   7.397   3.160   3.265 -0.8167 -0.1229  0.1535
   35MOL   C29733005   7.328   3.282   3.329 -0.2473 -0.0435 -0.0292
   35MOL   C29833006   7.179   3.277   3.313  0.1202 -0.2238 -0.0610
   35MOL   C29933007   7.120   3.420   3.313  0.6797  0.1599 -0.4947
   35MOL   C30033008   6.970   3.411   3.283  0.1120 -0.1849  0.5516
   35MOL   O30133009   6.900   3.356   3.396 -0.2555 -0.6330 -0.0397
   35MOL   C30233010   6.799   3.278   3.369 -0.3972  0.8008 -0.1747
   35MOL   O30333011   6.769   3.226   3.261  0.0508  0.5868  0.7394
   35MOL   C30433012   6.717   3.248   3.499  0.3174 -0.1432 -0.6107
   35MOL   C30533013   6.588   3.168   3.480  0.5611 -0.4960 -0.4363
   35MOL   C30633014   6.537   3.126   3.617  0.0498  0.1662 -0.5605
   35MOL   C30733015   6.402   3.037   3.623 -0.0196 -0.5505 -0.2357
   35MOL   C30833016   6.281   3.110   3.574  0.4385 -0.1913  0.1172
   35MOL   O30933017   6.226   3.070   3.472 -0.0978  0.6139  0.3380
   35MOL   H31033018   0.251   3.304   3.033 -1.0666 -0.0057  1.2155
   35MOL   H31133019   0.223   3.463   3.117  0.5552  0.5652  0.3481
   35MOL   H31233020   7.761   3.337   2.951 -2.4661 -0.0881  0.8005
   35MOL   H31333021   7.762   3.474   3.052 -1.5593 -0.3427 -0.0904
   35MOL   H31433022   0.021   3.192   3.137  2.6511  0.7312  0.2887
   35MOL   H31533023   0.007   3.317   3.257  0.2132  2.5911 -0.7173
   35MOL   H31633024   7.561   3.240   3.045  2.0901 -2.6230 -0.4783
   35MOL   H31733025   7.541   3.364   3.158  0.8506 -0.1001  0.2114
   35MOL   H31833026   7.568   3.227   3.360  1.1160 -0.6428  0.8668
   35MOL   H31933027   7.595   3.089   3.252  1.8654  1.2256 -1.2748
   35MOL   H32033028   7.372   3.067   3.318  0.1119 -0.7303 -0.4667
   35MOL   H32133029   7.359   3.141   3.165  1.0253  1.3657 -0.8492
   35MOL   H32233030   7.348   3.369   3.266 -1.0146  1.2038  1.4126
   35MOL   H32333031   7.366   3.304   3.429  2.2604  1.3689 -1.2262
   35MOL   H32433032   7.125   3.211   3.381  0.8824 -1.5333 -0.7201
   35MOL   H32533033   7.167   3.244   3.210  1.1222 -0.1648 -0.2036
   35MOL   H32633034   7.128   3.467   3.412  1.2872 -1.9184  0.4592
   35MOL   H32733035   7.169   3.496   3.252 -1.8252  0.5694 -2.0888
   35MOL   H32833036   6.964   3.348   3.195  1.9915  2.5058 -1.5685
   35MOL   H32933037   6.926   3.510   3.270 -1.9705 -1.2309 -0.6993
   35MOL   H33033038   6.773   3.178   3.562 -3.2745 -0.0349  2.9452
   35MOL   H33133039   6.699   3.340   3.555  2.2253  0.4958 -1.0154
   35MOL   H33233040   6.609   3.079   3.420 -0.4321 -1.4878  0.6483
   35MOL   H33333041   6.519   3.228   3.421 -0.8264 -1.0353  0.6146
   35MOL   H33433042   6.518   3.215   3.677 -0.5913 -0.3342 -0.0105
   35MOL   H33533043   6.618   3.076   3.669  1.3465  2.8364  0.0791
   35MOL   H33633044   6.373   3.016   3.726 -0.8208 -1.9884 -0.7487
   35MOL   H33733045   6.418   2.942   3.573  1.2932  0.0756 -1.0575
   35MOL   O33833046   6.234   3.190   3.672 -0.2891 -0.5457 -0.5075
   35MOL   C33933047   6.123   3.270   3.649 -0.4737 -0.1452  0.1950
   35MOL   C34033048   6.143   3.407   3.712 -0.3940 -0.3361 -0.4333
   35MOL   C34133049   6.238   3.502   3.629  0.9191  1.2936 -0.0168
   35MOL   C34233050   6.369   3.520   3.702  0.3986 -0.5883 -0.4593
   35MOL   C34333051   6.463   3.620   3.627 -0.6937  0.1186 -1.6006
   35MOL   C34433052   6.598   3.641   3.699  0.2540  0.5947  0.3121
   35MOL   C34533053   6.680   3.747   3.627  0.0281 -0.6001 -0.2120
   35MOL   C34633054   6.821   3.693   3.580 -0.0713 -0.0092 -0.3230
   35MOL   C34733055   6.911   3.807   3.529 -0.9536 -0.5744 -0.1667
   35MOL   C34833056   7.059   3.770   3.503 -0.3093 -0.8495 -0.7443
   35MOL   O34933057   7.122   3.887   3.441 -0.3615 -0.2169 -0.3363
   35MOL   C35033058   7.194   3.869   3.332  0.2394  0.9812  0.8431
   35MOL   O35133059   7.204   3.762   3.268 -0.0561  0.3210  0.1764
   35MOL   C35233060   7.270   3.984   3.283  0.1352  0.1484  1.0690
   35MOL   C35333061   7.185   4.094   3.225  0.5809 -0.3455 -0.6381
   35MOL   C35433062   7.269   4.190   3.141 -0.0528  0.3371 -0.1878
   35MOL   C35533063   7.185   4.302   3.075 -0.0033  0.5169 -0.1848
   35MOL   C35633064   7.090   4.248   2.966 -0.4665 -0.1901 -0.2839
   35MOL   O35733065   6.972   4.254   2.988 -0.2237  0.0319  0.1695
   35MOL   H35833066   6.104   3.276   3.542  0.9905 -0.0222 -0.0707
   35MOL   H35933067   6.030   3.232   3.691  0.6667 -0.3973  2.5397
   35MOL   H36033068   6.176   3.384   3.814 -1.7505  1.2963  0.3979
   35MOL   H36133069   6.053   3.460   3.742  1.1739  1.3454  1.4547
   35MOL   H36233070   6.265   3.466   3.530  0.8053 -0.2781  0.5140
   35MOL   H36333071   6.206   3.606   3.617 -0.4357  0.6194 -2.5519
   35MOL   H36433072   6.409   3.419   3.707 -0.8011 -1.1348 -1.5509
   35MOL   H36533073   6.343   3.557   3.801  0.8518 -1.5072  0.0092
   35MOL   H36633074   6.410   3.714   3.610 -0.6196  0.3934 -0.3785
   35MOL   H36733075   6.491   3.577   3.531  2.5207 -0.7604 -0.3350
   35MOL   H36833076   6.662   3.553   3.690  0.3970  0.6020  1.2178
   35MOL   H36933077   6.589   3.663   3.805  0.3030 -0.7913  0.6085
   35MOL   H37033078   6.701   3.820   3.704 -2.4127  0.0241 -0.1119
   35MOL   H37133079   6.623   3.796   3.549  1.9008  1.4678 -0.3224
   35MOL   H37233080   6.810   3.608   3.512  0.9596 -0.9944  0.7208
   35MOL   H37333081   6.872   3.659   3.670  0.0441 -1.3025 -0.8626
   35MOL   H37433082   6.862   3.858   3.446 -2.6597 -0.7671  0.6968
   35MOL   H37533083   6.914   3.889   3.602  2.0196 -0.5529 -0.2353
   35MOL   H37633084   7.065   3.677   3.447  0.5860  0.3028 -2.6080
   35MOL   H37733085   7.109   3.742   3.596  1.0238 -0.5090 -1.3436
   35MOL   H37833086   7.304   4.023   3.378 -1.0664 -0.0126  1.5783
   35MOL   H37933087   7.358   3.953   3.226 -0.9171 -1.7707  0.4474
   35MOL   H38033088   7.127   4.145   3.302  0.9050  1.8979 -1.8375
   35MOL   H38133089   7.114   4.048   3.157  0.9187 -0.2756 -1.0461
   35MOL   H38233090   7.333   4.134   3.072 -0.2879  0.3114 -0.3859
   35MOL   H38333091   7.350   4.244   3.188  0.9411  0.6428 -2.1798
   35MOL   H38433092   7.244   4.382   3.030  0.9454  1.8658  3.2757
   35MOL   H38533093   7.140   4.350   3.162  1.4571  0.5149  0.6059
   35MOL   O38633094   7.152   4.203   2.851  0.1169  0.6165  0.4825
   35MOL   C38733095   7.063   4.158   2.750 -0.0914  0.1280  0.5001
   35MOL   C38833096   7.142   4.072   2.649 -0.9220  0.1785  0.3341
   35MOL   C38933097   7.059   4.016   2.533  0.0742 -0.2372 -0.7496
   35MOL   C39033098   6.945   3.912   2.580 -0.2343 -0.3003  0.1890
   35MOL   C39133099   6.979   3.766   2.555  0.3436 -0.0989 -0.3452
   35MOL   C39233100   6.862   3.670   2.570  0.5451  0.0981 -0.0228
   35MOL   C39333101   6.909   3.523   2.562 -0.5246  0.1201 -0.6450
   35MOL   C39433102   6.961   3.478   2.431 -0.1980 -0.2410 -0.3926
   35MOL   C39533103   6.864   3.481   2.317  0.2268 -0.2624  0.4790
   35MOL   C39633104   6.912   3.415   2.189  0.4034  0.1641 -0.1916
   35MOL   O39733105   6.930   3.275   2.206 -0.1841 -1.1428 -0.5311
   35MOL   C39833106   6.976   3.199   2.104 -0.7377  0.6250 -0.2776
   35MOL   O39933107   7.011   3.234   1.989  0.2308  0.0283 -0.5656
   35MOL   C40033108   6.993   3.056   2.153 -0.1461 -0.2608  0.5576
   35MOL   C40133109   6.872   2.963   2.154  0.0635 -0.7479 -0.3482
   35MOL   C40233110   6.770   2.987   2.266  0.2402  0.2013 -0.9373
   35MOL   C40333111   6.811   3.018   2.409 -1.2181 -0.3797 -0.0786
   35MOL   C40433112   6.694   3.028   2.515 -0.6014  0.1036 -0.3817
   35MOL   O40533113   6.706   2.983   2.634 -0.1037  0.4947 -0.4584
   35MOL   H40633114   6.988   4.092   2.791 -0.1362 -0.5368 -0.6290
   35MOL   H40733115   7.010   4.243   2.706 -0.0457  0.4061  0.9779
   35MOL   H40833116   7.188   3.985   2.695  1.9102  1.4812  0.0403
   35MOL   H40933117   7.213   4.135   2.595 -1.1864  0.4026  0.2435
   35MOL   H41033118   7.009   4.102   2.489 -0.6904 -0.2681  0.0543
   35MOL   H41133119   7.117   3.972   2.451  0.8151 -0.5383 -0.0804
   35MOL   H41233120   6.846   3.934   2.541  0.0955  0.8822 -0.0108
   35MOL   H41333121   6.928   3.923   2.687 -2.4158 -0.7116 -0.0988
   35MOL   H41433122   7.057   3.737   2.625 -0.7451  1.2834  1.4731
   35MOL   H41533123   7.026   3.757   2.457  1.4720 -0.3658  0.2161
   35MOL   H41633124   6.807   3.696   2.480 -1.1063 -1.1971  0.5768
   35MOL   H41733125   6.809   3.695   2.663  0.1763  2.1197 -0.7544
   35MOL   H41833126   6.823   3.468   2.599  0.0780 -0.6681 -0.4143
   35MOL   H41933127   6.984   3.509   2.640 -0.0252  2.1277 -0.7347
   35MOL   H42033128   6.990   3.375   2.453 -0.0503 -0.0075  0.5421
   35MOL   H42133129   7.048   3.539   2.409  0.4515 -0.4790  1.4664
   35MOL   H42233130   6.776   3.428   2.356 -0.2487 -0.1410 -0.4261
   35MOL   H42333131   6.827   3.580   2.292 -1.3590 -1.3165 -1.4856
   35MOL   H42433132   7.003   3.455   2.147 -0.9080  1.9767 -1.3710
   35MOL   H42533133   6.837   3.432   2.112  1.2879  0.5966 -0.9555
   35MOL   H42633134   7.054   3.004   2.079 -1.7867 -0.7011 -0.5212
   35MOL   H42733135   7.057   3.060   2.241  1.2887 -1.8169 -0.3963
   35MOL   H42833136   6.898   2.858   2.136  1.8145 -0.6416  1.3975
   35MOL   H42933137   6.821   2.980   2.059 -0.7857 -0.9425  0.0690
   35MOL   H43033138   6.686   2.917   2.265  0.5291 -0.1912  0.6487
   35MOL   H43133139   6.719   3.079   2.236 -0.9725 -0.1781 -0.0769
   35MOL   H43233140   6.865   3.113   2.413 -0.1393 -1.0292  0.8226
   35MOL   H43333141   6.877   2.941   2.448 -0.2050  0.9161  0.8531
   35MOL   O43433142   6.572   3.071   2.464 -0.2084  0.5078  0.1970
   35MOL   C43533143   6.470   3.101   2.559 -0.1514 -0.3543  0.0588
   35MOL   C43633144   6.389   3.231   2.534  0.2178 -0.2150 -0.3553
   35MOL   C43733145   6.482   3.347   2.543 -0.0639 -0.2368 -0.7568
   35MOL   C43833146   6.409   3.475   2.569  0.6264 -0.2073  0.3362
   35MOL   C43933147   6.502   3.591   2.579  0.2549  0.2935  0.2953
   35MOL   C44033148   6.433   3.723   2.573 -0.1605  0.0553  0.1410
   35MOL   C44133149   6.525   3.845   2.604 -0.3269  0.6183  0.0603
   35MOL   C44233150   6.564   3.858   2.752 -0.9784 -0.3823  0.4909
   35MOL   C44333151   6.638   3.983   2.794 -0.2283  0.0704 -0.0087
   35MOL   C44433152   6.700   3.974   2.934 -0.1208 -0.2713 -0.4332
   35MOL   O44533153   6.811   3.888   2.920  0.2917  0.0061 -0.4791
   35MOL   C44633154   6.869   3.831   3.030  0.6133 -0.6621  0.0717
   35MOL   O44733155   6.839   3.843   3.147 -0.2169 -0.5546  0.0545
   35MOL   C44833156   6.972   3.734   2.988 -0.1472 -0.2541 -0.0205
   35MOL   C44933157   7.097   3.796   2.930 -0.9783 -0.1625 -0.0905
   35MOL   C45033158   7.198   3.692   2.873 -0.3581 -0.2620  0.4626
   35MOL   C45133159   7.320   3.747   2.795  0.1462  0.3347  0.2261
   35MOL   C45233160   7.430   3.805   2.881 -0.1443  0.2727  0.6866
   35MOL   O45333161   7.433   3.922   2.916 -0.0351 -0.4560  0.1313
   35MOL   H45433162   6.411   3.010   2.547 -0.3257  0.1549 -3.4294
   35MOL   H45533163   6.516   3.112   2.657 -1.7398  1.3045  0.6293
   35MOL   H45633164   6.313   3.252   2.609  0.5714  1.2867 -0.3892
   35MOL   H45733165   6.351   3.236   2.432  0.7859 -0.3747 -0.5751
   35MOL   H45833166   6.554   3.335   2.624  0.3489  0.6042 -0.9884
   35MOL   H45933167   6.544   3.350   2.453  1.3172 -2.7615  0.0521
   35MOL   H46033168   6.359   3.471   2.666 -0.2116  0.7871 -0.0533
   35MOL   H46133169   6.333   3.485   2.492  0.1202 -2.7017  0.4887
   35MOL   H46233170   6.569   3.605   2.494  0.1850 -2.5450 -0.2785
   35MOL   H46333171   6.553   3.585   2.675  0.3507  0.2466  0.2424
   35MOL   H46433172   6.346   3.733   2.637  0.0157  1.2390  0.2070
   35MOL   H46533173   6.396   3.733   2.471 -0.4145 -0.4514  0.1837
   35MOL   H46633174   6.464   3.930   2.576  0.2746  0.3779 -2.1393
   35MOL   H46733175   6.616   3.854   2.543 -1.0299 -0.2773 -1.1500
   35MOL   H46833176   6.630   3.772   2.764  1.2071  1.3078  0.8806
   35MOL   H46933177   6.483   3.837   2.821 -1.3341 -1.4174 -0.2334
   35MOL   H47033178   6.706   4.011   2.714 -0.8927 -0.7719 -0.8823
   35MOL   H47133179   6.560   4.059   2.791  0.3722  0.8036  2.0809
   35MOL   H47233180   6.629   3.931   3.005  0.9800  0.4502  1.1305
   35MOL   H47333181   6.722   4.073   2.974 -0.4819  0.2588 -1.5457
   35MOL   H47433182   6.988   3.676   3.079  0.1573  0.3901  0.3472
   35MOL   H47533183   6.921   3.676   2.911 -0.6880  1.9029 -1.3494
   35MOL   H47633184   7.145   3.868   2.996 -1.0376  0.0687 -0.2999
   35MOL   H47733185   7.074   3.858   2.843  0.8356  2.3766  1.1707
   35MOL   H47833186   7.131   3.634   2.810 -1.8230  0.9923  0.8060
   35MOL   H47933187   7.236   3.628   2.953  0.4338 -0.7929 -0.3414
   35MOL   H48033188   7.289   3.819   2.720  2.2866  2.6175  1.4597
   35MOL   H48133189   7.376   3.677   2.732  0.3674  0.6653  0.0562
   35MOL   O48233190   7.507   3.698   2.925  0.4259 -0.5917  0.1098
   35MOL   C48333191   7.605   3.722   3.019 -0.3363 -0.3846  0.0453
   35MOL   C48433192   7.560   3.680   3.168  0.0856 -0.7617 -0.0706
   35MOL   C48533193   7.663   3.700   3.281 -0.4092 -0.1404  0.3841
   35MOL   C48633194   7.645   3.616   3.407  0.0186  0.4235  0.3409
   35MOL   C48733195   7.496   3.629   3.459  0.2113 -0.5323 -0.2359
   35MOL   C48833196   7.486   3.568   3.597 -0.1890 -0.1038  0.6278
   35MOL   C48933197   7.350   3.587   3.672  0.0705  0.1432  0.6043
   35MOL   C49033198   7.340   3.512   3.804  0.0690 -0.0093  0.0833
   35MOL   C49133199   7.208   3.556   3.877 -0.6533 -0.5835  0.8379
   35MOL   C49233200   7.193   3.482   4.014 -0.3450 -0.2093 -0.3727
   35MOL   O49333201   7.052   3.500   4.054  0.1176  0.6202  0.2377
   35MOL   C49433202   7.018   3.606   4.138  0.9053 -0.4646  0.3642
   35MOL   O49533203   7.096   3.702   4.160  0.0861  0.0221 -0.0587
   35MOL   C49633204   6.880   3.601   4.205  0.3320 -0.0789 -0.7364
   35MOL   C49733205   6.773   3.637   4.109 -0.4111 -0.2563 -0.1099
   35MOL   C49833206   6.733   3.784   4.136  0.0884  0.8967  0.2818
   35MOL   C49933207   6.687   3.821   4.279 -0.0097  0.7033 -0.3507
   35MOL   C50033208   6.559   3.746   4.319 -0.2956  0.0632 -0.3751
   35MOL   O50133209   6.536   3.706   4.433  0.5526 -0.2009  0.8299
   35MOL   H50233210   7.691   3.662   2.987 -0.1675 -0.5652  0.8171
   35MOL   H50333211   7.645   3.822   3.006 -0.2192 -0.4536 -0.1256
   35MOL   H50433212   7.543   3.573   3.153 -2.0584 -0.1081 -2.6518
   35MOL   H50533213   7.461   3.717   3.194  0.0665  0.6804 -2.0107
   35MOL   H50633214   7.761   3.672   3.241 -0.0317 -0.9950  1.8798
   35MOL   H50733215   7.664   3.807   3.302 -0.4185  0.1551 -1.0459
   35MOL   H50833216   7.720   3.636   3.484  0.0431  0.5183  0.2926
   35MOL   H50933217   7.664   3.511   3.382 -0.9402  0.2486  0.3239
   35MOL   H51033218   7.419   3.586   3.395  0.6986  0.9050 -1.8318
   35MOL   H51133219   7.465   3.733   3.469 -0.3156 -0.6064 -1.0027
   35MOL   H51233220   7.556   3.620   3.663 -1.7020 -0.6696  2.7586
   35MOL   H51333221   7.509   3.464   3.574 -0.5481 -0.0960  0.2402
   35MOL   H51433222   7.266   3.562   3.607  0.4111  0.1017  0.1788
   35MOL   H51533223   7.339   3.695   3.685 -0.7663  0.1893 -0.4246
   35MOL   H51633224   7.425   3.532   3.870  0.1791  0.7626 -0.2746
   35MOL   H51733225   7.351   3.405   3.786  0.1491 -0.0120  0.1518
   35MOL   H51833226   7.202   3.663   3.898 -0.2664 -0.6163  1.1021
   35MOL   H51933227   7.118   3.532   3.820 -0.4214 -2.7250  1.3555
   35MOL   H52033228   7.257   3.518   4.095  2.2383  0.3067 -2.6018
   35MOL   H52133229   7.203   3.374   4.001  0.7639 -0.1880  0.1827
   35MOL   H52233230   6.856   3.497   4.227  0.5445 -0.9101 -4.1188
   35MOL   H52333231   6.887   3.658   4.298 -1.0206  0.2737 -0.8361
   35MOL   H52433232   6.689   3.571   4.130  0.3307 -1.1402  0.1219
   35MOL   H52533233   6.804   3.613   4.008 -0.5984  1.8238 -0.6880
   35MOL   H52633234   6.653   3.793   4.063 -2.3447  1.3099  2.9236
   35MOL   H52733235   6.814   3.856   4.119  0.6929  0.0330 -0.5213
   35MOL   H52833236   6.675   3.929   4.280  3.7051  1.1960 -1.0048
   35MOL   H52933237   6.773   3.812   4.345 -0.6133 -1.0519  0.2079
   35MOL   O53033238   6.481   3.718   4.215 -0.3129  0.1741  0.0589
   35MOL   C53133239   6.364   3.636   4.232 -0.7883  0.0703 -0.1350
   35MOL   C53233240   6.284   3.647   4.107  0.0524 -0.4076  0.0091
   35MOL   C53333241   6.137   3.585   4.115  0.4566  0.2586 -0.3055
   35MOL   C53433242   6.060   3.634   3.994 -0.0540 -0.1421 -0.0189
   35MOL   C53533243   6.014   3.783   4.012 -0.0597 -0.3953 -0.3328
   35MOL   C53633244   5.923   3.826   3.887  0.5249 -0.0341  0.2243
   35MOL   C53733245   6.011   3.836   3.758 -0.5564  0.1986 -0.2575
   35MOL   C53833246   5.919   3.847   3.632  0.0271  0.3356 -0.2464
   35MOL   C53933247   6.003   3.838   3.506 -0.4587 -0.1421  0.6553
   35MOL   C54033248   5.919   3.893   3.384  0.1766 -0.4920 -0.6315
   35MOL   O54133249   5.800   3.820   3.349  0.4806 -0.2293 -0.1114
   35MOL   C54233250   5.722   3.862   3.254 -0.0343 -0.6786 -0.9838
   35MOL   O54333251   5.742   3.958   3.176  0.1837  0.2206  0.1084
   35MOL   C54433252   5.595   3.775   3.237 -0.2420 -0.0086  0.4199
   35MOL   C54533253   5.565   3.744   3.086  0.4807 -0.0208  0.3077
   35MOL   C54633254   5.425   3.682   3.077 -0.3479 -0.1517 -0.1187
   35MOL   C54733255   5.303   3.766   3.120  0.2849 -0.0171  0.5871
   35MOL   C54833256   5.214   3.684   3.223  0.4891 -0.1183  0.4864
   35MOL   O54933257   5.120   3.613   3.187 -0.1213 -0.5288 -0.3058
   35MOL   H55033258   6.389   3.532   4.254 -1.7058 -0.3530 -1.0510
   35MOL   H55133259   6.313   3.674   4.321  1.8723 -0.1322  1.5343
   35MOL   H55233260   6.333   3.600   4.022  1.3995 -1.9957  1.6279
   35MOL   H55333261   6.278   3.753   4.079 -1.8903 -0.0290  1.7288
   35MOL   H55433262   6.150   3.478   4.105  3.1433  0.4945  0.1210
   35MOL   H55533263   6.089   3.622   4.205 -1.3099  0.0638 -1.1574
   35MOL   H55633264   5.970   3.574   3.982  1.8056 -3.2102  0.7655
   35MOL   H55733265   6.124   3.620   3.907 -2.0973  0.6584 -1.6779
   35MOL   H55833266   6.097   3.850   4.036 -0.4903 -0.6724  2.0560
   35MOL   H55933267   5.943   3.789   4.095  1.4261  3.4872  0.7731
   35MOL   H56033268   5.866   3.918   3.906  0.8950 -0.0892  1.6434
   35MOL   H56133269   5.851   3.749   3.861  0.3415 -0.4463  1.9077
   35MOL   H56233270   6.070   3.745   3.748  1.3806  1.5120 -1.2408
   35MOL   H56333271   6.090   3.911   3.753  1.7912 -2.1310  0.7459
   35MOL   H56433272   5.855   3.935   3.640 -1.8034 -1.0172  0.4640
   35MOL   H56533273   5.845   3.768   3.624 -0.0927  0.3738  0.4104
   35MOL   H56633274   6.085   3.909   3.511  0.4490 -1.1325  0.1462
   35MOL   H56733275   6.050   3.743   3.480 -1.1219 -0.0307 -1.0234
   35MOL   H56833276   5.989   3.905   3.302  0.5250  0.3327 -0.2167
   35MOL   H56933277   5.893   3.996   3.406 -0.3503 -0.9020  0.7321
   35MOL   H57033278   5.614   3.682   3.290 -2.4321 -0.7759 -0.1319
   35MOL   H57133279   5.510   3.818   3.291 -0.0786  0.1631  0.5454
   35MOL   H57233280   5.633   3.677   3.034 -1.2307 -1.5957  0.0176
   35MOL   H57333281   5.580   3.827   3.017  2.9491 -1.4795 -0.9274
   35MOL   H57433282   5.430   3.596   3.144 -3.2530  1.3085  2.0809
   35MOL   H57533283   5.407   3.642   2.978  0.3108 -2.6333  0.7333
   35MOL   H57633284   5.241   3.787   3.033 -0.2384 -0.3705  0.8742
   35MOL   H57733285   5.322   3.865   3.162 -2.1576  0.7516 -0.0618
   35MOL   O57833286   5.246   3.716   3.347  0.2223  0.1315 -0.1716
   35MOL   C57933287   5.176   3.657   3.458 -0.7527  0.6521  0.1274
   35MOL   C58033288   5.161   3.773   3.555  0.8924 -0.2423 -0.3372
   35MOL   C58133289   5.069   3.720   3.671 -0.3512  0.5056 -0.0655
   35MOL   C58233290   5.025   3.829   3.770  0.0774 -0.2459 -0.6944
   35MOL   C58333291   4.936   3.781   3.881  0.4567  0.1797  0.1824
   35MOL   C58433292   4.930   3.876   3.999 -0.0183 -0.4411  0.0292
   35MOL   C58533293   5.053   3.867   4.085  0.1479  0.1255 -0.7421
   35MOL   C58633294   5.047   3.966   4.202  0.5169  0.4237 -0.3487
   35MOL   C58733295   5.172   3.976   4.291  0.2942  0.0943  1.0795
   35MOL   C58833296   5.152   4.078   4.403 -0.6485 -0.1579 -0.2091
   35MOL   O58933297   5.220   4.042   4.522  0.0376  0.2218  0.8209
   35MOL   C59033298   5.173   3.957   4.605  0.0115  0.8074 -0.1272
   35MOL   O59133299   5.069   3.891   4.596 -0.3768  0.6436 -0.4477
   35MOL   C59233300   5.249   3.942   4.738  0.4295 -0.1381  0.0389
   35MOL   C59333301   5.405   3.953   4.718  0.5882  0.0158  0.4305
   35MOL   C59433302   5.480   3.980   4.849 -0.0563 -0.0091  0.0445
   35MOL   C59533303   5.629   3.995   4.835 -0.4262  0.0484 -0.1850
   35MOL   C59633304   5.693   3.862   4.789  0.0680  0.2417 -0.1917
   35MOL   O59733305   5.719   3.845   4.668  0.5252 -0.0085  0.1156
   35MOL   H59833306   5.077   3.623   3.426 -0.8068  0.3710  0.5902
   35MOL   H59933307   5.232   3.570   3.493 -0.9606  1.0284  1.4451
   35MOL   H60033308   5.107   3.856   3.511 -0.5871 -0.0374  1.8046
   35MOL   H60133309   5.258   3.807   3.590  0.9550 -0.0129 -0.7362
   35MOL   H60233310   4.979   3.682   3.624  0.0689  0.3614 -0.7637
   35MOL   H60333311   5.120   3.635   3.717  0.5081  0.8019 -0.4563
   35MOL   H60433312   4.985   3.920   3.725  2.2643  1.0821 -0.0460
   35MOL   H60533313   5.122   3.856   3.812 -0.6519 -0.9588  1.4863
   35MOL   H60633314   4.972   3.683   3.913 -1.3604 -0.6400 -0.2166
   35MOL   H60733315   4.837   3.774   3.835  0.3878  0.2011  0.3278
   35MOL   H60833316   4.839   3.879   4.059  2.0307  2.7674  3.1869
   35MOL   H60933317   4.934   3.975   3.955 -0.3070  0.3751  1.7848
   35MOL   H61033318   5.149   3.884   4.036  0.8813 -1.7366  0.0255
   35MOL   H61133319   5.049   3.763   4.117  0.5513 -0.1863 -1.6719
   35MOL   H61233320   4.964   3.942   4.268  0.0694  0.4827 -0.8860
   35MOL   H61333321   5.024   4.067   4.168 -1.6551  0.4260  0.9728
   35MOL   H61433322   5.190   3.877   4.334 -0.3151 -0.4998 -0.0032
   35MOL   H61533323   5.264   3.998   4.237 -0.8911 -0.0826 -1.0673
   35MOL   H61633324   5.047   4.096   4.426 -0.1742  2.5113  0.0135
   35MOL   H61733325   5.197   4.170   4.367 -0.1424 -1.6281 -3.4915
   35MOL   H61833326   5.219   4.022   4.805  1.7474 -0.5232  1.1239
   35MOL   H61933327   5.222   3.851   4.791  0.1686  1.2492  2.3545
   35MOL   H62033328   5.427   4.028   4.643  1.0287 -0.3327  0.2101
   35MOL   H62133329   5.424   3.855   4.674  1.5279  1.5214 -2.6397
   35MOL   H62233330   5.446   3.904   4.919  0.5307  0.6936  1.1031
   35MOL   H62333331   5.427   4.061   4.899  0.4997  0.7595 -0.5975
   35MOL   H62433332   5.681   4.013   4.929 -3.2579 -1.0454  1.6691
   35MOL   H62533333   5.652   4.068   4.757 -0.9121 -1.7658 -2.0767
   35MOL   O62633334   5.699   3.773   4.883  0.3157 -0.6438 -0.5549
   35MOL   C62733335   5.769   3.649   4.873  0.4360 -0.1764 -0.2111
   35MOL   C62833336   5.678   3.539   4.829  0.3330  0.3107 -0.0491
   35MOL   C62933337   5.742   3.396   4.846 -0.7183 -0.2516  0.3333
   35MOL   C63033338   5.668   3.288   4.774  0.7611  0.6559  0.0751
   35MOL   C63133339   5.724   3.154   4.798  0.5892  0.3338 -0.2457
   35MOL   C63233340   5.729   3.099   4.946  0.2078  0.2875 -0.0348
   35MOL   C63333341   5.775   2.957   4.954 -0.0064 -0.0132  0.3585
   35MOL   C63433342   5.763   2.901   5.094  0.0514 -0.2937 -0.2835
   35MOL   C63533343   5.791   2.753   5.110  0.1151  0.2052  0.7550
   35MOL   C63633344   5.795   2.696   5.253 -0.3850 -0.5542 -0.4164
   35MOL   O63733345   5.663   2.675   5.297  0.4473  0.5107 -0.5415
   35MOL   C63833346   5.592   2.572   5.256 -0.1061 -0.1274 -0.3959
   35MOL   O63933347   5.634   2.486   5.182 -0.9312  0.0553 -0.2090
   35MOL   C64033348   5.453   2.565   5.306  0.5505  0.5180 -0.3162
   35MOL   C64133349   5.411   2.644   5.433 -0.0746 -0.0868  0.2030
   35MOL   C64233350   5.290   2.574   5.492  0.2435  0.9230 -0.2955
   35MOL   C64333351   5.319   2.437   5.558  0.2762 -1.4729  0.2691
   35MOL   C64433352   5.196   2.383   5.624  0.1105 -0.3737 -0.5114
   35MOL   O64533353   5.155   2.275   5.596 -0.2120 -0.2660  0.3520
   35MOL   H64633354   5.851   3.662   4.803  1.0550  1.0498  0.7340
   35MOL   H64733355   5.815   3.626   4.970  0.8215 -0.8666 -0.5577
   35MOL   H64833356   5.670   3.556   4.722 -0.6617 -3.1057 -0.5661
   35MOL   H64933357   5.584   3.539   4.885  1.3563  1.2936  1.7242
   35MOL   H65033358   5.846   3.400   4.813 -1.3834  1.6597 -1.6449
   35MOL   H65133359   5.757   3.384   4.954 -0.8152 -0.8199  0.2811
   35MOL   H65233360   5.676   3.303   4.667  2.0714  0.5372  0.1532
   35MOL   H65333361   5.566   3.274   4.810  0.1595  2.5545 -0.8341
   35MOL   H65433362   5.825   3.158   4.757  0.9650 -1.5427  0.4495
   35MOL   H65533363   5.675   3.077   4.740  0.4697  0.5316 -0.4080
   35MOL   H65633364   5.636   3.107   5.003  1.2207  1.3302  1.5257
   35MOL   H65733365   5.792   3.167   5.003 -0.6240  0.8821  0.1919
   35MOL   H65833366   5.875   2.947   4.911  0.0521 -0.6677  0.6525
   35MOL   H65933367   5.707   2.893   4.897 -0.7943  0.2547  0.9865
   35MOL   H66033368   5.660   2.912   5.128  0.2483  0.8047 -0.0332
   35MOL   H66133369   5.829   2.951   5.166  0.3243  0.7843 -1.2674
   35MOL   H66233370   5.724   2.698   5.044  0.8714  0.3300 -0.1256
   35MOL   H66333371   5.890   2.730   5.070 -0.4834 -2.2075  0.5612
   35MOL   H66433372   5.861   2.765   5.306 -0.3120 -2.1379  1.5935
   35MOL   H66533373   5.849   2.602   5.255 -3.3402 -2.2939  2.5376
   35MOL   H66633374   5.392   2.592   5.220 -0.4454  2.1589  0.8685
   35MOL   H66733375   5.432   2.459   5.317  0.2243  0.4330 -1.6481
   35MOL   H66833376   5.380   2.747   5.415 -0.0195 -0.3597 -1.5242
   35MOL   H66933377   5.483   2.646   5.515  0.0407 -0.7168  0.1203
   35MOL   H67033378   5.217   2.558   5.413 -0.9075 -0.1571  0.9652
   35MOL   H67133379   5.238   2.645   5.556 -0.5323 -1.2469  1.5291
   35MOL   H67233380   5.404   2.429   5.626  0.9820 -0.5379 -0.4673
   35MOL   H67333381   5.350   2.361   5.486 -2.6184 -0.5547 -2.0485
   35MOL   O67433382   5.146   2.464   5.712  0.6221 -0.0721  0.0943
   35MOL   C67533383   5.034   2.418   5.791  0.5137 -0.0243  0.1237
   35MOL   C67633384   4.909   2.488   5.752 -0.0741  0.6996 -0.9106
   35MOL   C67733385   4.904   2.638   5.783  0.1353 -0.1760 -0.0722
   35MOL   C67833386   4.865   2.671   5.927  0.0855 -0.1810  0.3827
   35MOL   C67933387   4.844   2.819   5.956  0.6364  0.4006  0.3458
   35MOL   C68033388   4.786   2.837   6.099 -0.0142 -0.1426  0.2218
   35MOL   C68133389   4.754   2.982   6.136 -0.1959  0.3752 -0.2737
   35MOL   C68233390   4.872   3.060   6.205  0.0080 -0.3716  0.5713
   35MOL   C68333391   4.833   3.202   6.253  0.1022  0.0132  0.0467
   35MOL   C68433392   4.963   3.276   6.281 -0.0727 -0.4233  0.2913
   35MOL   O68533393   5.017   3.242   6.411 -0.8861 -0.2976 -0.0857
   35MOL   C68633394   5.142   3.282   6.435 -0.9195  0.5826  0.1196
   35MOL   O68733395   5.219   3.331   6.351  0.1093  0.1799 -0.5404
   35MOL   C68833396   5.178   3.258   6.584  0.5885 -0.2092  0.3138
   35MOL   C68933397   5.195   3.111   6.613  0.5215  0.6429 -0.1400
   35MOL   C69033398   5.225   3.095   6.760 -0.2112 -0.7015 -0.4479
   35MOL   C69133399   5.212   2.948   6.810 -0.2908  0.2002  0.1050
   35MOL   C69233400   5.068   2.898   6.810 -0.7904  0.3679  0.2273
   35MOL   O69333401   5.043   2.783   6.778  0.2578 -0.1223 -0.7902
   35MOL   H69433402   5.018   2.312   5.774  1.4434  0.1649 -2.1532
   35MOL   H69533403   5.051   2.446   5.895  0.7932 -0.8981  0.3212
   35MOL   H69633404   4.825   2.436   5.798  0.4489  1.3607  0.8581
   35MOL   H69733405   4.891   2.478   5.645  1.7044 -3.2596 -0.9258
   35MOL   H69833406   4.993   2.688   5.746  0.6930 -1.8538 -1.0818
   35MOL   H69933407   4.822   2.674   5.721  0.4506  1.3584  0.3787
   35MOL   H70033408   4.935   2.623   5.996  1.5155 -0.2691 -1.0985
   35MOL   H70133409   4.769   2.633   5.963  0.6124 -1.2782  0.6689
   35MOL   H70233410   4.792   2.880   5.881  0.5979  1.7995  1.5023
   35MOL   H70333411   4.943   2.864   5.963  1.7692 -2.0683  0.7909
   35MOL   H70433412   4.859   2.791   6.166  2.1496  0.1176 -1.8877
   35MOL   H70533413   4.696   2.774   6.103  1.1523 -1.7915  1.5492
   35MOL   H70633414   4.675   2.986   6.210 -0.5651 -1.0135 -0.5787
   35MOL   H70733415   4.724   3.049   6.055  0.2002  0.4317 -0.3779
   35MOL   H70833416   4.953   3.066   6.132 -4.5563 -0.3363 -4.7846
   35MOL   H70933417   4.909   2.996   6.285 -1.9582 -2.1213  0.1282
   35MOL   H71033418   4.784   3.265   6.179 -0.2252 -1.4362 -1.0195
   35MOL   H71133419   4.766   3.206   6.339 -0.1774 -0.5805 -0.1357
   35MOL   H71233420   4.951   3.384   6.274 -0.9311 -0.4614  0.9943
   35MOL   H71333421   5.034   3.246   6.205  2.0720  1.5962  1.4490
   35MOL   H71433422   5.273   3.307   6.607 -0.0584  2.1010 -1.7150
   35MOL   H71533423   5.105   3.311   6.645  0.1896  1.5721 -1.6211
   35MOL   H71633424   5.280   3.069   6.558  1.4988  1.0505  1.0378
   35MOL   H71733425   5.106   3.055   6.586 -0.3355  1.4734  0.9359
   35MOL   H71833426   5.169   3.156   6.831 -0.1754 -0.6766 -0.4407
   35MOL   H71933427   5.330   3.124   6.771 -0.3333 -0.4849  0.1874
   35MOL   H72033428   5.260   2.939   6.907 -1.0120 -3.3614  0.2089
   35MOL   H72133429   5.262   2.880   6.741 -1.6330 -1.4171  0.6964
   35MOL   O72233430   4.980   2.984   6.842  0.5316 -0.0379 -0.1123
   35MOL   C72333431   4.849   2.955   6.842 -0.5834  0.1564 -0.2179
   35MOL   C72433432   4.797   3.034   6.725  0.8280  0.3596  0.4805
   35MOL   C72533433   4.798   3.181   6.754  0.1437  0.0163  0.2656
   35MOL   C72633434   4.738   3.259   6.633 -0.5241 -0.1142 -0.3166
   35MOL   C72733435   4.760   3.413   6.636 -0.5927  0.6170 -0.8546
   35MOL   C72833436   4.700   3.486   6.510 -0.3307  0.3030 -0.2676
   35MOL   C72933437   4.762   3.626   6.496 -0.5729  0.0936  0.3272
   35MOL   C73033438   4.776   3.650   6.339 -0.4555 -0.4363 -0.0415
   35MOL   C73133439   4.808   3.797   6.298  0.4009  0.2613  0.2159
   35MOL   C73233440   4.806   3.814   6.148 -0.0368 -0.5823 -0.0050
   35MOL   O73333441   4.680   3.773   6.098 -0.2707 -0.2101 -0.1788
   35MOL   C73433442   4.579   3.850   6.096  0.1278  0.1507  0.1778
   35MOL   O73533443   4.581   3.969   6.133 -0.1900 -0.0473 -0.5406
   35MOL   C73633444   4.461   3.785   6.031  0.0717  0.7097 -0.3293
   35MOL   C73733445   4.355   3.877   5.972  0.0059 -0.6441  0.0564
   35MOL   C73833446   4.367   3.885   5.816 -0.3641  0.3406 -0.2549
   35MOL   C73933447   4.253   3.978   5.749 -0.0818  0.3291 -0.2345
   35MOL   C74033448   4.267   4.119   5.805  0.5222  0.5371 -0.2807
   35MOL   O74133449   4.176   4.174   5.859  0.0937  0.4065  0.0615
   35MOL   H74233450   4.816   2.853   6.860 -0.5752  0.6504  2.9817
   35MOL   H74333451   4.816   3.008   6.932 -0.4547  0.9672 -0.6413
   35MOL   H74433452   4.694   3.011   6.696  0.5411  1.9872  0.1651
   35MOL   H74533453   4.854   2.998   6.639 -0.4909 -0.6769  0.0106
   35MOL   H74633454   4.744   3.191   6.848 -0.1602 -0.0047  0.0961
   35MOL   H74733455   4.901   3.213   6.768  0.5648 -1.0650 -0.2701
   35MOL   H74833456   4.632   3.235   6.620 -0.3371 -0.3772 -1.3948
   35MOL   H74933457   4.790   3.219   6.546 -2.1326 -1.7405 -0.5681
   35MOL   H75033458   4.864   3.438   6.653 -0.0314 -0.5936 -2.3595
   35MOL   H75133459   4.714   3.459   6.723  0.3417  0.5249 -0.3114
   35MOL   H75233460   4.591   3.493   6.510 -0.2126  2.6725 -0.8764
   35MOL   H75333461   4.733   3.426   6.425 -0.3545 -3.4635  2.2548
   35MOL   H75433462   4.858   3.634   6.548 -0.8136 -0.1300  0.8067
   35MOL   H75533463   4.694   3.704   6.528  1.2334  2.3918 -1.2764
   35MOL   H75633464   4.685   3.618   6.288  0.1150 -1.9431 -0.1232
   35MOL   H75733465   4.862   3.593   6.306  0.0422  1.5897 -2.3578
   35MOL   H75833466   4.735   3.858   6.350  1.2017 -1.2624  3.2391
   35MOL   H75933467   4.913   3.817   6.321 -0.6403  4.0001  2.0169
   35MOL   H76033468   4.880   3.758   6.092  0.0202  0.4531 -0.9830
   35MOL   H76133469   4.828   3.917   6.118 -0.9100 -0.4993 -0.3787
   35MOL   H76233470   4.501   3.720   5.953 -2.2036  0.7831 -1.6236
   35MOL   H76333471   4.408   3.728   6.108 -2.1786  2.4602 -0.5172
   35MOL   H76433472   4.345   3.974   6.022 -1.5797 -1.5436  1.5004
   35MOL   H76533473   4.255   3.841   5.994  0.3475 -1.1784  0.7527
   35MOL   H76633474   4.355   3.786   5.771 -0.3502  0.5793 -0.7751
   35MOL   H76733475   4.465   3.911   5.777 -0.8089 -0.4572 -1.9302
   35MOL   H76833476   4.154   3.944   5.779  0.9690 -2.8669 -0.2631
   35MOL   H76933477   4.252   3.967   5.641  0.8721 -0.2717 -0.1809
   35MOL   O77033478   4.390   4.172   5.774  0.0246 -0.0883 -0.2045
   35MOL   C77133479   4.413   4.303   5.828 -0.7181  0.5182  0.3595
   35MOL   C77233480   4.534   4.302   5.925  0.5170 -0.8391  0.0884
   35MOL   C77333481   4.658   4.234   5.863 -1.3696  0.0857  0.2813
   35MOL   C77433482   4.781   4.265   5.953 -0.4011 -0.3247 -0.1797
   35MOL   C77533483   4.897   4.176   5.931  0.4266  0.3935  0.7353
   35MOL   C77633484   5.012   4.202   6.029  0.3410 -0.3856  0.4675
   35MOL   C77733485   5.132   4.109   6.027  0.1508 -0.3574  0.2594
   35MOL   C77833486   5.239   4.144   6.135 -0.2075  0.2808  0.0369
   35MOL   C77933487   5.365   4.058   6.117  0.4212 -0.2248  0.4519
   35MOL   C78033488   5.486   4.089   6.204 -0.1189  0.7553  0.1412
   35MOL   O78133489   5.567   3.970   6.225 -0.5195  0.1466 -0.0575
   35MOL   C78233490   5.685   3.964   6.159 -0.8126 -0.0303 -0.1685
   35MOL   O78333491   5.728   4.041   6.077  0.7283 -0.4423 -0.0152
   35MOL   C78433492   5.752   3.828   6.203 -0.4514  0.7820 -1.2320
   35MOL   C78533493   5.801   3.821   6.347 -0.5213 -0.1600 -0.4795
   35MOL   C78633494   5.870   3.691   6.393  0.0724  0.0369 -0.0354
   35MOL   C78733495   5.874   3.667   6.545 -0.3275 -0.3192  0.6625
   35MOL   C78833496   5.977   3.755   6.623  0.6103 -0.5039 -0.2623
   35MOL   O78933497   5.945   3.809   6.729  0.2625  0.2000  0.2789
   35MOL   H79033498   4.438   4.356   5.736 -0.4159 -0.3880 -0.0945
   35MOL   H79133499   4.324   4.350   5.869  0.2867  1.9341  0.9721
   35MOL   H79233500   4.505   4.261   6.021  1.8897  1.2756  1.4388
   35MOL   H79333501   4.546   4.409   5.944 -2.7447 -0.6253  1.3285
   35MOL   H79433502   4.635   4.127   5.853  0.5458 -0.1431 -2.2969
   35MOL   H79533503   4.676   4.272   5.762  1.2037  0.1949  0.7523
   35MOL   H79633504   4.745   4.260   6.056 -2.3668 -0.8431 -0.8680
   35MOL   H79733505   4.810   4.370   5.952 -0.0611 -0.4077  0.8946
   35MOL   H79833506   4.930   4.178   5.827 -1.7431  0.8423  0.0361
   35MOL   H79933507   4.859   4.075   5.947  0.8398  0.2073  0.5454
   35MOL   H80033508   4.975   4.197   6.131 -1.7002  1.1052 -0.1672
   35MOL   H80133509   5.043   4.305   6.013 -1.9873  0.4686  1.1640
   35MOL   H80233510   5.169   4.132   5.927  0.9608  0.5595  0.7552
   35MOL   H80333511   5.114   4.002   6.035  0.9549 -0.7369 -2.5784
   35MOL   H80433512   5.193   4.121   6.231 -0.4380  2.0624  0.3664
   35MOL   H80533513   5.261   4.250   6.125 -1.8845  0.5219 -1.2078
   35MOL   H80633514   5.342   3.957   6.152 -1.5760  1.1731  3.3686
   35MOL   H80733515   5.383   4.051   6.010  3.7798 -0.1323  0.9524
   35MOL   H80833516   5.448   4.126   6.299  1.8971  2.8232  0.1985
   35MOL   H80933517   5.550   4.166   6.160  0.7902 -0.6524 -1.0617
   35MOL   H81033518   5.677   3.748   6.208  0.8974 -0.3702  1.1164
   35MOL   H81133519   5.828   3.799   6.130 -0.1863 -1.7718  0.0053
   35MOL   H81233520   5.708   3.823   6.403 -0.4458 -0.9504 -0.3238
   35MOL   H81333521   5.864   3.906   6.372  2.9607 -2.9947  0.8038
   35MOL   H81433522   5.973   3.700   6.358 -0.2028  1.7045 -0.4971
   35MOL   H81533523   5.835   3.603   6.340  0.6532 -1.0991  1.4442
   35MOL   H81633524   5.903   3.562   6.550 -1.6163 -0.6450  1.7652
   35MOL   H81733525   5.774   3.680   6.587 -0.6350 -0.5208 -0.0122
   35MOL   O81833526   6.089   3.776   6.551 -0.4677  0.1158 -0.1767
   35MOL   C81933527   6.179   3.866   6.606 -0.2834 -0.3059 -0.2655
   35MOL   C82033528   6.238   3.946   6.496  0.1682  0.0487  0.5099
   35MOL   C82133529   6.186   4.087   6.499 -0.0642  0.0535 -0.0677
   35MOL   C82233530   6.272   4.190   6.422 -0.4190 -0.4242  0.4789
   35MOL   C82333531   6.214   4.333   6.420  0.3049  0.2710  0.4664
   35MOL   C82433532   6.302   4.443   6.361 -0.9117  0.2933 -0.6706
   35MOL   C82533533   6.252   4.583   6.394 -0.1874 -0.4808 -0.2567
   35MOL   C82633534   6.367   4.687   6.350  0.4011  0.3775  0.2699
   35MOL   C82733535   6.401   4.680   6.204 -0.0624 -0.2069 -0.1804
   35MOL   C82833536   6.516   4.778   6.170 -0.3280 -0.4134  0.2756
   35MOL   O82933537   6.534   4.787   6.031  0.1399  0.6197 -0.2148
   35MOL   C83033538   6.616   4.883   5.975 -0.9458 -0.4164  0.5042
   35MOL   O83133539   6.673   4.975   6.034  0.0296  0.6907  0.0071
   35MOL   C83233540   6.621   4.875   5.827  0.0707 -0.0892  0.2342
   35MOL   C83333541   6.693   4.988   5.759 -0.5990  0.0845  0.0944
   35MOL   C83433542   6.649   4.991   5.617 -0.6339 -0.0655  0.2583
   35MOL   C83533543   6.711   5.100   5.533 -0.0194 -0.5929  0.3919
   35MOL   C83633544   6.652   5.243   5.554 -0.2905  0.4391  1.0189
   35MOL   O83733545   6.587   5.296   5.463 -0.1301  0.0020 -0.1949
   35MOL   H83833546   6.133   3.931   6.680 -0.3690 -1.4386  0.6869
   35MOL   H83933547   6.256   3.811   6.661 -0.6115 -1.0335 -0.5343
   35MOL   H84033548   6.197   3.913   6.401 -2.5727  1.6713  1.0765
   35MOL   H84133549   6.347   3.947   6.488  0.0709 -2.5644 -1.4183
   35MOL   H84233550   6.079   4.093   6.481  0.0768 -0.9677 -1.3163
   35MOL   H84333551   6.209   4.121   6.600  0.7743  0.5049 -0.3961
   35MOL   H84433552   6.276   4.162   6.317 -0.5048  0.2781  0.2858
   35MOL   H84533553   6.370   4.186   6.469  0.3641 -0.0875 -1.0924
   35MOL   H84633554   6.179   4.354   6.521  0.4721 -2.0081  1.0223
   35MOL   H84733555   6.126   4.341   6.356  0.9925  1.7182 -0.3278
   35MOL   H84833556   6.318   4.426   6.254  0.1196  0.3817 -0.5344
   35MOL   H84933557   6.399   4.433   6.410 -2.6676 -1.3334  2.5846
   35MOL   H85033558   6.219   4.590   6.498  2.4190 -2.5632  0.7728
   35MOL   H85133559   6.164   4.607   6.335  1.2442  0.0022 -2.2527
   35MOL   H85233560   6.460   4.685   6.407  1.6547  1.4402 -1.6909
   35MOL   H85333561   6.349   4.791   6.377  2.3682  0.9972 -0.6767
   35MOL   H85433562   6.438   4.583   6.172 -1.3943 -0.4004 -1.1440
   35MOL   H85533563   6.307   4.710   6.158 -1.5420 -1.5315  1.8745
   35MOL   H85633564   6.616   4.745   6.201 -0.6163 -3.7187 -2.0555
   35MOL   H85733565   6.504   4.870   6.227 -0.1787 -0.1945 -0.0499
   35MOL   H85833566   6.636   4.775   5.788 -0.8637 -0.2547  0.2752
   35MOL   H85933567   6.515   4.894   5.806  0.0582 -2.5682 -2.1959
   35MOL   H86033568   6.800   4.966   5.762 -0.3916  0.9763 -0.4846
   35MOL   H86133569   6.674   5.086   5.804  0.3985  1.3112 -2.0740
   35MOL   H86233570   6.540   4.998   5.624 -0.7906 -2.2919  0.4972
   35MOL   H86333571   6.670   4.904   5.556 -1.8556  1.1742 -1.9767
   35MOL   H86433572   6.701   5.067   5.430  1.0458  0.9200 -0.2161
   35MOL   H86533573   6.818   5.111   5.552 -0.5987 -0.2379  3.7028
   35MOL   O86633574   6.687   5.293   5.678  0.4133 -0.0828  0.0661
   35MOL   C86733575   6.641   5.418   5.739 -0.6771  0.0050  0.4020
   35MOL   C86833576   6.499   5.387   5.805 -0.0672  0.1559  0.3690
   35MOL   C86933577   6.442   5.507   5.884 -0.5943 -0.1482  0.4199
   35MOL   C87033578   6.304   5.468   5.946 -0.4016 -0.3994  0.0952
   35MOL   C87133579   6.266   5.575   6.052  0.2293  0.1152  0.1549
   35MOL   C87233580   6.109   5.576   6.058 -0.3295 -0.1723 -0.3466
   35MOL   C87333581   6.039   5.443   6.078 -0.4215 -0.2432 -0.0476
   35MOL   C87433582   5.891   5.462   6.098  0.3876 -0.4339  0.0778
   35MOL   C87533583   5.819   5.329   6.138  0.3739  0.8586  0.1986
   35MOL   C87633584   5.659   5.338   6.139  0.5191 -0.2845 -0.6072
   35MOL   O87733585   5.629   5.397   6.263  0.6815  0.2996  0.6592
   35MOL   C87833586   5.519   5.373   6.331  0.4396 -0.4362 -0.1891
   35MOL   O87933587   5.433   5.291   6.294 -0.6261 -0.2716  0.2397
   35MOL   C88033588   5.504   5.439   6.460 -0.3511  0.8507  0.0455
   35MOL   C88133589   5.544   5.583   6.484 -0.0347 -0.3399 -0.0454
   35MOL   C88233590   5.498   5.632   6.626  0.1480  0.3390  0.1567
   35MOL   C88333591   5.467   5.777   6.615 -0.4442  0.4214 -0.7686
   35MOL   C88433592   5.433   5.843   6.752 -1.2980 -0.1685  0.1476
   35MOL   O88533593   5.504   5.932   6.791 -0.5031 -0.3792 -0.0224
   35MOL   H88633594   6.705   5.447   5.822 -1.9380 -1.6969  1.9915
   35MOL   H88733595   6.629   5.493   5.661  0.0145 -0.7160 -0.4022
   35MOL   H88833596   6.513   5.307   5.877  0.1334  0.8290  1.0914
   35MOL   H88933597   6.430   5.351   5.729  1.1717  2.1406 -1.7832
   35MOL   H89033598   6.513   5.524   5.965  0.0876 -0.5712 -0.0814
   35MOL   H89133599   6.440   5.591   5.814 -0.9738 -0.6071 -0.1236
   35MOL   H89233600   6.310   5.365   5.980  1.9893 -1.2841 -2.8622
   35MOL   H89333601   6.228   5.468   5.867  0.4208  0.2690 -0.7064
   35MOL   H89433602   6.290   5.679   6.029 -3.3068  0.4989 -2.3240
   35MOL   H89533603   6.285   5.544   6.155 -1.6106 -0.0221  0.4697
   35MOL   H89633604   6.063   5.629   5.974  0.9914  1.7780  0.1333
   35MOL   H89733605   6.079   5.638   6.142 -0.1680  1.8278 -1.7171
   35MOL   H89833606   6.089   5.390   6.159 -2.9482 -0.2188  1.5621
   35MOL   H89933607   6.050   5.387   5.985 -1.2495 -0.7731  0.1707
   35MOL   H90033608   5.844   5.506   6.010  1.5048 -0.3864 -0.4978
   35MOL   H90133609   5.879   5.524   6.187  0.1557 -2.3598  1.4129
   35MOL   H90233610   5.847   5.260   6.059  2.2527  2.3263 -0.4357
   35MOL   H90333611   5.864   5.282   6.225  1.3412 -4.3735 -2.9394
   35MOL   H90433612   5.619   5.239   6.116  0.0437 -0.7373  2.0672
   35MOL   H90533613   5.625   5.407   6.061  1.0707 -0.7284 -1.2469
   35MOL   H90633614   5.402   5.418   6.491  0.5767  0.1546  2.7958
   35MOL   H90733615   5.570   5.374   6.519 -1.3383 -1.2433 -1.0990
   35MOL   H90833616   5.481   5.632   6.411 -0.0417 -1.2498 -0.6559
   35MOL   H90933617   5.649   5.608   6.465  0.0402 -0.8664 -0.3264
   35MOL   H91033618   5.560   5.601   6.710 -0.1849  2.0234  1.0423
   35MOL   H91133619   5.403   5.586   6.653 -1.3444  3.6050  0.7459
   35MOL   H91233620   5.374   5.788   6.559 -1.6040  1.8247  1.3789
   35MOL   H91333621   5.554   5.827   6.570 -0.1988  0.4620 -0.2471
   35MOL   O91433622   5.327   5.788   6.816  0.3005 -0.0026  0.6470
   35MOL   C91533623   5.313   5.824   6.950  0.3250  1.2486 -0.4691
   35MOL   C91633624   5.184   5.766   6.999  0.3211  0.2358 -0.5714
   35MOL   C91733625   5.160   5.615   6.976 -0.2240  0.4264 -0.0413
   35MOL   C91833626   5.224   5.528   7.082 -0.9826 -0.2238 -0.5475
   35MOL   C91933627   5.376   5.494   7.065 -0.1577  0.1825 -0.4019
   35MOL   C92033628   5.418   5.411   6.949 -0.3424  0.5658 -0.0805
   35MOL   C92133629   5.351   5.271   6.953 -0.5366  0.1593  0.3495
   35MOL   C92233630   5.438   5.164   6.883  0.3738 -0.4221 -0.4417
   35MOL   C92333631   5.388   5.021   6.882 -0.2592 -0.8409 -0.0295
   35MOL   C92433632   5.466   4.917   6.811 -0.1376 -0.3618  0.7076
   35MOL   O92533633   5.478   4.959   6.675 -0.2773  0.0230  0.0194
   35MOL   C92633634   5.414   4.898   6.578  0.3207 -0.3419  0.3207
   35MOL   O92733635   5.342   4.798   6.577  0.3025 -0.3135  0.0563
   35MOL   C92833636   5.434   4.982   6.452  0.1299  0.7594  0.5525
   35MOL   C92933637   5.548   4.940   6.351 -0.3928 -0.1975  0.0866
   35MOL   C93033638   5.693   4.989   6.395  0.3727  0.0667 -0.0549
   35MOL   C93133639   5.798   4.978   6.282 -0.2629 -0.4036  0.8274
   35MOL   C93233640   5.836   4.832   6.254  0.2563  0.5868  0.0173
   35MOL   O93333641   5.941   4.787   6.310 -0.6097 -0.5020  0.1335
   35MOL   H93433642   5.395   5.801   7.018  1.4617  0.2172 -2.1566
   35MOL   H93533643   5.306   5.932   6.948 -0.1472  1.2487  0.7747
   35MOL   H93633644   5.105   5.811   6.939  1.3331  1.0641 -1.2969
   35MOL   H93733645   5.161   5.790   7.103  1.0701  0.8718 -0.5474
   35MOL   H93833646   5.053   5.594   6.986 -0.0765 -1.5937 -2.1792
   35MOL   H93933647   5.202   5.590   6.879 -0.1339  2.9625 -0.6643
   35MOL   H94033648   5.187   5.426   7.087  1.3603 -0.9900  1.7835
   35MOL   H94133649   5.211   5.570   7.182  0.2668  0.8912 -0.8342
   35MOL   H94233650   5.403   5.439   7.155  1.8654 -1.9386 -2.2341
   35MOL   H94333651   5.437   5.584   7.054  1.9757 -1.4633 -2.5975
   35MOL   H94433652   5.526   5.401   6.946 -0.4410 -0.3371 -1.1919
   35MOL   H94533653   5.399   5.467   6.857 -0.9472 -1.1203 -1.0045
   35MOL   H94633654   5.266   5.304   6.893  0.7619  1.9296 -0.5853
   35MOL   H94733655   5.316   5.235   7.049  2.9575 -2.0344  0.8748
   35MOL   H94833656   5.533   5.176   6.935  1.0643 -1.2458 -1.5085
   35MOL   H94933657   5.454   5.193   6.779  0.9193  2.0648  0.3005
   35MOL   H95033658   5.375   4.981   6.983  1.7155 -0.5854  0.3443
   35MOL   H95133659   5.293   5.027   6.828  0.3482  0.3406 -0.9961
   35MOL   H95233660   5.419   4.819   6.816  1.0676 -1.1567 -2.5529
   35MOL   H95333661   5.569   4.907   6.847 -0.7589  0.4220  2.8040
   35MOL   H95433662   5.344   4.973   6.391  0.7847 -0.6948 -0.2208
   35MOL   H95533663   5.438   5.087   6.483 -2.3729  0.4664  1.9873
   35MOL   H95633664   5.517   4.984   6.257  1.2687 -2.7558 -1.7215
   35MOL   H95733665   5.538   4.832   6.338 -1.0011 -0.0313 -0.8120
   35MOL   H95833666   5.722   4.927   6.480  1.9554  0.1728 -0.5197
   35MOL   H95933667   5.684   5.091   6.433 -2.4136 -0.6818  1.4945
   35MOL   H96033668   5.888   5.027   6.317  0.8727 -1.4794 -0.5292
   35MOL   H96133669   5.763   5.020   6.187  0.9292  1.9663  1.3891
   35MOL   H96233670   5.780   4.780   6.177  0.0807 -1.9261  1.7862
   36MOL     O133671   3.759   2.004   0.905  0.6005 -0.1846 -0.1185
   36MOL     C233672   3.691   2.020   0.781 -0.4728  0.3848 -0.1941
   36MOL     C333673   3.563   2.106   0.800 -0.0091 -0.1153  1.0818
   36MOL     C433674   3.582   2.258   0.786 -0.1109 -0.4509  0.1243
   36MOL     C533675   3.590   2.312   0.639 -0.0276 -0.9169  0.5816
   36MOL     C633676   3.622   2.464   0.644 -0.2922  0.5026  0.3092
   36MOL     C733677   3.643   2.515   0.504  0.0774  0.1521 -0.0466
   36MOL     C833678   3.665   2.666   0.499 -0.2245 -0.0727  0.3700
   36MOL     C933679   3.741   2.714   0.378 -0.4277 -0.1681  0.0550
   36MOL    C1033680   3.753   2.865   0.357  0.1500  0.3268 -0.6531
   36MOL    C1133681   3.830   2.900   0.231  0.3825 -0.1561 -0.2548
   36MOL    O1233682   3.825   3.043   0.222  0.2986 -0.0409  0.5524
   36MOL    C1333683   3.722   3.096   0.155 -0.1387 -0.1957  0.9696
   36MOL    O1433684   3.636   3.035   0.091  0.0767  0.1605  0.1351
   36MOL    C1533685   3.726   3.254   0.156 -0.5365 -0.3059 -0.0259
   36MOL    C1633686   3.843   3.322   0.078  0.1500 -0.7099  0.2588
   36MOL    C1733687   3.826   3.332   7.694 -0.0049 -0.8567  0.3312
   36MOL    C1833688   3.935   3.421   7.622 -0.1948  0.3857 -0.3026
   36MOL    C1933689   4.078   3.353   7.623  0.5038 -0.4095  0.5144
   36MOL    O2033690   4.176   3.417   7.669  0.1382  0.2107  0.2038
   36MOL    H2133691   3.761   2.051   0.703  2.3319 -1.1677  1.6377
   36MOL    H2233692   3.669   1.924   0.734  0.6816  0.3885 -0.7406
   36MOL    H2333693   3.524   2.087   0.900 -0.0008  0.8188  1.2654
   36MOL    H2433694   3.482   2.074   0.735 -0.0868 -0.9693  1.5780
   36MOL    H2533695   3.509   2.311   0.847 -0.5884 -0.6126 -0.3022
   36MOL    H2633696   3.681   2.266   0.831 -0.5119  0.9795  0.7658
   36MOL    H2733697   3.489   2.290   0.603  0.2274  0.3743 -0.9466
   36MOL    H2833698   3.650   2.252   0.570 -1.8104  0.3188 -2.1512
   36MOL    H2933699   3.709   2.477   0.709  0.3239 -0.5651 -0.2830
   36MOL    H3033700   3.536   2.513   0.687 -1.7111 -1.3032 -0.3810
   36MOL    H3133701   3.559   2.497   0.437 -0.3877  2.3885 -0.1041
   36MOL    H3233702   3.720   2.462   0.448 -0.1732  0.8485 -1.0724
   36MOL    H3333703   3.714   2.698   0.591 -1.5720  1.0355  0.7215
   36MOL    H3433704   3.571   2.720   0.489 -1.2189 -1.0843  3.5246
   36MOL    H3533705   3.702   2.661   0.291  1.4316 -1.1237 -0.2285
   36MOL    H3633706   3.842   2.675   0.388 -0.3876 -0.5739 -1.7045
   36MOL    H3733707   3.657   2.915   0.365 -0.0615  0.0857 -1.6378
   36MOL    H3833708   3.807   2.914   0.438  1.0364  2.0171 -2.2091
   36MOL    H3933709   3.778   2.855   0.147  0.1478 -0.5692  0.1118
   36MOL    H4033710   3.932   2.861   0.228  0.2973 -0.2873 -2.7347
   36MOL    H4133711   3.633   3.281   0.105 -1.9547  0.6969  2.9794
   36MOL    H4233712   3.717   3.298   0.255 -0.9424 -1.4941  0.4724
   36MOL    H4333713   3.941   3.277   0.095  0.8982  1.5069  2.0965
   36MOL    H4433714   3.854   3.425   0.111 -2.0894  0.6802 -3.0540
   36MOL    H4533715   3.737   3.391   7.674  2.0677  1.9114 -1.0607
   36MOL    H4633716   3.813   3.235   7.647 -0.3894 -0.8733  0.4702
   36MOL    H4733717   3.946   3.516   7.673  2.3574 -0.9363  1.7572
   36MOL    H4833718   3.896   3.449   7.524 -1.5913 -1.0740 -0.1876
   36MOL    H4933719   3.837   1.952   0.892  0.6110 -0.3672  0.6439
   36MOL    O5033720   4.082   3.231   7.579 -0.1221  0.0476  0.1173
   36MOL    C5133721   4.196   3.161   7.614 -0.2437  0.3138  0.5381
   36MOL    C5233722   4.211   3.028   7.545 -0.6441 -0.1153 -0.1772
   36MOL    C5333723   4.112   2.925   7.590  0.2402  0.2371 -0.3042
   36MOL    C5433724   3.971   2.964   7.548  0.0999  0.4806  0.0771
   36MOL    C5533725   3.870   2.849   7.573 -0.4217 -0.6336 -0.3010
   36MOL    C5633726   3.723   2.885   7.534  0.6298  0.0998 -0.0874
   36MOL    C5733727   3.634   2.759   7.545  0.4196 -0.8898 -0.7158
   36MOL    C5833728   3.603   2.724   7.685  1.2975  0.0646 -0.2345
   36MOL    C5933729   3.501   2.607   7.690  0.5111  0.6964  0.0426
   36MOL    C6033730   3.454   2.581   0.075  0.0184 -0.1800  0.6637
   36MOL    O6133731   3.394   2.695   0.138  0.5097 -0.4079 -0.0904
   36MOL    C6233732   3.319   2.678   0.257  0.3851  0.2085 -0.5603
   36MOL    O6333733   3.294   2.571   0.309 -0.3932  0.1055 -0.0212
   36MOL    C6433734   3.250   2.811   0.299 -0.0080 -0.4983  0.7094
   36MOL    C6533735   3.361   2.917   0.347 -0.1927  0.0502  0.3081
   36MOL    C6633736   3.294   3.056   0.391 -0.1952  0.0407 -0.7797
   36MOL    C6733737   3.163   3.053   0.474 -0.3679 -0.0447 -0.1934
   36MOL    C6833738   3.035   3.075   0.393 -0.2428 -0.4676  0.0225
   36MOL    O6933739   3.011   3.185   0.334 -0.5247 -0.1425 -0.3738
   36MOL    H7033740   4.282   3.223   7.588 -1.3777  1.8648  0.4368
   36MOL    H7133741   4.191   3.149   7.722  1.4861  1.0845  0.7245
   36MOL    H7233742   4.307   2.988   7.577 -0.1973  0.1804 -1.1278
   36MOL    H7333743   4.231   3.035   7.438  0.3398 -1.4806 -0.1031
   36MOL    H7433744   4.132   2.829   7.543 -0.4415 -0.3106  0.5069
   36MOL    H7533745   4.110   2.917   7.699 -2.7153  0.8020 -0.2953
   36MOL    H7633746   3.958   3.006   7.448 -0.1182  2.2297  0.8300
   36MOL    H7733747   3.931   3.041   7.614 -1.1129  1.4708 -1.7827
   36MOL    H7833748   3.871   2.816   7.677 -0.3582 -1.7234 -0.6429
   36MOL    H7933749   3.918   2.771   7.513  2.9891  0.1966  1.2249
   36MOL    H8033750   3.728   2.918   7.430  1.6568 -1.1037 -0.4327
   36MOL    H8133751   3.676   2.963   7.594  0.2327 -0.1412 -0.0908
   36MOL    H8233752   3.685   2.675   7.497  1.2385 -0.8890  0.1490
   36MOL    H8333753   3.543   2.786   7.491 -1.6091 -1.2331  2.4456
   36MOL    H8433754   3.560   2.814   7.728  0.4750 -0.8089  0.8142
   36MOL    H8533755   3.691   2.695   7.741 -0.0152 -2.6017  0.5320
   36MOL    H8633756   3.421   2.645   7.627  1.6027 -0.7701 -2.3061
   36MOL    H8733757   3.542   2.520   7.638  0.8752  1.1439 -0.4274
   36MOL    H8833758   3.532   2.545   0.143  1.1247 -4.1991 -2.5619
   36MOL    H8933759   3.376   2.505   0.067  0.8755 -1.1124  0.9413
   36MOL    H9033760   3.197   2.853   0.213  1.0488  1.6819  1.0862
   36MOL    H9133761   3.184   2.780   0.380 -1.2528  1.6493  0.5665
   36MOL    H9233762   3.431   2.925   0.263  1.0085  0.4943  1.3445
   36MOL    H9333763   3.431   2.877   0.421  0.1760 -0.0825 -0.1060
   36MOL    H9433764   3.284   3.113   0.299  1.5107 -1.4705 -1.9403
   36MOL    H9533765   3.362   3.113   0.454  2.5896 -1.2516 -2.4837
   36MOL    H9633766   3.178   3.144   0.533  2.7670  0.6684 -1.9899
   36MOL    H9733767   3.152   2.962   0.533  3.7668  0.6741  1.9325
   36MOL    O9833768   2.963   2.966   0.388 -0.3244  0.2241 -0.7135
   36MOL    C9933769   2.856   2.964   0.294 -0.1307 -0.1004 -0.0437
   36MOL   C10033770   2.757   2.856   0.338  0.4601 -0.4906 -0.0515
   36MOL   C10133771   2.809   2.714   0.324 -0.3191  0.2553  0.3872
   36MOL   C10233772   2.704   2.599   0.302  0.3301  0.0629 -0.1586
   36MOL   C10333773   2.758   2.464   0.326 -0.2757  0.7009  0.6514
   36MOL   C10433774   2.882   2.426   0.245 -0.9073 -0.6591 -0.2570
   36MOL   C10533775   2.857   2.426   0.089 -0.0303  0.2994  0.9565
   36MOL   C10633776   2.985   2.409   0.012 -0.1944  0.9848  1.3574
   36MOL   C10733777   3.087   2.531   0.020  0.4231  0.3379 -0.0655
   36MOL   C10833778   3.039   2.649   7.708 -0.2902 -0.1990  0.0758
   36MOL   O10933779   3.130   2.750   7.734 -0.0740  0.2648 -0.0663
   36MOL   C11033780   3.150   2.840   7.633 -0.3536  0.2288  1.1684
   36MOL   O11133781   3.073   2.850   7.537  0.3115  0.1350  0.4666
   36MOL   C11233782   3.270   2.937   7.654 -0.1336  0.0013 -0.4095
   36MOL   C11333783   3.232   3.068   7.726  0.4430 -0.1076  0.1261
   36MOL   C11433784   3.356   3.154   7.746 -0.0089  0.0870  0.3348
   36MOL   C11533785   3.446   3.192   7.620  0.3930  0.2765 -1.0423
   36MOL   C11633786   3.407   3.318   7.539  0.5197 -0.4180  0.3835
   36MOL   O11733787   3.489   3.408   7.510 -0.1030 -0.1982 -0.5065
   36MOL   H11833788   2.803   3.058   0.285 -0.5098 -0.2379  0.7418
   36MOL   H11933789   2.901   2.930   0.200 -0.3934  3.1981 -1.4395
   36MOL   H12033790   2.672   2.869   0.271  0.2425  0.4542  0.4007
   36MOL   H12133791   2.718   2.881   0.436 -0.4537  0.5556 -0.6638
   36MOL   H12233792   2.868   2.709   0.232  1.4203 -0.6440  1.5135
   36MOL   H12333793   2.874   2.690   0.409 -1.8831  0.0119  1.5360
   36MOL   H12433794   2.646   2.597   0.210  0.1820  0.7427 -0.0798
   36MOL   H12533795   2.633   2.614   0.383  0.3198  0.0808 -0.1713
   36MOL   H12633796   2.679   2.393   0.302  1.2172 -0.6171 -0.4755
   36MOL   H12733797   2.778   2.451   0.433  2.3348 -0.7379  0.0190
   36MOL   H12833798   2.910   2.324   0.273 -0.9285 -0.1249  1.8203
   36MOL   H12933799   2.970   2.488   0.262 -1.1642 -0.2442 -0.4505
   36MOL   H13033800   2.821   2.520   0.046  1.2141  0.3339 -0.0348
   36MOL   H13133801   2.787   2.346   0.064  1.6442 -0.9206  0.0465
   36MOL   H13233802   2.965   2.393   7.671  3.2258 -1.9455  1.0575
   36MOL   H13333803   3.044   2.326   0.051 -1.5089 -1.5106 -1.7640
   36MOL   H13433804   3.104   2.568   0.122  0.3871  0.2107 -0.0126
   36MOL   H13533805   3.181   2.501   7.737  1.4666 -0.0531  2.1468
   36MOL   H13633806   2.941   2.684   7.741 -0.4600  0.2378 -0.8599
   36MOL   H13733807   3.028   2.629   7.601 -1.1643 -0.3643  0.1875
   36MOL   H13833808   3.351   2.882   7.702  0.7468 -0.0720 -1.9343
   36MOL   H13933809   3.313   2.968   7.558  0.1043  1.2575  0.0958
   36MOL   H14033810   3.172   3.042   0.049  0.2195 -1.7687 -0.5085
   36MOL   H14133811   3.162   3.112   7.655  0.0679 -1.0697 -0.0983
   36MOL   H14233812   3.409   3.090   0.052  0.7096 -2.0391 -2.0814
   36MOL   H14333813   3.326   3.237   0.045 -1.3235 -0.0155 -0.1352
   36MOL   H14433814   3.481   3.104   7.566  1.6284 -0.0092  0.1792
   36MOL   H14533815   3.537   3.226   7.669 -0.4193 -2.1430  2.3756
   36MOL   O14633816   3.271   3.315   7.502 -0.1991 -0.2644 -0.0439
   36MOL   C14733817   3.222   3.419   7.419 -0.3210  0.4159  0.0805
   36MOL   C14833818   3.087   3.378   7.368  0.2483 -0.0631 -0.3223
   36MOL   C14933819   3.083   3.257   7.268  0.2639  0.2734  0.6031
   36MOL   C15033820   2.937   3.229   7.217 -0.3256  0.2837  0.1434
   36MOL   C15133821   2.932   3.113   7.113  0.0006  0.6167  0.1073
   36MOL   C15233822   2.804   3.117   7.023 -0.2462  0.0782  0.2812
   36MOL   C15333823   2.754   2.982   6.974  0.5288 -0.3424 -0.1186
   36MOL   C15433824   2.625   2.998   6.884  0.0082 -0.2806 -0.1787
   36MOL   C15533825   2.577   2.860   6.832 -0.6348  0.9599 -0.4922
   36MOL   C15633826   2.445   2.876   6.753  0.0903  0.0514 -0.1957
   36MOL   O15733827   2.477   2.927   6.624 -0.1852  0.3760 -0.5008
   36MOL   C15833828   2.382   2.923   6.529  0.4912  0.6550  0.0687
   36MOL   O15933829   2.264   2.899   6.537 -0.4654  0.4575 -0.1314
   36MOL   C16033830   2.436   2.965   6.390 -0.1310  0.5061  0.5145
   36MOL   C16133831   2.540   2.870   6.329 -0.5199 -0.2003  0.5226
   36MOL   C16233832   2.569   2.906   6.177 -0.1271 -0.0567 -0.8235
   36MOL   C16333833   2.695   2.836   6.116 -0.3191  0.1525 -0.1287
   36MOL   C16433834   2.825   2.899   6.171  0.8610  0.3889  0.1561
   36MOL   O16533835   2.853   2.897   6.289 -0.4835 -0.2459  0.1488
   36MOL   H16633836   3.217   3.516   7.469  3.0004  1.2909 -1.1449
   36MOL   H16733837   3.286   3.424   7.331  0.3393 -0.0468  0.5245
   36MOL   H16833838   3.056   3.474   7.328  1.2834  0.4586  0.1334
   36MOL   H16933839   3.015   3.363   7.449  0.8830  2.8299  0.8311
   36MOL   H17033840   3.146   3.281   7.182  1.0535 -0.9083  0.8463
   36MOL   H17133841   3.119   3.172   7.325  0.2494  0.1892  0.4891
   36MOL   H17233842   2.896   3.320   7.173 -0.7133 -0.9916 -2.2197
   36MOL   H17333843   2.873   3.205   7.302 -0.2163 -0.3204  0.0523
   36MOL   H17433844   2.932   3.019   7.169 -0.3358  1.2525  1.2032
   36MOL   H17533845   3.022   3.104   7.053 -0.4643 -0.0901 -0.4921
   36MOL   H17633846   2.825   3.179   6.935 -0.6890  0.7016  0.6150
   36MOL   H17733847   2.725   3.162   7.082 -0.8111 -0.2464 -0.2192
   36MOL   H17833848   2.722   2.925   7.061  0.4771 -0.0990  0.0237
   36MOL   H17933849   2.838   2.936   6.923  1.1398  1.4235 -0.7353
   36MOL   H18033850   2.665   3.052   6.798 -1.8939 -0.7468 -1.3789
   36MOL   H18133851   2.541   3.041   6.938 -0.1921 -0.2893 -0.4848
   36MOL   H18233852   2.652   2.801   6.779 -0.4100  1.2721 -0.5271
   36MOL   H18333853   2.557   2.794   6.916  0.0131  0.2879 -0.8655
   36MOL   H18433854   2.372   2.944   6.798  0.8291 -0.0236  1.1263
   36MOL   H18533855   2.396   2.781   6.732 -0.1737  0.4073 -1.2349
   36MOL   H18633856   2.354   2.968   6.318  0.7250 -0.5008 -0.5296
   36MOL   H18733857   2.474   3.065   6.409 -0.0274  0.7455 -0.9073
   36MOL   H18833858   2.515   2.764   6.338 -0.2220 -0.4365 -1.2466
   36MOL   H18933859   2.640   2.877   6.373  0.4526  0.4123 -1.7301
   36MOL   H19033860   2.578   3.015   6.177  0.5366 -0.1032  0.1466
   36MOL   H19133861   2.482   2.896   6.112 -1.0281 -0.7639  0.4500
   36MOL   H19233862   2.685   2.850   6.008  2.4122  0.1388 -0.4144
   36MOL   H19333863   2.694   2.731   6.143 -0.2545 -0.1365 -1.2436
   36MOL   O19433864   2.896   2.960   6.071 -0.6213 -0.2271  0.0795
   36MOL   C19533865   3.020   3.025   6.103  0.5075  0.2678 -0.5765
   36MOL   C19633866   3.005   3.177   6.125 -0.1773 -0.0940  0.2325
   36MOL   C19733867   3.142   3.253   6.144  0.1440 -0.7218 -0.6779
   36MOL   C19833868   3.106   3.399   6.181 -0.3518 -0.9678 -0.0063
   36MOL   C19933869   3.203   3.463   6.272  0.0505  0.0605 -0.6928
   36MOL   C20033870   3.340   3.490   6.205 -0.4827 -0.1460 -0.5988
   36MOL   C20133871   3.446   3.546   6.298 -0.0728 -0.6551  0.2938
   36MOL   C20233872   3.412   3.689   6.346  0.5621 -0.3803 -0.0170
   36MOL   C20333873   3.517   3.756   6.429 -0.4774  0.0109 -0.2430
   36MOL   C20433874   3.462   3.880   6.495  0.0062  0.7200 -0.6908
   36MOL   O20533875   3.413   3.975   6.400 -0.0905  0.0152  0.2442
   36MOL   C20633876   3.469   4.089   6.360  0.1059 -0.8824  0.4336
   36MOL   O20733877   3.574   4.130   6.407 -0.4377  0.5752 -0.5260
   36MOL   C20833878   3.388   4.154   6.251 -0.2291 -0.0873  0.3666
   36MOL   C20933879   3.469   4.214   6.138 -0.8660 -0.0577 -0.5503
   36MOL   C21033880   3.389   4.294   6.023 -0.1816 -0.3917  0.4143
   36MOL   C21133881   3.290   4.413   6.065 -0.1170  0.6763 -0.1793
   36MOL   C21233882   3.355   4.521   6.153  0.0149 -0.1847  0.1379
   36MOL   O21333883   3.286   4.590   6.221  0.4499  0.2476 -0.4464
   36MOL   H21433884   3.070   2.984   6.191  1.2176 -0.2213 -1.2063
   36MOL   H21533885   3.089   3.014   6.020  1.1289 -0.0863 -0.0158
   36MOL   H21633886   2.938   3.187   6.210 -0.7058 -1.7729  0.0220
   36MOL   H21733887   2.949   3.217   6.041 -0.5189  0.4693  0.7226
   36MOL   H21833888   3.195   3.214   6.232  0.2422  1.8089  0.4315
   36MOL   H21933889   3.204   3.249   6.055 -1.0057  1.3793 -1.5997
   36MOL   H22033890   3.010   3.402   6.233 -1.7434  0.8801 -2.5665
   36MOL   H22133891   3.092   3.467   6.097  0.1745 -1.0799 -0.1829
   36MOL   H22233892   3.210   3.398   6.358  0.0641 -0.4160 -1.0495
   36MOL   H22333893   3.154   3.550   6.317  0.4146 -0.9989  1.8194
   36MOL   H22433894   3.321   3.565   6.129  0.6526  1.1646  0.3786
   36MOL   H22533895   3.380   3.399   6.159 -2.2458 -0.8735 -0.7605
   36MOL   H22633896   3.538   3.562   6.241 -0.7387 -0.6971 -0.7898
   36MOL   H22733897   3.468   3.476   6.378  1.0886 -0.8504 -0.1882
   36MOL   H22833898   3.323   3.681   6.409 -0.9855 -3.2674 -2.4508
   36MOL   H22933899   3.381   3.754   6.264  2.0307 -0.3233 -0.5362
   36MOL   H23033900   3.531   3.686   6.512  0.8730 -1.3260 -1.5758
   36MOL   H23133901   3.614   3.776   6.384  0.6334 -3.4849  0.4513
   36MOL   H23233902   3.525   3.927   6.570 -0.1590  4.0198 -2.5277
   36MOL   H23333903   3.377   3.847   6.555  1.4310  1.3454  1.7554
   36MOL   H23433904   3.301   4.092   6.228 -1.7233  1.9103  0.4880
   36MOL   H23533905   3.331   4.231   6.303  0.2555  0.9678 -0.6309
   36MOL   H23633906   3.525   4.134   6.091  1.0778 -0.7866  2.8713
   36MOL   H23733907   3.545   4.278   6.182 -1.7025  0.4484  0.1952
   36MOL   H23833908   3.328   4.225   5.965 -0.5186  1.3724 -1.4016
   36MOL   H23933909   3.459   4.323   5.944 -0.5599  1.8776  0.8760
   36MOL   H24033910   3.203   4.373   6.116  0.0483  1.3436  0.6459
   36MOL   H24133911   3.259   4.456   5.970  1.2722  0.0069 -0.9561
   36MOL   O24233912   3.486   4.544   6.127  0.3660 -0.2227 -0.3639
   36MOL   C24333913   3.559   4.638   6.201 -0.2446 -0.3272  0.2310
   36MOL   C24433914   3.568   4.764   6.117 -0.2220 -0.6193  0.3152
   36MOL   C24533915   3.435   4.848   6.094 -0.3157  0.0921 -0.2611
   36MOL   C24633916   3.452   4.967   5.999 -0.4713  0.0191 -0.1383
   36MOL   C24733917   3.330   5.061   5.980 -0.7782 -0.4470  0.3189
   36MOL   C24833918   3.368   5.174   5.882 -0.1093  0.6936  0.4278
   36MOL   C24933919   3.254   5.276   5.849 -0.7853 -1.0167 -0.5206
   36MOL   C25033920   3.284   5.403   5.752 -0.2155  0.1973  0.1088
   36MOL   C25133921   3.262   5.356   5.609  0.0867  1.0035  0.0306
   36MOL   C25233922   3.271   5.489   5.527 -0.1765  0.6732 -0.1091
   36MOL   O25333923   3.303   5.458   5.390  0.7984  0.2166  0.2791
   36MOL   C25433924   3.208   5.439   5.294 -0.3549  0.5060 -0.0848
   36MOL   O25533925   3.088   5.457   5.318 -0.6975 -0.1092  0.1698
   36MOL   C25633926   3.264   5.406   5.153 -0.6663 -0.0507  0.4132
   36MOL   C25733927   3.183   5.307   5.071 -0.2502 -0.1443  0.0213
   36MOL   C25833928   3.257   5.233   4.962  0.1230  0.0860 -0.0110
   36MOL   C25933929   3.177   5.118   4.889  0.2220 -0.4229  0.8433
   36MOL   C26033930   3.272   5.045   4.787 -0.2118 -0.1655 -0.2384
   36MOL   O26133931   3.312   4.932   4.806  0.1998 -0.4584 -0.5420
   36MOL   H26233932   3.508   4.670   6.292 -0.0860  1.1682 -0.1984
   36MOL   H26333933   3.657   4.599   6.227 -0.3226  0.2183  1.3796
   36MOL   H26433934   3.623   4.747   6.024 -0.4061  1.4134 -0.1989
   36MOL   H26533935   3.637   4.829   6.171  1.0203 -0.7952 -1.0357
   36MOL   H26633936   3.358   4.781   6.056 -0.8658  0.6020 -0.0436
   36MOL   H26733937   3.389   4.889   6.183  0.7067  2.2023 -0.6656
   36MOL   H26833938   3.485   4.922   5.905  0.1395  1.0887 -0.4361
   36MOL   H26933939   3.530   5.037   6.029  0.3313 -0.7523 -0.3791
   36MOL   H27033940   3.289   5.104   6.071 -0.8884 -0.2070  0.1561
   36MOL   H27133941   3.242   5.011   5.940 -0.8733  0.5105 -0.6724
   36MOL   H27233942   3.405   5.133   5.788 -0.9092 -0.8149  0.7555
   36MOL   H27333943   3.454   5.222   5.928 -0.7047  0.2847  1.9926
   36MOL   H27433944   3.233   5.309   5.951  0.5365  0.4798 -0.7140
   36MOL   H27533945   3.163   5.223   5.821 -2.2955  0.7760  0.8579
   36MOL   H27633946   3.387   5.433   5.772 -0.4095  1.6099 -0.9776
   36MOL   H27733947   3.212   5.480   5.780 -0.6294 -0.0703 -0.2092
   36MOL   H27833948   3.339   5.283   5.584 -2.0215 -1.2250 -0.1252
   36MOL   H27933949   3.162   5.319   5.585  1.1456 -1.0479 -1.3239
   36MOL   H28033950   3.345   5.554   5.574  1.1726 -0.4127 -0.7178
   36MOL   H28133951   3.179   5.547   5.530  0.1657  1.1778  0.8771
   36MOL   H28233952   3.276   5.501   5.101  0.3080 -0.3787  0.0193
   36MOL   H28333953   3.371   5.388   5.159 -0.5220  0.0989 -1.3631
   36MOL   H28433954   3.088   5.352   5.042 -0.2806  0.8020  1.5311
   36MOL   H28533955   3.148   5.230   5.140 -2.2734 -1.6074 -2.5352
   36MOL   H28633956   3.350   5.192   5.000 -0.0003 -0.7586 -0.6086
   36MOL   H28733957   3.278   5.305   4.883  1.6082  0.4050  0.6600
   36MOL   H28833958   3.083   5.157   4.849  0.9326  0.6241  0.1541
   36MOL   H28933959   3.132   5.042   4.953 -2.5701 -1.4426 -2.1579
   36MOL   O29033960   3.288   5.119   4.670  0.3755  1.1439  0.0482
   36MOL   C29133961   3.377   5.077   4.564 -0.1235  0.1159  0.1634
   36MOL   C29233962   3.296   5.010   4.446  0.1097 -0.1758 -0.9512
   36MOL   C29333963   3.377   4.963   4.321  0.2063 -0.4414 -0.4551
   36MOL   C29433964   3.466   4.844   4.343 -0.0589  0.1793  0.1797
   36MOL   C29533965   3.539   4.800   4.212 -0.0512  0.0561 -0.0471
   36MOL   C29633966   3.609   4.665   4.219  0.2306 -0.7857 -0.3929
   36MOL   C29733967   3.694   4.633   4.347 -0.0256  0.3784 -0.1365
   36MOL   C29833968   3.838   4.700   4.342  0.3738  0.6343  0.5971
   36MOL   C29933969   3.930   4.620   4.429 -0.1802 -0.3217  0.4488
   36MOL   C30033970   4.072   4.682   4.431  0.1121 -0.5268 -0.3849
   36MOL   O30133971   4.070   4.821   4.469 -0.2932  0.4903 -0.6594
   36MOL   C30233972   4.170   4.901   4.425  0.4558  0.6240 -0.6796
   36MOL   O30333973   4.258   4.867   4.349  0.4026  0.3658  0.1066
   36MOL   C30433974   4.143   5.047   4.467  0.0023 -0.8313 -0.1407
   36MOL   C30533975   4.153   5.074   4.622 -0.0316  0.0505  1.2491
   36MOL   C30633976   4.145   5.226   4.661 -0.3385  0.2853 -1.0573
   36MOL   C30733977   4.224   5.254   4.789 -0.3984 -0.5700  1.1110
   36MOL   C30833978   4.161   5.204   4.915 -0.2567  0.1789 -0.8955
   36MOL   O30933979   4.038   5.171   4.922 -0.7916  0.2400  0.1245
   36MOL   H31033980   3.426   5.169   4.532 -0.9471  0.0604 -1.2932
   36MOL   H31133981   3.460   5.017   4.602  2.1532  1.7796 -2.0186
   36MOL   H31233982   3.210   5.073   4.424 -0.1820 -0.5076 -0.7575
   36MOL   H31333983   3.249   4.922   4.490 -0.8884  0.3674 -0.9089
   36MOL   H31433984   3.300   4.940   4.247 -2.6194  2.2453  1.4956
   36MOL   H31533985   3.432   5.051   4.288 -0.4865 -0.3472 -1.3734
   36MOL   H31633986   3.406   4.759   4.375  2.3318 -1.9527 -0.8284
   36MOL   H31733987   3.540   4.869   4.419 -0.5211  2.2019 -0.0195
   36MOL   H31833988   3.612   4.878   4.191  1.9063 -2.0754 -1.3672
   36MOL   H31933989   3.480   4.801   4.120  0.0601 -0.8777 -0.1312
   36MOL   H32033990   3.673   4.668   4.131  0.3279  0.7370 -0.2864
   36MOL   H32133991   3.533   4.588   4.206  0.9304 -1.3718 -1.0608
   36MOL   H32233992   3.714   4.526   4.356 -2.2522 -0.1962 -1.4683
   36MOL   H32333993   3.651   4.659   4.444  1.4559  0.4887  0.5009
   36MOL   H32433994   3.832   4.804   4.376 -1.4139  1.0174 -0.8233
   36MOL   H32533995   3.884   4.692   4.244 -1.2874 -3.1041  0.0528
   36MOL   H32633996   3.892   4.628   4.531 -2.2106  1.2059 -0.3736
   36MOL   H32733997   3.954   4.520   4.392 -0.0276 -0.6948  1.5490
   36MOL   H32833998   4.112   4.665   4.331 -1.8506  3.6956 -2.0166
   36MOL   H32933999   4.128   4.624   4.504  0.6144  1.4328  0.8312
   36MOL   H33034000   4.210   5.116   4.415 -0.3290 -1.0425 -0.8456
   36MOL   H33134001   4.049   5.092   4.436 -0.4005  0.2158  2.4507
   36MOL   H33234002   4.249   5.035   4.655 -0.2873 -1.3879  0.3037
   36MOL   H33334003   4.081   5.018   4.682 -1.7848 -0.4049 -1.2125
   36MOL   H33434004   4.039   5.249   4.662 -1.0606 -2.8014 -1.7522
   36MOL   H33534005   4.195   5.289   4.588  1.6218 -0.3703 -0.3157
   36MOL   H33634006   4.227   5.362   4.807  1.4757 -0.3492 -0.3177
   36MOL   H33734007   4.324   5.216   4.765 -1.0417 -1.0034 -1.0205
   36MOL   O33834008   4.247   5.184   5.010  0.3282  0.4881  0.2190
   36MOL   C33934009   4.203   5.123   5.127  0.1843  1.0224  0.1574
   36MOL   C34034010   4.327   5.092   5.211 -0.0781 -0.2084 -0.0953
   36MOL   C34134011   4.288   5.012   5.341  0.0037  0.4382  0.3346
   36MOL   C34234012   4.423   4.958   5.415 -0.3360 -0.1037  0.1378
   36MOL   C34334013   4.396   4.850   5.525  0.0599 -0.5826  0.2977
   36MOL   C34434014   4.295   4.888   5.641 -0.2619  0.1449 -0.1317
   36MOL   C34534015   4.290   4.787   5.763 -0.6079 -1.1306  0.5868
   36MOL   C34634016   4.256   4.635   5.722 -0.0414 -0.3560  0.1417
   36MOL   C34734017   4.126   4.621   5.649 -0.3708 -0.5306  0.3286
   36MOL   C34834018   4.089   4.478   5.606 -0.3793  0.6530 -0.5787
   36MOL   O34934019   4.175   4.427   5.507 -0.0960 -0.5072 -0.0896
   36MOL   C35034020   4.164   4.303   5.461 -0.0541  0.2352  0.3243
   36MOL   O35134021   4.086   4.217   5.501  0.3596  0.1959  0.7343
   36MOL   C35234022   4.246   4.290   5.334  0.1403  0.6010 -0.4489
   36MOL   C35334023   4.403   4.315   5.351 -0.1238 -0.1013  0.3976
   36MOL   C35434024   4.460   4.458   5.332  0.1752  0.6016  0.1458
   36MOL   C35534025   4.610   4.471   5.363 -0.8844  0.2950 -0.5386
   36MOL   C35634026   4.713   4.388   5.286  0.3369  0.0744  0.2633
   36MOL   O35734027   4.687   4.318   5.190  0.5810 -0.0706 -0.1579
   36MOL   H35834028   4.136   5.188   5.183  1.3995  1.8417  0.6712
   36MOL   H35934029   4.165   5.024   5.102 -0.8976  1.3072  0.6691
   36MOL   H36034030   4.381   5.185   5.222 -0.6408 -0.0897  1.9196
   36MOL   H36134031   4.382   5.018   5.152 -0.1742 -1.7460  1.6955
   36MOL   H36234032   4.238   5.081   5.410  0.4496 -0.7633  1.8915
   36MOL   H36334033   4.218   4.932   5.319  2.3337 -1.9107  1.2738
   36MOL   H36434034   4.479   5.039   5.461 -1.5408  1.0348 -0.3716
   36MOL   H36534035   4.499   4.918   5.347 -0.6431  0.8072 -0.7536
   36MOL   H36634036   4.496   4.830   5.565  1.4141  2.5745 -1.3146
   36MOL   H36734037   4.372   4.752   5.485 -1.2224 -0.9175  1.8194
   36MOL   H36834038   4.197   4.908   5.598  0.7026  0.4854 -2.2278
   36MOL   H36934039   4.325   4.983   5.687  1.0062 -0.8818  1.2196
   36MOL   H37034040   4.220   4.819   5.839  1.2840  1.3500  1.3407
   36MOL   H37134041   4.385   4.791   5.816 -0.6512 -0.1646  0.5924
   36MOL   H37234042   4.261   4.564   5.805 -0.3330 -0.9339 -0.3317
   36MOL   H37334043   4.346   4.606   5.668 -1.5895 -1.0559 -2.1280
   36MOL   H37434044   4.048   4.680   5.697 -1.7506 -1.8678 -0.2583
   36MOL   H37534045   4.133   4.682   5.559  0.5152 -0.9928  0.0775
   36MOL   H37634046   3.992   4.472   5.557 -0.4618  0.0201 -0.3474
   36MOL   H37734047   4.067   4.406   5.685  1.1127  0.0006 -0.7469
   36MOL   H37834048   4.234   4.186   5.304 -0.6323 -0.1298  2.2887
   36MOL   H37934049   4.203   4.343   5.249 -3.5063 -1.4834  0.0098
   36MOL   H38034050   4.458   4.252   5.281  1.5321 -1.0647  2.5004
   36MOL   H38134051   4.422   4.290   5.455  1.4742 -1.1984 -0.1310
   36MOL   H38234052   4.408   4.526   5.399 -2.4928  0.5166 -1.7414
   36MOL   H38334053   4.439   4.487   5.229  1.8688  1.4947  0.0292
   36MOL   H38434054   4.633   4.452   5.468 -0.8043  1.4552 -0.3365
   36MOL   H38534055   4.645   4.572   5.345 -2.0922  0.5880 -1.3229
   36MOL   O38634056   4.833   4.423   5.329  0.1302  0.0666  0.2197
   36MOL   C38734057   4.945   4.361   5.274  0.0454 -0.5363 -0.2359
   36MOL   C38834058   5.007   4.454   5.167 -0.2312 -0.0616 -0.1216
   36MOL   C38934059   5.121   4.382   5.094  0.6874 -0.1803  0.3825
   36MOL   C39034060   5.178   4.448   4.971  0.2082 -0.4384 -0.4611
   36MOL   C39134061   5.295   4.375   4.911  0.5895  0.1749 -1.0102
   36MOL   C39234062   5.349   4.452   4.797 -0.2668 -0.2307 -0.5121
   36MOL   C39334063   5.470   4.384   4.747 -1.1150 -0.5211  0.7877
   36MOL   C39434064   5.527   4.476   4.627 -0.3285  0.2797  1.2897
   36MOL   C39534065   5.651   4.413   4.564 -0.4253  0.8184  0.1342
   36MOL   C39634066   5.679   4.477   4.427  0.7939 -0.0989  0.0067
   36MOL   O39734067   5.804   4.438   4.378 -0.2295 -0.9570 -0.3185
   36MOL   C39834068   5.851   4.490   4.265 -0.3178  0.3392 -0.0440
   36MOL   O39934069   5.795   4.574   4.195 -0.1876  0.1430 -0.6742
   36MOL   C40034070   5.976   4.418   4.225 -0.1778  0.4743  0.0360
   36MOL   C40134071   6.097   4.433   4.314  0.4279 -0.5909  0.1838
   36MOL   C40234072   6.092   4.368   4.457  0.5279  0.1604  0.3636
   36MOL   C40334073   6.234   4.375   4.524 -0.5126 -0.5160 -0.2550
   36MOL   C40434074   6.272   4.508   4.587  0.6781  0.5261  0.6932
   36MOL   O40534075   6.283   4.613   4.519 -0.2567  0.5471  0.2116
   36MOL   H40634076   5.008   4.342   5.361 -0.2609 -1.0362 -0.1212
   36MOL   H40734077   4.920   4.262   5.236 -2.7492  0.1237 -0.1672
   36MOL   H40834078   5.040   4.552   5.201 -0.3227  0.7836 -2.3342
   36MOL   H40934079   4.927   4.481   5.097 -0.6917 -0.8137  0.1218
   36MOL   H41034080   5.204   4.367   5.164  0.2545  0.2633  0.9865
   36MOL   H41134081   5.073   4.290   5.059 -1.5704  1.7457 -1.7215
   36MOL   H41234082   5.211   4.549   4.997 -0.1770 -0.9704  2.2275
   36MOL   H41334083   5.110   4.448   4.886  1.3360 -1.4247 -1.3676
   36MOL   H41434084   5.266   4.278   4.871  2.2479  0.1588 -2.1997
   36MOL   H41534085   5.375   4.360   4.982  2.0818 -0.5407 -2.8114
   36MOL   H41634086   5.369   4.553   4.832  1.1377  0.1486 -2.3070
   36MOL   H41734087   5.283   4.454   4.710  0.9046 -0.2160 -1.4114
   36MOL   H41834088   5.448   4.285   4.707 -0.4560 -0.1005 -0.6413
   36MOL   H41934089   5.550   4.376   4.820  1.4019 -0.6152 -1.8785
   36MOL   H42034090   5.556   4.572   4.671  1.1541  0.1101  0.7234
   36MOL   H42134091   5.465   4.498   4.541  0.1530  1.6092  1.2651
   36MOL   H42234092   5.734   4.444   4.627 -0.6669  1.3224  0.2040
   36MOL   H42334093   5.651   4.304   4.560  1.5702  0.8087 -0.2764
   36MOL   H42434094   5.679   4.585   4.443 -0.8201 -0.3676  2.0234
   36MOL   H42534095   5.606   4.470   4.346  0.5907  1.4804  0.0375
   36MOL   H42634096   5.950   4.313   4.210  0.9488 -0.0413  1.5581
   36MOL   H42734097   5.998   4.453   4.124  1.3470 -1.1585 -0.2241
   36MOL   H42834098   6.116   4.540   4.328  1.0409 -0.5998 -0.5550
   36MOL   H42934099   6.183   4.394   4.261 -0.1463 -2.3396  0.5221
   36MOL   H43034100   6.049   4.268   4.465  1.0648 -0.1984 -1.1304
   36MOL   H43134101   6.029   4.442   4.507 -0.2077 -0.3873  0.2513
   36MOL   H43234102   6.317   4.358   4.456 -2.0815 -0.6878 -2.1518
   36MOL   H43334103   6.227   4.296   4.599 -1.1861  2.6666  3.2310
   36MOL   O43434104   6.305   4.489   4.716  1.0068 -0.3420  0.0472
   36MOL   C43534105   6.340   4.596   4.802 -0.4014  1.2666  0.4825
   36MOL   C43634106   6.479   4.657   4.777 -1.2157 -0.5820 -0.4233
   36MOL   C43734107   6.601   4.566   4.795  0.5895  0.0533 -0.5819
   36MOL   C43834108   6.733   4.635   4.762 -0.0116 -0.4037 -0.1887
   36MOL   C43934109   6.856   4.543   4.789 -0.0488  0.6443  0.4259
   36MOL   C44034110   6.993   4.585   4.728 -0.0440 -0.6327  0.6119
   36MOL   C44134111   7.117   4.525   4.796  0.5647  0.0580 -0.7661
   36MOL   C44234112   7.235   4.493   4.698  0.2412  0.1039  0.3117
   36MOL   C44334113   7.205   4.367   4.608  0.8822 -0.5213  0.2519
   36MOL   C44434114   7.304   4.318   4.508  0.1800 -0.6366 -0.1422
   36MOL   O44534115   7.255   4.204   4.436  0.0920  0.1697 -0.4117
   36MOL   C44634116   7.191   4.218   4.312  0.3735 -0.1265 -0.2208
   36MOL   O44734117   7.209   4.320   4.241 -0.4500 -0.0045 -0.3423
   36MOL   C44834118   7.088   4.108   4.273  0.2236  0.2238  0.5628
   36MOL   C44934119   7.032   4.029   4.390 -0.5388 -0.0408  0.3617
   36MOL   C45034120   7.129   3.925   4.442  0.5710  0.3028 -0.0878
   36MOL   C45134121   7.052   3.817   4.520  0.0701 -0.5421 -0.0561
   36MOL   C45234122   6.970   3.867   4.636 -0.0889 -0.6860  0.0123
   36MOL   O45334123   6.846   3.873   4.628 -0.2073  0.0197 -0.4041
   36MOL   H45434124   6.269   4.678   4.791  2.2929  3.5722 -0.5815
   36MOL   H45534125   6.328   4.569   4.906 -0.2576  2.1443  0.7344
   36MOL   H45634126   6.482   4.752   4.831  1.0392 -0.1387 -1.2917
   36MOL   H45734127   6.486   4.697   4.676 -0.2657  0.3766  0.0089
   36MOL   H45834128   6.603   4.530   4.898  0.3263  1.4724 -0.0607
   36MOL   H45934129   6.602   4.478   4.731 -0.6129 -0.9371  0.7261
   36MOL   H46034130   6.752   4.723   4.823  0.7936 -0.6788 -0.0318
   36MOL   H46134131   6.736   4.662   4.656  1.8082  0.9634  0.1918
   36MOL   H46234132   6.829   4.446   4.748  2.3690 -0.2237  0.8162
   36MOL   H46334133   6.873   4.538   4.897 -0.1201 -0.5170  0.3875
   36MOL   H46434134   6.993   4.694   4.726  0.4367 -0.6262  0.9357
   36MOL   H46534135   6.994   4.565   4.621  1.2680  3.0931 -0.1448
   36MOL   H46634136   7.092   4.430   4.843  1.3674  0.4555  0.4670
   36MOL   H46734137   7.151   4.593   4.874  0.6456 -0.9092  0.0539
   36MOL   H46834138   7.327   4.474   4.753  1.8333 -0.5766 -2.4729
   36MOL   H46934139   7.261   4.573   4.628  2.2647 -0.4854  0.3663
   36MOL   H47034140   7.162   4.291   4.674 -1.0346 -1.8758 -2.4378
   36MOL   H47134141   7.117   4.402   4.553  1.2492 -2.4004 -1.6128
   36MOL   H47234142   7.390   4.283   4.565 -0.6518  1.7761  2.7567
   36MOL   H47334143   7.323   4.405   4.446 -0.4369  1.3996  2.4389
   36MOL   H47434144   7.013   4.158   4.212 -0.2124  0.6414  1.4346
   36MOL   H47534145   7.154   4.050   4.209 -2.8260 -1.0228 -1.5370
   36MOL   H47634146   6.929   3.999   4.372 -1.0944  1.6502  0.6456
   36MOL   H47734147   7.009   4.105   4.464  1.9531  1.2991 -0.1739
   36MOL   H47834148   7.200   3.966   4.514 -0.3386  1.1877  0.3117
   36MOL   H47934149   7.172   3.875   4.355 -1.6495  0.3401 -1.2241
   36MOL   H48034150   7.120   3.741   4.559 -1.1527 -0.6359  1.9956
   36MOL   H48134151   6.985   3.761   4.455 -1.0692  0.2520  0.4247
   36MOL   O48234152   7.049   3.914   4.739 -0.1977 -0.1963  0.4869
   36MOL   C48334153   6.987   3.993   4.839  0.2149 -0.0395 -0.4331
   36MOL   C48434154   7.017   3.936   4.977  0.1314 -0.1552  0.9244
   36MOL   C48534155   6.999   4.043   5.087  0.2874  0.3291 -0.3155
   36MOL   C48634156   7.053   3.993   5.221  0.0686  0.0655 -0.7090
   36MOL   C48734157   7.205   3.978   5.226  0.5121  0.1965 -0.3399
   36MOL   C48834158   7.258   3.871   5.320 -0.2100  0.5263 -0.2551
   36MOL   C48934159   7.251   3.910   5.464  0.0297 -0.0840 -0.1001
   36MOL   C49034160   7.310   3.810   5.560  0.3448  0.4827 -0.3682
   36MOL   C49134161   7.256   3.660   5.535 -0.5641  0.6240  0.1071
   36MOL   C49234162   7.103   3.648   5.563  0.1570 -0.1050  0.0928
   36MOL   O49334163   7.078   3.715   5.685 -0.0502 -0.3211  0.0678
   36MOL   C49434164   6.979   3.811   5.703  0.3360 -0.6109  0.1021
   36MOL   O49534165   6.891   3.834   5.619  0.3262  0.0207  0.7076
   36MOL   C49634166   6.970   3.885   5.840  0.6529  0.4241 -0.2135
   36MOL   C49734167   6.832   3.955   5.860 -0.5644 -1.1306  0.2775
   36MOL   C49834168   6.717   3.867   5.898 -1.3166 -0.3942  0.0095
   36MOL   C49934169   6.581   3.942   5.918 -0.1645  0.5091  0.2025
   36MOL   C50034170   6.576   3.992   6.057  0.1067 -0.2498 -0.0547
   36MOL   O50134171   6.545   3.919   6.151  0.4360 -0.4490 -0.3498
   36MOL   H50234172   7.029   4.093   4.837  0.8322 -0.2210  1.7640
   36MOL   H50334173   6.880   4.007   4.825  0.3941  1.9398  0.0431
   36MOL   H50434174   7.120   3.900   4.985 -0.5974 -1.8787  2.6950
   36MOL   H50534175   6.948   3.854   4.994 -1.7100  1.2034  0.1637
   36MOL   H50634176   7.051   4.137   5.069 -2.0753  1.4972 -1.1454
   36MOL   H50734177   6.895   4.073   5.098 -0.9074 -3.8857  0.8015
   36MOL   H50834178   7.000   3.904   5.254  0.5592 -0.1937 -0.6172
   36MOL   H50934179   7.023   4.076   5.285 -0.1990  0.5841 -1.5023
   36MOL   H51034180   7.255   4.071   5.252 -0.2641  0.9295 -1.4530
   36MOL   H51134181   7.248   3.953   5.129 -1.3830 -2.6052 -0.5031
   36MOL   H51234182   7.362   3.857   5.292 -0.4649  0.1025 -1.0118
   36MOL   H51334183   7.192   3.785   5.310  0.2438 -0.0333  1.4381
   36MOL   H51434184   7.147   3.915   5.497  0.1185  0.8962  0.0432
   36MOL   H51534185   7.294   4.010   5.473  0.8391 -0.2807 -1.5417
   36MOL   H51634186   7.304   3.836   5.665  0.8338  0.5315 -0.3520
   36MOL   H51734187   7.415   3.803   5.531 -0.4167  0.2961 -3.2743
   36MOL   H51834188   7.270   3.621   5.434  0.2847  0.3375  0.3377
   36MOL   H51934189   7.305   3.594   5.606 -1.1366  0.8539  0.7209
   36MOL   H52034190   7.067   3.546   5.578 -1.1689  0.4317  0.6739
   36MOL   H52134191   7.055   3.699   5.479 -0.4406  0.7396  0.9415
   36MOL   H52234192   6.996   3.805   5.909  1.5689 -2.3584 -3.6343
   36MOL   H52334193   7.048   3.962   5.846  0.7510  0.4591 -1.7320
   36MOL   H52434194   6.811   4.026   5.780  1.2984 -0.7575  0.1009
   36MOL   H52534195   6.849   4.019   5.946 -0.7150  0.1595 -0.6509
   36MOL   H52634196   6.755   3.821   5.989  3.7387 -0.6313 -2.0354
   36MOL   H52734197   6.699   3.803   5.813 -0.0330  0.2760 -0.7921
   36MOL   H52834198   6.492   3.882   5.901 -1.7599  2.4541  1.4630
   36MOL   H52934199   6.559   4.024   5.849  1.9653  1.7018  0.9025
   36MOL   O53034200   6.601   4.129   6.068  1.1023  0.1827  0.0888
   36MOL   C53134201   6.610   4.202   6.188 -0.6261  0.2852 -0.1346
   36MOL   C53234202   6.671   4.337   6.164  0.3479 -0.7263 -0.7408
   36MOL   C53334203   6.720   4.381   6.302 -0.3614 -0.6201  0.0397
   36MOL   C53434204   6.811   4.510   6.303  0.3168  0.0863  0.8180
   36MOL   C53534205   6.853   4.552   6.445 -0.1302 -0.2498  0.2347
   36MOL   C53634206   6.748   4.608   6.542 -0.2821  0.4975 -0.0448
   36MOL   C53734207   6.726   4.756   6.520 -0.0824  0.1573 -0.0145
   36MOL   C53834208   6.632   4.814   6.627  0.2111 -0.3277 -0.0642
   36MOL   C53934209   6.602   4.964   6.601 -0.3312  0.3642  0.0537
   36MOL   C54034210   6.484   5.016   6.684 -0.4824 -0.2444 -0.1236
   36MOL   O54134211   6.358   4.948   6.647 -0.5077  0.0905 -0.0401
   36MOL   C54234212   6.243   4.987   6.705  0.8945  0.1481  0.1895
   36MOL   O54334213   6.230   5.057   6.802  0.0528 -0.3588 -0.0550
   36MOL   C54434214   6.117   4.917   6.652 -0.5222 -0.4419  0.1727
   36MOL   C54534215   5.992   5.009   6.636 -0.0575 -0.4540  0.2346
   36MOL   C54634216   5.929   5.065   6.764  0.0776  0.0993 -0.7500
   36MOL   C54734217   5.786   5.116   6.733  0.2939 -0.1632  0.4328
   36MOL   C54834218   5.779   5.254   6.672  0.2059  0.2146  0.2913
   36MOL   O54934219   5.711   5.343   6.715 -0.5427  0.2405 -0.4567
   36MOL   H55034220   6.507   4.221   6.218  0.0152 -0.1216  2.5182
   36MOL   H55134221   6.657   4.150   6.272 -0.5747 -1.3969 -1.1890
   36MOL   H55234222   6.623   4.421   6.114 -0.9646 -0.4016  1.0314
   36MOL   H55334223   6.770   4.335   6.117  0.4937  0.1929 -0.4750
   36MOL   H55434224   6.629   4.392   6.361 -0.3706 -3.7136  0.6783
   36MOL   H55534225   6.775   4.296   6.343  0.6019  0.2232  0.5311
   36MOL   H55634226   6.765   4.588   6.243 -0.3339 -0.4301  0.6329
   36MOL   H55734227   6.904   4.486   6.251  0.2859  0.6066  0.5277
   36MOL   H55834228   6.943   4.613   6.445 -1.1346  1.2807 -1.3547
   36MOL   H55934229   6.894   4.465   6.496 -4.4103 -1.3361  2.0564
   36MOL   H56034230   6.779   4.584   6.644  0.1440  2.7615  0.3830
   36MOL   H56134231   6.647   4.568   6.529 -0.6850  1.1846  0.8603
   36MOL   H56234232   6.694   4.771   6.417 -0.9120  0.7675  0.3285
   36MOL   H56334233   6.823   4.805   6.530 -0.0548 -0.0362  0.7272
   36MOL   H56434234   6.666   4.801   6.730 -0.6855 -0.3760  0.2266
   36MOL   H56534235   6.543   4.752   6.618 -0.2708  0.4361 -0.5921
   36MOL   H56634236   6.687   5.032   6.610 -1.0298  1.0889  1.2618
   36MOL   H56734237   6.581   4.975   6.495  0.2782  0.2800 -0.0813
   36MOL   H56834238   6.475   5.124   6.676  0.9367 -0.2216 -1.7794
   36MOL   H56934239   6.502   4.994   6.789  1.1082  0.8591 -0.1602
   36MOL   H57034240   6.147   4.867   6.559 -0.7180 -0.5924  0.1904
   36MOL   H57134241   6.098   4.848   6.734  0.1796  1.2194  1.7736
   36MOL   H57234242   5.928   4.960   6.563  1.2237  0.1898 -1.3576
   36MOL   H57334243   6.036   5.091   6.578  0.5696 -0.6119  0.4833
   36MOL   H57434244   5.986   5.143   6.814  0.2255  0.3109 -1.2536
   36MOL   H57534245   5.933   4.983   6.836  0.2115  1.3105  0.6224
   36MOL   H57634246   5.750   5.118   6.836  1.9566 -0.3459  1.0238
   36MOL   H57734247   5.719   5.047   6.682 -2.2928  2.8265 -0.3786
   36MOL   O57834248   5.856   5.270   6.564  0.5981  0.1580 -0.6509
   36MOL   C57934249   5.897   5.395   6.511  0.6320  1.4529 -0.4899
   36MOL   C58034250   6.044   5.402   6.520 -1.1211  0.4946  0.3422
   36MOL   C58134251   6.086   5.449   6.661 -0.1722 -0.2188 -0.0966
   36MOL   C58234252   6.242   5.456   6.662  0.4666  0.2836 -0.0995
   36MOL   C58334253   6.293   5.503   6.796  0.4755  0.1590  0.0685
   36MOL   C58434254   6.442   5.522   6.798 -0.6057 -0.4370 -0.4151
   36MOL   C58534255   6.529   5.394   6.752 -0.0375  0.2123 -0.0883
   36MOL   C58634256   6.674   5.403   6.805 -0.5920 -0.2873  0.3840
   36MOL   C58734257   6.750   5.280   6.772  0.6251 -0.0215 -0.4499
   36MOL   C58834258   6.889   5.268   6.829 -0.0599  0.1717  0.0221
   36MOL   O58934259   6.950   5.146   6.796 -0.1097  0.1870 -1.1965
   36MOL   C59034260   6.900   5.030   6.843  0.0777 -0.0284 -0.7453
   36MOL   O59134261   6.803   5.014   6.920 -0.4139  0.2950  0.0235
   36MOL   C59234262   6.971   4.910   6.791  0.1667  1.1806 -0.5926
   36MOL   C59334263   7.001   4.804   6.904 -0.0481 -0.3615 -0.8136
   36MOL   C59434264   7.040   4.669   6.848  0.3145 -0.0914  0.0412
   36MOL   C59534265   7.165   4.652   6.754 -0.5057  0.1893 -1.0259
   36MOL   C59634266   7.297   4.665   6.827  0.1596 -0.1599 -0.0317
   36MOL   O59734267   7.316   4.726   6.931 -0.1064 -0.5166  0.0690
   36MOL   H59834268   5.864   5.390   6.407 -2.2356 -0.3040  0.4307
   36MOL   H59934269   5.842   5.478   6.555  1.8313  0.2443  3.4432
   36MOL   H60034270   6.077   5.476   6.447  1.3200 -1.1865 -0.3165
   36MOL   H60134271   6.084   5.301   6.508 -1.2176  0.8243 -3.2500
   36MOL   H60234272   6.056   5.549   6.690  0.5202 -0.8043  2.7326
   36MOL   H60334273   6.047   5.379   6.734 -0.5508 -1.0571 -1.0807
   36MOL   H60434274   6.266   5.520   6.577 -1.2955  2.5600  1.0388
   36MOL   H60534275   6.290   5.360   6.644 -3.1603 -1.4172 -1.1585
   36MOL   H60634276   6.264   5.424   6.866  0.7468  0.5270  0.6039
   36MOL   H60734277   6.240   5.590   6.835  2.7629  1.5797  0.1194
   36MOL   H60834278   6.467   5.544   6.902 -1.0324 -0.6223 -0.2711
   36MOL   H60934279   6.467   5.616   6.747 -1.6043 -0.5086 -1.0482
   36MOL   H61034280   6.531   5.370   6.645 -1.4019 -0.0093 -0.0805
   36MOL   H61134281   6.476   5.309   6.794 -2.1560 -0.0082 -3.0214
   36MOL   H61234282   6.680   5.423   6.912 -0.8052 -1.0267  0.5373
   36MOL   H61334283   6.725   5.480   6.747 -1.0124  0.4596  0.9920
   36MOL   H61434284   6.696   5.194   6.811  0.4958 -0.2100 -1.0461
   36MOL   H61534285   6.746   5.267   6.664  1.6093  1.4025 -0.6800
   36MOL   H61634286   6.903   5.285   6.936 -2.1997  0.1470  0.3137
   36MOL   H61734287   6.958   5.335   6.778  0.7531  0.9951  2.1258
   36MOL   H61834288   6.904   4.860   6.721 -1.2552  1.0594  0.8252
   36MOL   H61934289   7.064   4.933   6.740  0.0442  2.3910 -0.2980
   36MOL   H62034290   6.913   4.784   6.965  0.9977  1.0559  1.2018
   36MOL   H62134291   7.082   4.852   6.959 -0.6790 -0.5368  0.2918
   36MOL   H62234292   6.956   4.622   6.798  0.9983  0.1756 -1.3853
   36MOL   H62334293   7.051   4.602   6.934  1.0381  0.7111  0.5958
   36MOL   H62434294   7.174   4.723   6.673  2.2509  0.0174 -0.9085
   36MOL   H62534295   7.161   4.555   6.705 -1.4713  0.5944 -1.7658
   36MOL   O62634296   7.385   4.588   6.760  0.1452  0.6413  0.0165
   36MOL   C62734297   7.523   4.587   6.789 -0.1345 -0.0713  0.0901
   36MOL   C62834298   7.578   4.444   6.765  0.1718  0.4284 -0.2984
   36MOL   C62934299   7.556   4.390   6.627 -0.1740 -0.1506 -0.0334
   36MOL   C63034300   7.596   4.243   6.615 -0.0576  0.8924  0.1881
   36MOL   C63134301   7.596   4.189   6.467  0.5484 -0.1835 -0.2580
   36MOL   C63234302   7.457   4.171   6.413 -0.1332 -0.0775  0.2116
   36MOL   C63334303   7.461   4.144   6.260 -0.2281  0.0717 -0.4277
   36MOL   C63434304   7.332   4.121   6.191  0.5689 -0.2056  0.0143
   36MOL   C63534305   7.209   4.201   6.233 -0.4898 -0.0467  0.4891
   36MOL   C63634306   7.089   4.157   6.135 -0.3704  0.6355  0.6052
   36MOL   O63734307   7.060   4.022   6.159 -0.2241  0.4884  0.4309
   36MOL   C63834308   6.963   3.989   6.250 -0.6850 -0.6613  0.3267
   36MOL   O63934309   6.914   4.074   6.329 -0.5902  0.3786  0.8317
   36MOL   C64034310   6.925   3.844   6.257 -0.2512 -0.0293 -0.3204
   36MOL   C64134311   7.034   3.755   6.311 -0.4644 -0.4012 -0.3979
   36MOL   C64234312   6.994   3.604   6.339  0.7893 -0.0216  0.0099
   36MOL   C64334313   7.118   3.534   6.403 -1.3672 -0.0392  0.0273
   36MOL   C64434314   7.080   3.384   6.430  0.3978  0.2276  0.5496
   36MOL   O64534315   7.078   3.296   6.346  1.0706 -0.0229  0.2407
   36MOL   H64634316   7.565   4.660   6.720  0.0172 -0.5443 -0.3229
   36MOL   H64734317   7.546   4.614   6.892 -1.8754  1.6829  0.0264
   36MOL   H64834318   7.534   4.378   6.840  1.2654  0.2314  0.1760
   36MOL   H64934319   7.685   4.439   6.781 -0.3877 -2.0706  3.1576
   36MOL   H65034320   7.449   4.389   6.606  0.1212  0.8679 -1.6832
   36MOL   H65134321   7.600   4.461   6.557  2.1392 -0.9553  0.5576
   36MOL   H65234322   7.540   4.178   6.682  0.1321 -1.3770 -1.8139
   36MOL   H65334323   7.698   4.236   6.655 -0.8552  1.3759  2.3867
   36MOL   H65434324   7.646   4.092   6.464 -1.8868 -1.4267 -2.9063
   36MOL   H65534325   7.659   4.263   6.418  1.4371  0.2771  1.5239
   36MOL   H65634326   7.401   4.263   6.428 -2.1476 -0.8510 -2.1858
   36MOL   H65734327   7.410   4.095   6.476 -2.0140  1.0184  0.1614
   36MOL   H65834328   7.537   4.070   6.236  0.0878  0.5157 -0.8057
   36MOL   H65934329   7.498   4.226   6.199 -0.5573  0.0323 -0.6766
   36MOL   H66034330   7.309   4.015   6.197  0.4389 -0.2609 -1.3340
   36MOL   H66134331   7.347   4.140   6.085  1.1536  2.1122  0.4881
   36MOL   H66234332   7.179   4.188   6.337 -2.2853  0.0178  0.0042
   36MOL   H66334333   7.228   4.308   6.218 -2.9812  0.2316 -1.1479
   36MOL   H66434334   7.111   4.147   6.029 -1.5329 -3.5438  0.6939
   36MOL   H66534335   7.004   4.225   6.135 -0.1764  0.8785 -0.7280
   36MOL   H66634336   6.832   3.838   6.313 -0.8479 -1.3219 -1.4315
   36MOL   H66734337   6.907   3.818   6.153  0.7579 -0.9812 -0.2771
   36MOL   H66834338   7.069   3.794   6.407  1.2276 -3.1540  0.1859
   36MOL   H66934339   7.122   3.757   6.247  0.8540 -1.3322  1.3130
   36MOL   H67034340   6.971   3.554   6.245  1.9519 -1.5594  0.5342
   36MOL   H67134341   6.910   3.600   6.409  0.1136  1.5014 -0.6866
   36MOL   H67234342   7.142   3.577   6.501  1.1055  1.0466 -1.0184
   36MOL   H67334343   7.212   3.546   6.349 -1.0102  1.8029  0.9977
   36MOL   O67434344   7.038   3.367   6.559  0.2480  0.0863 -0.1951
   36MOL   C67534345   6.999   3.235   6.608 -0.0683 -0.1385  0.4610
   36MOL   C67634346   6.979   3.244   6.753 -0.2564  0.0505  0.5005
   36MOL   C67734347   6.936   3.109   6.809 -0.5346  0.2923  0.1887
   36MOL   C67834348   6.892   3.114   6.956  0.2554 -0.1047 -0.6209
   36MOL   C67934349   6.824   2.980   6.998  0.2435 -0.7481 -0.6306
   36MOL   C68034350   6.774   3.009   7.141  0.3968  0.8540 -0.6094
   36MOL   C68134351   6.656   2.922   7.186  0.3391 -0.3825  0.6845
   36MOL   C68234352   6.584   2.994   7.303 -0.1262  0.3161  0.0603
   36MOL   C68334353   6.492   2.905   7.383 -0.0254 -0.2946 -0.0387
   36MOL   C68434354   6.469   2.949   7.527  0.8160 -0.4828  0.1244
   36MOL   O68534355   6.372   3.056   7.523  0.2245  0.4742 -0.6545
   36MOL   C68634356   6.384   3.153   7.608  0.3046  0.2651 -0.1498
   36MOL   O68734357   6.474   3.170   7.680  0.1662 -0.5108  0.3772
   36MOL   C68834358   6.259   3.244   7.595  0.2644  0.4155 -0.7334
   36MOL   C68934359   6.274   3.360   7.494 -0.2832 -1.3468 -0.1147
   36MOL   C69034360   6.330   3.316   7.354 -0.1758  0.1399 -0.6219
   36MOL   C69134361   6.261   3.199   7.276 -0.1384  0.1469 -0.7646
   36MOL   C69234362   6.301   3.192   7.129  0.5848  0.3606  0.1259
   36MOL   O69334363   6.395   3.264   7.085  0.2414 -0.2537  0.4674
   36MOL   H69434364   6.904   3.221   6.557 -0.0553  0.9074  0.1283
   36MOL   H69534365   7.067   3.155   6.579  1.8504  1.5448  0.2039
   36MOL   H69634366   6.899   3.314   6.775 -0.5695  0.0237 -0.5675
   36MOL   H69734367   7.072   3.278   6.800 -0.5273  0.4710  0.7444
   36MOL   H69834368   6.852   3.074   6.749 -0.5861 -2.3685  1.7003
   36MOL   H69934369   7.014   3.033   6.797 -1.8861 -0.9222 -1.1112
   36MOL   H70034370   6.836   3.206   6.973  1.6525  0.7293 -0.3515
   36MOL   H70134371   6.975   3.142   7.021 -0.6007 -0.6770  0.7453
   36MOL   H70234372   6.896   2.899   7.010  0.3687 -0.5590 -0.0943
   36MOL   H70334373   6.749   2.965   6.921 -1.4478  0.5318  0.7203
   36MOL   H70434374   6.754   3.115   7.157 -1.8335  0.5456 -1.0885
   36MOL   H70534375   6.853   2.986   7.212  1.4217 -0.7095 -2.2025
   36MOL   H70634376   6.706   2.830   7.216  1.5821  0.3192  0.8174
   36MOL   H70734377   6.597   2.911   7.095  0.3809 -0.0579  0.6164
   36MOL   H70834378   6.536   3.083   7.262 -0.8279 -0.5925 -1.1405
   36MOL   H70934379   6.662   3.037   7.365  2.5847 -1.0400 -2.2985
   36MOL   H71034380   6.400   2.924   7.327  0.9893  2.4108 -0.8647
   36MOL   H71134381   6.532   2.804   7.374  0.5595  0.2190 -3.8863
   36MOL   H71234382   6.567   2.979   7.564  1.0975 -0.8254 -0.3440
   36MOL   H71334383   6.423   2.873   7.590  0.6204 -0.2845  0.2237
   36MOL   H71434384   6.167   3.193   7.567 -0.7663  0.3827  2.5865
   36MOL   H71534385   6.256   3.290   7.694 -1.0281 -0.2230 -0.4708
   36MOL   H71634386   6.331   3.448   7.524 -1.8763  0.1082 -1.2112
   36MOL   H71734387   6.179   3.411   7.475  0.1884 -0.5633 -0.3788
   36MOL   H71834388   6.428   3.270   7.364 -1.5079 -2.8515 -0.9340
   36MOL   H71934389   6.340   3.411   7.301  0.4327 -0.4841 -1.6228
   36MOL   H72034390   6.154   3.216   7.288 -0.4072 -1.7524 -0.4390
   36MOL   H72134391   6.278   3.102   7.322  1.1951  0.7805  0.1382
   36MOL   O72234392   6.221   3.115   7.058 -0.5094  0.2847  0.4998
   36MOL   C72334393   6.223   3.133   6.913  0.3954 -0.1297 -0.8074
   36MOL   C72434394   6.303   3.026   6.841 -0.2184 -0.6464 -0.2583
   36MOL   C72534395   6.300   2.894   6.908 -0.6255  1.0210  0.2111
   36MOL   C72634396   6.329   2.774   6.816  0.0572  0.1251 -0.3706
   36MOL   C72734397   6.472   2.784   6.759  0.2700 -0.0872  0.4575
   36MOL   C72834398   6.521   2.651   6.688 -0.2339  0.7091  0.3189
   36MOL   C72934399   6.675   2.635   6.666  0.4313 -0.1035  0.0149
   36MOL   C73034400   6.728   2.748   6.582  0.0152 -0.5271  0.6641
   36MOL   C73134401   6.882   2.743   6.582 -0.3225  0.1461  0.0793
   36MOL   C73234402   6.935   2.618   6.509  0.3007 -0.0868  0.7900
   36MOL   O73334403   7.064   2.579   6.554 -0.2303  0.4964  0.1187
   36MOL   C73434404   7.151   2.523   6.472  0.2785 -0.1691  0.2895
   36MOL   O73534405   7.122   2.487   6.359  0.1437 -0.0123  0.0219
   36MOL   C73634406   7.273   2.469   6.540 -0.9243  0.0304  0.3784
   36MOL   C73734407   7.322   2.329   6.500 -0.0200 -0.2523  0.1304
   36MOL   C73834408   7.387   2.325   6.361 -0.1234 -0.5607 -0.2999
   36MOL   C73934409   7.429   2.179   6.325 -0.0713 -0.0376 -0.5857
   36MOL   C74034410   7.528   2.107   6.417 -0.7055 -0.4617 -0.0942
   36MOL   O74134411   7.641   2.149   6.436 -0.0968  0.2888  0.2498
   36MOL   H74234412   6.119   3.139   6.883  0.0252  0.3436  0.5590
   36MOL   H74334413   6.269   3.225   6.877  2.8950 -1.4678 -1.1616
   36MOL   H74434414   6.405   3.063   6.838 -0.4220 -0.0970 -0.5016
   36MOL   H74534415   6.270   3.029   6.737 -0.8916 -0.5508 -0.0482
   36MOL   H74634416   6.366   2.891   6.994  0.6546 -0.2767 -0.7916
   36MOL   H74734417   6.199   2.880   6.947 -0.0316 -0.9199  1.1558
   36MOL   H74834418   6.256   2.781   6.735 -1.0290  0.7217  0.6455
   36MOL   H74934419   6.310   2.680   6.868 -0.3345 -0.4277 -1.4724
   36MOL   H75034420   6.536   2.804   6.846 -1.1525 -2.4058  2.0911
   36MOL   H75134421   6.475   2.864   6.686  0.8084 -1.3183 -0.8878
   36MOL   H75234422   6.469   2.638   6.593  1.4715 -0.4128 -0.4913
   36MOL   H75334423   6.491   2.569   6.752  2.2354 -0.0309  0.5936
   36MOL   H75434424   6.689   2.537   6.622  0.2257 -0.1695  0.0931
   36MOL   H75534425   6.728   2.640   6.761 -1.5625 -1.0170  1.2092
   36MOL   H75634426   6.699   2.840   6.633  1.5375  0.1733  0.2932
   36MOL   H75734427   6.684   2.756   6.483  1.7649  1.8993  0.0355
   36MOL   H75834428   6.915   2.833   6.530 -1.0011  0.4923  0.2396
   36MOL   H75934429   6.923   2.738   6.683 -0.5061 -0.2638  0.1349
   36MOL   H76034430   6.942   2.643   6.403  2.5093  1.5430  1.2819
   36MOL   H76134431   6.872   2.530   6.512 -0.6432  0.4920 -1.2589
   36MOL   H76234432   7.356   2.539   6.529 -0.4680 -0.3388  1.4022
   36MOL   H76334433   7.246   2.472   6.645 -1.0029 -0.0844  0.3617
   36MOL   H76434434   7.237   2.261   6.509 -0.7739  0.4496 -1.5208
   36MOL   H76534435   7.390   2.293   6.577  0.4647 -1.9807 -1.0791
   36MOL   H76634436   7.466   2.398   6.344  2.4501 -3.0679  0.5430
   36MOL   H76734437   7.315   2.357   6.285 -0.5057 -0.6736  0.0098
   36MOL   H76834438   7.451   2.177   6.218 -2.7270  2.7354 -1.2358
   36MOL   H76934439   7.338   2.120   6.320  0.2383 -0.5492 -0.2623
   36MOL   O77034440   7.478   2.002   6.476  0.4085  0.1615  0.1574
   36MOL   C77134441   7.553   1.947   6.586  0.2801  0.0098  0.5031
   36MOL   C77234442   7.500   1.818   6.635  0.0801  0.1797  0.1721
   36MOL   C77334443   7.559   1.784   6.776  0.4711 -0.0232 -0.3068
   36MOL   C77434444   7.497   1.652   6.838  0.0087 -0.5525  0.6975
   36MOL   C77534445   7.520   1.631   6.989 -0.0370 -0.4424  0.6051
   36MOL   C77634446   7.512   1.487   7.041 -0.2332 -0.4158 -0.2147
   36MOL   C77734447   7.528   1.477   7.194  0.6454 -0.5411 -0.1741
   36MOL   C77834448   7.535   1.327   7.246  1.0780 -0.6753 -0.5076
   36MOL   C77934449   7.550   1.326   7.398  0.0999 -0.2464  0.2290
   36MOL   C78034450   7.592   1.188   7.461 -0.0933 -0.3927  0.1702
   36MOL   O78134451   7.476   1.103   7.467 -0.0346 -0.5456 -0.4869
   36MOL   C78234452   7.474   0.970   7.501  0.2593 -1.0903  0.4914
   36MOL   O78334453   7.566   0.902   7.547  0.3893 -0.2689 -0.5470
   36MOL   C78434454   7.331   0.913   7.485  0.3217  0.2571  0.5047
   36MOL   C78534455   7.240   0.958   7.600  0.1474  0.2315  0.1084
   36MOL   C78634456   7.120   0.866   7.626  0.1666  0.6078  0.0834
   36MOL   C78734457   7.018   0.908   7.740 -0.6466 -0.7331  0.1762
   36MOL   C78834458   6.918   1.015   7.692 -0.1837 -0.5801  0.0184
   36MOL   O78934459   6.901   1.121   7.747  0.0122  0.2835  0.0288
   36MOL   H79034460   7.661   1.949   6.567  0.2070  0.2077  0.1055
   36MOL   H79134461   7.545   2.018   6.669  0.9984 -0.2711  0.8191
   36MOL   H79234462   7.529   1.730   6.578 -1.1517 -1.1602  1.5920
   36MOL   H79334463   7.392   1.807   6.643  0.3323 -1.8372  1.2395
   36MOL   H79434464   7.666   1.766   6.785  0.3649 -0.2907  0.3851
   36MOL   H79534465   7.535   1.862   6.848  1.4514 -0.7330  0.8150
   36MOL   H79634466   7.541   1.569   6.782 -0.9470 -0.0463 -0.8299
   36MOL   H79734467   7.392   1.637   6.812 -0.3651  3.3907 -0.3689
   36MOL   H79834468   7.460   1.709   7.036  2.1764  1.3170  0.6215
   36MOL   H79934469   7.622   1.668   7.004  0.7622 -0.8433 -3.3272
   36MOL   H80034470   7.593   1.430   6.997  0.0853 -0.2648  0.1714
   36MOL   H80134471   7.417   1.435   7.027 -0.9467 -0.4780  4.0170
   36MOL   H80234472   7.444   1.522   7.248  1.1891 -2.2888  2.2498
   36MOL   H80334473   7.616   1.533   7.223  1.4471 -2.4453  1.2083
   36MOL   H80434474   7.622   1.282   7.201  1.7974  0.5542 -0.3784
   36MOL   H80534475   7.453   1.263   7.212 -0.4914  1.8390 -1.6118
   36MOL   H80634476   7.619   1.401   7.435 -0.6246  0.2572  0.5890
   36MOL   H80734477   7.453   1.355   7.441 -0.3204  0.0439 -0.9045
   36MOL   H80834478   7.638   1.199   7.559  0.1085 -0.0707  0.0417
   36MOL   H80934479   7.679   1.150   7.407 -0.1034  0.3685 -0.3963
   36MOL   H81034480   7.295   0.925   7.383 -0.9883  0.3498  0.9690
   36MOL   H81134481   7.352   0.807   7.504 -0.0120  0.0973 -0.0104
   36MOL   H81234482   7.205   1.059   7.577 -1.2119 -0.3141 -0.3049
   36MOL   H81334483   7.305   0.959   7.687 -0.9415  0.5801  0.9342
   36MOL   H81434484   7.158   0.768   7.655 -0.3132  0.7664  1.2436
   36MOL   H81534485   7.061   0.841   7.537  0.3556  2.1105 -0.4872
   36MOL   H81634486   7.065   0.941   0.068  3.7780  1.1493 -2.5834
   36MOL   H81734487   6.957   0.827   0.015 -1.0335 -0.6802 -0.3044
   36MOL   O81834488   6.840   0.960   7.593  0.3194  0.0548 -0.0337
   36MOL   C81934489   6.740   1.046   7.536  0.1317  0.1033 -0.2068
   36MOL   C82034490   6.653   0.974   7.429  1.0237 -0.0537  1.0106
   36MOL   C82134491   6.549   1.064   7.355  0.4205  0.7401  0.0864
   36MOL   C82234492   6.591   1.178   7.267  0.1038 -0.4721 -0.7319
   36MOL   C82334493   6.652   1.132   7.135  0.4492  0.9071  0.0883
   36MOL   C82434494   6.710   1.239   7.043 -0.3444  0.3911 -0.0686
   36MOL   C82534495   6.771   1.196   6.910 -0.4137 -0.3598  0.0467
   36MOL   C82634496   6.822   1.318   6.831 -0.2266  0.0865 -0.2384
   36MOL   C82734497   6.941   1.284   6.743  0.0602 -0.3423  0.5706
   36MOL   C82834498   7.007   1.407   6.677 -0.1220 -0.6639 -0.3763
   36MOL   O82934499   7.025   1.510   6.773  0.2391  0.1967 -0.3005
   36MOL   C83034500   7.126   1.512   6.860 -0.6184  0.5199  0.5010
   36MOL   O83134501   7.221   1.438   6.856 -0.2391 -0.2535  0.2536
   36MOL   C83234502   7.124   1.623   6.962  0.1789 -0.3860 -0.5418
   36MOL   C83334503   7.119   1.768   6.900 -0.0621 -0.7224  0.2906
   36MOL   C83434504   6.980   1.819   6.848 -0.1471  0.0004 -0.2429
   36MOL   C83534505   6.872   1.858   6.957  0.4792 -0.4682  0.1985
   36MOL   C83634506   6.774   1.753   7.007  0.2426 -0.3804 -0.2613
   36MOL   O83734507   6.780   1.697   7.117 -0.0624  0.6613 -0.3696
   36MOL   H83834508   6.659   1.071   7.605 -0.4051  0.0920 -0.8285
   36MOL   H83934509   6.791   1.139   7.513  3.0713 -1.8306 -1.7859
   36MOL   H84034510   6.585   0.896   7.462 -0.2021 -0.6995 -2.8935
   36MOL   H84134511   6.716   0.920   7.358 -1.2111  0.1398 -1.1521
   36MOL   H84234512   6.489   1.004   7.287  0.7563  1.6055 -0.9829
   36MOL   H84334513   6.481   1.102   7.431 -0.8157 -1.0447 -0.0911
   36MOL   H84434514   6.659   1.241   7.325  0.1149 -0.8845 -0.2972
   36MOL   H84534515   6.503   1.241   7.251 -0.1020  0.1418  2.4378
   36MOL   H84634516   6.576   1.069   7.087 -0.0960  2.2283 -0.8131
   36MOL   H84734517   6.730   1.064   7.169 -0.7106 -1.4084 -1.7232
   36MOL   H84834518   6.790   1.295   7.091 -0.9643  0.7866  0.5084
   36MOL   H84934519   6.626   1.307   7.028 -0.1999  0.4409 -0.6716
   36MOL   H85034520   6.698   1.142   6.850  0.4183 -1.3461 -0.0874
   36MOL   H85134521   6.854   1.130   6.932 -0.3572  0.1159  1.3144
   36MOL   H85234522   6.826   1.401   6.902 -3.9902 -0.6910  0.9781
   36MOL   H85334523   6.745   1.353   6.762 -0.6311 -1.6025 -0.6655
   36MOL   H85434524   7.019   1.240   6.806  1.7029 -0.4509 -1.4840
   36MOL   H85534525   6.917   1.211   6.665 -0.2907 -0.0620  0.4129
   36MOL   H85634526   6.938   1.441   6.600 -1.4377 -0.9423  0.6646
   36MOL   H85734527   7.097   1.370   6.627 -0.2317  1.8042 -2.4797
   36MOL   H85834528   7.030   1.599   7.012  0.8927  2.1459  2.1337
   36MOL   H85934529   7.202   1.627   7.038 -0.5172 -1.8855  0.2926
   36MOL   H86034530   7.195   1.764   6.821  0.0741  0.6811  0.3484
   36MOL   H86134531   7.162   1.834   6.975  1.3229  0.1742 -1.2576
   36MOL   H86234532   6.937   1.749   6.776 -2.4541  0.4566  0.6408
   36MOL   H86334533   7.010   1.903   6.787 -0.3730  0.8477  0.7977
   36MOL   H86434534   6.809   1.931   6.907  2.5508 -0.2324 -2.1756
   36MOL   H86534535   6.906   1.924   7.037 -0.5859  0.7277 -0.3238
   36MOL   O86634536   6.688   1.732   6.917  0.2742 -0.5131 -0.4338
   36MOL   C86734537   6.587   1.639   6.934 -0.6249  0.8357 -0.3607
   36MOL   C86834538   6.494   1.656   6.817  0.6101  0.0695  0.1849
   36MOL   C86934539   6.565   1.635   6.675  0.0581  0.5718 -0.0353
   36MOL   C87034540   6.474   1.638   6.558  0.4501  0.0517  0.5172
   36MOL   C87134541   6.544   1.625   6.418 -0.1342 -0.1336 -0.4213
   36MOL   C87234542   6.603   1.762   6.387  0.1010 -0.3998 -0.1936
   36MOL   C87334543   6.692   1.772   6.264  0.0551  0.1797 -0.9935
   36MOL   C87434544   6.692   1.918   6.207  0.2562 -0.7311 -0.1016
   36MOL   C87534545   6.770   1.919   6.073  0.8435  0.1393 -0.3262
   36MOL   C87634546   6.759   2.059   6.009  0.7392 -0.1084 -0.3439
   36MOL   O87734547   6.641   2.075   5.940 -0.5320  0.4250  0.0569
   36MOL   C87834548   6.620   2.189   5.862 -0.0419  0.3668  0.4102
   36MOL   O87934549   6.708   2.257   5.815  0.4132  0.4522  0.3300
   36MOL   C88034550   6.472   2.219   5.841 -0.3305 -0.2323  0.0111
   36MOL   C88134551   6.425   2.143   5.724  0.1580  0.0899  0.1246
   36MOL   C88234552   6.271   2.135   5.738  0.2675  0.7214 -0.0953
   36MOL   C88334553   6.201   2.071   5.614 -0.5849 -0.4145 -0.7694
   36MOL   C88434554   6.209   2.147   5.483  0.0476 -0.6430 -0.5794
   36MOL   O88534555   6.236   2.268   5.476  0.0047 -0.3838 -0.2836
   36MOL   H88634556   6.630   1.540   6.918 -1.4633 -0.2342  3.4434
   36MOL   H88734557   6.543   1.652   7.033  0.1748 -0.5325  0.1875
   36MOL   H88834558   6.430   1.744   6.830  0.1308 -0.2338 -0.1136
   36MOL   H88934559   6.434   1.569   6.841 -0.3122  0.2087 -1.5473
   36MOL   H89034560   6.632   1.721   6.670  0.0176  0.7476  1.8931
   36MOL   H89134561   6.619   1.541   6.665 -0.2512  0.4105 -0.1834
   36MOL   H89234562   6.411   1.727   6.563 -0.7893 -0.8630  1.2518
   36MOL   H89334563   6.411   1.550   6.564 -0.7731  0.9415  0.9642
   36MOL   H89434564   6.461   1.605   6.351 -1.6770 -0.3672  1.4863
   36MOL   H89534565   6.620   1.549   6.404 -1.5605 -2.1723  2.2848
   36MOL   H89634566   6.657   1.812   6.467  0.3396  1.2276 -1.3365
   36MOL   H89734567   6.523   1.832   6.366  0.0290 -0.0889  1.0811
   36MOL   H89834568   6.657   1.700   6.190  0.2886 -2.0922  1.0314
   36MOL   H89934569   6.795   1.741   6.283 -0.5299 -1.3048 -0.1753
   36MOL   H90034570   6.742   1.982   6.280  0.5720 -3.2037  1.9220
   36MOL   H90134571   6.589   1.953   6.208 -0.0482 -1.5238 -1.4361
   36MOL   H90234572   6.873   1.887   6.079  0.8994  0.1046 -1.4620
   36MOL   H90334573   6.734   1.843   6.004 -0.4580 -0.1000  0.5894
   36MOL   H90434574   6.841   2.072   5.938 -0.1167  3.7594 -0.7038
   36MOL   H90534575   6.780   2.132   6.087 -1.8365 -2.2943  2.5293
   36MOL   H90634576   6.433   2.173   5.931  1.4187 -0.1445  0.8276
   36MOL   H90734577   6.434   2.321   5.842  1.8777  0.6314 -0.8641
   36MOL   H90834578   6.452   2.039   5.708 -2.1838 -0.3622 -1.2905
   36MOL   H90934579   6.455   2.198   5.634  0.3902  0.1977  0.2675
   36MOL   H91034580   6.232   2.235   5.757 -1.8636 -0.4109  1.7193
   36MOL   H91134581   6.240   2.071   5.820  1.1209  2.3247  1.5360
   36MOL   H91234582   6.095   2.063   5.638  0.1237  0.7215  3.0283
   36MOL   H91334583   6.237   1.969   5.598 -1.2999 -1.1558  2.1548
   36MOL   O91434584   6.200   2.064   5.377 -0.3580 -0.0621  0.5496
   36MOL   C91534585   6.234   2.108   5.250  0.3764  0.0116  0.6651
   36MOL   C91634586   6.137   2.201   5.174 -0.4693  0.1447 -0.1099
   36MOL   C91734587   6.001   2.139   5.132 -0.1858  0.3556 -0.4736
   36MOL   C91834588   5.926   2.214   5.027 -0.5090  0.2179  0.1050
   36MOL   C91934589   6.008   2.235   4.894  0.7172 -0.1256 -0.5450
   36MOL   C92034590   6.057   2.374   4.869 -0.9709 -0.2517 -0.3055
   36MOL   C92134591   5.948   2.464   4.807  0.3123 -0.5056 -0.5558
   36MOL   C92234592   5.998   2.606   4.788  0.6557  0.2542 -0.4383
   36MOL   C92334593   6.101   2.619   4.677 -0.1235 -0.2837  0.4963
   36MOL   C92434594   6.153   2.761   4.643 -0.5980 -0.1439 -0.1518
   36MOL   O92534595   6.235   2.800   4.747  0.2895 -0.3291  0.1059
   36MOL   C92634596   6.351   2.861   4.712 -0.4888  0.5820  0.5024
   36MOL   O92734597   6.377   2.902   4.601 -0.2023  0.2878 -0.5037
   36MOL   C92834598   6.449   2.877   4.833  0.2859 -0.8767  0.5125
   36MOL   C92934599   6.514   3.018   4.849  0.6896  1.2758 -0.1472
   36MOL   C93034600   6.617   3.014   4.965  0.0328 -0.2307  0.2004
   36MOL   C93134601   6.713   3.136   4.971  0.2587  0.4119  0.1027
   36MOL   C93234602   6.836   3.112   4.881  0.0270 -0.4934  0.8003
   36MOL   O93334603   6.914   3.019   4.902  0.4586 -0.0618 -0.8226
   36MOL   H93434604   6.332   2.153   5.264 -0.4021  1.0687  2.9605
   36MOL   H93534605   6.257   2.019   5.191  0.0997  0.4608 -0.1214
   36MOL   H93634606   6.202   2.241   5.096  1.3626  2.2379  2.4050
   36MOL   H93734607   6.113   2.293   5.227 -0.4459 -0.9001  1.7403
   36MOL   H93834608   6.021   2.041   5.087 -0.0655 -1.4976  3.4315
   36MOL   H93934609   5.936   2.120   5.217 -0.6440 -4.3276 -1.7183
   36MOL   H94034610   5.893   2.305   5.076 -0.0988 -0.2131  1.2041
   36MOL   H94134611   5.841   2.150   5.005  0.7710 -1.9390  1.2672
   36MOL   H94234612   5.956   2.203   4.804  0.6323 -0.9786 -0.1946
   36MOL   H94334613   6.087   2.160   4.890 -0.5958 -1.5632  0.2513
   36MOL   H94434614   6.151   2.379   4.815  0.9157  2.4879  3.0302
   36MOL   H94534615   6.091   2.412   4.965  0.2132  0.5171 -1.0155
   36MOL   H94634616   5.865   2.462   4.878  1.2912 -4.1964  0.5894
   36MOL   H94734617   5.909   2.422   4.714  0.3201 -0.0788 -0.7544
   36MOL   H94834618   6.040   2.653   4.877 -0.4114  1.1683 -0.4053
   36MOL   H94934619   5.911   2.671   4.775 -0.6519 -1.3434  0.1331
   36MOL   H95034620   6.186   2.551   4.688 -0.5125 -1.1756 -1.7145
   36MOL   H95134621   6.055   2.579   4.587  0.4787 -0.5282  0.2916
   36MOL   H95234622   6.067   2.828   4.650 -1.5244 -1.5483  2.9438
   36MOL   H95334623   6.195   2.766   4.543 -1.5006 -2.6415 -0.6824
   36MOL   H95434624   6.390   2.864   4.923 -0.4855  2.7721  0.6235
   36MOL   H95534625   6.523   2.798   4.840  0.2247 -0.8812  1.0823
   36MOL   H95634626   6.436   3.091   4.871 -0.1373  0.3928 -0.1250
   36MOL   H95734627   6.569   3.043   4.759 -0.6708 -1.4001 -1.7966
   36MOL   H95834628   6.673   2.921   4.955  1.0338  0.5821 -2.1320
   36MOL   H95934629   6.555   3.004   5.054 -1.2061  2.3138 -0.3292
   36MOL   H96034630   6.756   3.144   5.071  1.4923  0.7837 -0.4531
   36MOL   H96134631   6.653   3.226   4.956  0.4475  0.3799 -0.8388
   36MOL   H96234632   6.854   3.172   4.793 -1.8110  0.0256  0.7512
   37MOL     O134633   3.922   1.714   0.813 -0.4040 -0.4393  0.3912
   37MOL     C234634   4.054   1.728   0.858  0.5009  0.1224  0.2583
   37MOL     C334635   4.059   1.689   1.005 -0.3045 -0.5279  0.4092
   37MOL     C434636   3.964   1.770   1.093 -0.4002 -0.2290  0.0234
   37MOL     C534637   3.980   1.749   1.246  0.9743 -0.1875 -0.2995
   37MOL     C634638   3.877   1.819   1.340  0.2412  0.0947  1.2210
   37MOL     C734639   3.905   1.775   1.490  0.1446 -0.4941  0.5243
   37MOL     C834640   3.852   1.873   1.596  0.1889 -0.0867  0.1324
   37MOL     C934641   3.708   1.897   1.589 -0.5300  0.5579  0.2369
   37MOL    C1034642   3.660   1.973   1.714  0.1364  1.3525 -0.9203
   37MOL    C1134643   3.524   2.033   1.684  0.1872  0.2654 -0.1211
   37MOL    O1234644   3.418   1.933   1.678  0.2418 -0.6777 -0.0821
   37MOL    C1334645   3.293   1.971   1.684 -0.1863 -0.0985  0.0816
   37MOL    O1434646   3.256   2.090   1.685  0.0197  0.1264 -0.0352
   37MOL    C1534647   3.201   1.846   1.675  0.3605 -0.4017 -0.9772
   37MOL    C1634648   3.065   1.870   1.612 -0.5705 -0.1099  0.4013
   37MOL    C1734649   3.067   1.921   1.464  0.1596 -0.1055 -0.0607
   37MOL    C1834650   2.935   1.985   1.413 -0.0769 -0.3645 -0.1243
   37MOL    C1934651   2.837   1.879   1.373  0.2424  0.2985 -0.1193
   37MOL    O2034652   2.743   1.852   1.449  0.0626  0.2600 -0.3841
   37MOL    H2134653   4.137   1.675   0.810  0.4192 -1.0333  1.3605
   37MOL    H2234654   4.093   1.829   0.847  3.9140 -1.4524 -3.1842
   37MOL    H2334655   4.160   1.690   1.046 -0.0088 -0.9579 -0.2909
   37MOL    H2434656   4.026   1.585   1.009  0.4228 -0.8166 -0.7403
   37MOL    H2534657   3.985   1.875   1.073  0.1181 -0.2817  0.2609
   37MOL    H2634658   3.860   1.752   1.065 -0.5156  0.3016  0.1068
   37MOL    H2734659   4.082   1.769   1.276  0.6048 -0.6104  1.2677
   37MOL    H2834660   3.966   1.641   1.254  1.9577 -0.4281 -1.6122
   37MOL    H2934661   3.774   1.793   1.315  0.6799  0.1833 -0.7821
   37MOL    H3034662   3.884   1.928   1.335  0.9902 -0.0316 -1.4077
   37MOL    H3134663   4.011   1.758   1.511  0.6840  1.7008 -0.2209
   37MOL    H3234664   3.854   1.680   1.504 -1.0789  0.6194  3.9318
   37MOL    H3334665   3.906   1.966   1.578 -0.4196 -0.0037 -1.3675
   37MOL    H3434666   3.889   1.822   1.685 -0.0207 -2.2913 -1.0168
   37MOL    H3534667   3.659   1.804   1.561 -0.1940  0.2627  0.6094
   37MOL    H3634668   3.692   1.964   1.505  1.8065  0.2129 -0.5217
   37MOL    H3734669   3.659   1.915   1.807 -2.2338  0.4591 -1.4707
   37MOL    H3834670   3.732   2.052   1.737  0.1750  1.6733 -2.1267
   37MOL    H3934671   3.537   2.082   1.587  2.0075 -1.1769 -0.6388
   37MOL    H4034672   3.505   2.115   1.754 -1.7323  0.7333 -1.1452
   37MOL    H4134673   3.259   1.762   1.637  0.8941 -1.9547  3.0097
   37MOL    H4234674   3.186   1.817   1.779  1.7582 -0.4847 -0.7834
   37MOL    H4334675   3.020   1.941   1.681 -2.1272 -0.6920  0.0116
   37MOL    H4434676   2.999   1.784   1.617 -1.1331  0.3416  0.8367
   37MOL    H4534677   3.101   1.847   1.391  0.7777 -1.3918  1.5025
   37MOL    H4634678   3.138   2.002   1.450  1.0371 -1.0721 -1.4236
   37MOL    H4734679   2.953   2.047   1.325 -0.4497  0.3660  0.3056
   37MOL    H4834680   2.889   2.051   1.487 -1.0278 -0.0401 -0.9832
   37MOL    H4934681   3.915   1.729   0.720  2.2434 -3.1117 -0.3146
   37MOL    O5034682   2.871   1.815   1.267 -0.3528  0.7617 -0.3298
   37MOL    C5134683   2.810   1.688   1.238  0.1365 -0.5748 -0.1903
   37MOL    C5234684   2.895   1.617   1.135  0.7997  0.5554  0.4203
   37MOL    C5334685   3.041   1.604   1.169  0.0108 -0.0818  0.2715
   37MOL    C5434686   3.122   1.551   1.056  0.1986  0.0929 -0.8481
   37MOL    C5534687   3.116   1.395   1.050 -0.0432  0.1026 -0.1848
   37MOL    C5634688   3.241   1.337   0.978  0.7063  0.0560 -0.3749
   37MOL    C5734689   3.223   1.189   0.941  0.4911  0.1069  0.4618
   37MOL    C5834690   3.344   1.134   0.857 -0.4584 -0.7982 -0.5827
   37MOL    C5934691   3.372   1.198   0.720  0.2636  0.5881  0.0183
   37MOL    C6034692   3.513   1.157   0.669  0.0905  0.0215  0.3054
   37MOL    O6134693   3.538   1.199   0.532 -0.1441  0.4585 -0.5286
   37MOL    C6234694   3.475   1.135   0.435  0.5370  0.3822 -0.5814
   37MOL    O6334695   3.413   1.032   0.443 -0.0122 -0.9325 -0.2864
   37MOL    C6434696   3.486   1.207   0.302  0.1870  0.1605  0.0849
   37MOL    C6534697   3.356   1.195   0.221  0.5203 -0.4619 -0.3934
   37MOL    C6634698   3.231   1.260   0.283 -0.3319 -0.3065  0.0915
   37MOL    C6734699   3.229   1.414   0.279  0.6990  0.1470  0.7263
   37MOL    C6834700   3.124   1.481   0.372  0.1187  0.4177 -0.2632
   37MOL    O6934701   3.102   1.601   0.372  0.3715  0.1852 -0.3904
   37MOL    H7034702   2.809   1.625   1.327 -0.0712 -0.6847 -0.2734
   37MOL    H7134703   2.708   1.703   1.204  0.3910 -1.5132 -1.3982
   37MOL    H7234704   2.876   1.656   1.035 -0.5514 -3.5004 -1.0221
   37MOL    H7334705   2.853   1.516   1.136  1.3052  0.3211 -0.9029
   37MOL    H7434706   3.076   1.706   1.182 -1.8372  0.3954  1.7350
   37MOL    H7534707   3.046   1.544   1.260 -1.5420  2.0743  1.8139
   37MOL    H7634708   3.221   1.593   1.078 -0.0040  0.3432 -0.3955
   37MOL    H7734709   3.091   1.597   0.962 -0.5396 -0.1026 -0.7004
   37MOL    H7834710   3.026   1.377   0.992  0.1629 -2.1634  0.1335
   37MOL    H7934711   3.087   1.337   1.137 -2.6955  0.3436 -0.8810
   37MOL    H8034712   3.327   1.348   1.043  0.1182 -1.2383  0.6545
   37MOL    H8134713   3.253   1.407   0.896  0.2586  0.0252 -0.4706
   37MOL    H8234714   3.124   1.176   0.896  0.9828  1.3455 -1.0312
   37MOL    H8334715   3.228   1.135   1.035  0.9562  1.7242  1.3813
   37MOL    H8434716   3.334   1.027   0.844  0.2123 -0.6304 -2.6246
   37MOL    H8534717   3.430   1.136   0.924 -2.9232 -1.7567  2.7317
   37MOL    H8634718   3.291   1.159   0.658  0.0596  1.2293 -0.1155
   37MOL    H8734719   3.359   1.306   0.725 -0.1088  0.5301  0.2958
   37MOL    H8834720   3.522   1.049   0.673  1.4937  0.0332 -1.8427
   37MOL    H8934721   3.585   1.201   0.737  0.8696  1.6987 -1.5324
   37MOL    H9034722   3.499   1.313   0.323  0.7073 -0.2056  1.6992
   37MOL    H9134723   3.580   1.174   0.258  1.0573  1.8592  0.6510
   37MOL    H9234724   3.333   1.091   0.198 -0.6815 -0.2768 -0.0803
   37MOL    H9334725   3.370   1.248   0.127  0.3296  0.6756  0.2163
   37MOL    H9434726   3.231   1.225   0.386  2.1806 -0.4863  0.0684
   37MOL    H9534727   3.137   1.224   0.243 -1.6262  0.1690  2.6303
   37MOL    H9634728   3.199   1.445   0.179  0.5761  0.4873  0.8676
   37MOL    H9734729   3.325   1.460   0.301  0.4332  1.3655 -0.6378
   37MOL    O9834730   3.057   1.386   0.453 -0.2741 -0.4599  0.1311
   37MOL    C9934731   2.943   1.432   0.526  0.8837  0.6410 -0.2015
   37MOL   C10034732   2.980   1.455   0.674 -0.4401  0.5127  0.0780
   37MOL   C10134733   2.861   1.500   0.764  0.6292  0.0151  0.2681
   37MOL   C10234734   2.746   1.394   0.776 -0.3244 -0.3687 -0.0120
   37MOL   C10334735   2.637   1.442   0.877  0.1258 -0.0492  0.4316
   37MOL   C10434736   2.543   1.322   0.911 -0.4184 -0.1273  0.3063
   37MOL   C10534737   2.422   1.372   0.988 -0.3724  0.3614  0.5912
   37MOL   C10634738   2.328   1.260   1.029  0.0145  0.9808  0.3163
   37MOL   C10734739   2.233   1.252   0.906 -0.2628 -0.2348  0.5161
   37MOL   C10834740   2.127   1.138   0.911  0.0390  0.1243  0.1029
   37MOL   O10934741   2.054   1.129   1.032 -0.0651  0.1436 -0.0044
   37MOL   C11034742   1.952   1.209   1.058 -0.4989  0.5689  0.1893
   37MOL   O11134743   1.906   1.297   0.983 -0.0603 -0.0134  0.0026
   37MOL   C11234744   1.881   1.176   1.184 -0.3032  0.3698 -0.2073
   37MOL   C11334745   1.984   1.118   1.293  0.1500 -0.5024 -0.2612
   37MOL   C11434746   2.088   1.221   1.336 -0.4461 -0.1447 -0.5464
   37MOL   C11534747   2.200   1.169   1.425  0.2091 -0.0417  0.7734
   37MOL   C11634748   2.306   1.082   1.347  0.9190  0.6534 -0.2339
   37MOL   O11734749   2.276   0.966   1.323 -0.2067  0.1596  0.1126
   37MOL   H11834750   2.894   1.517   0.479  0.3446 -0.4097 -1.5607
   37MOL   H11934751   2.879   1.345   0.527  1.1249  0.4393 -1.5005
   37MOL   H12034752   3.060   1.527   0.692 -0.7900  0.4143  2.1908
   37MOL   H12134753   3.028   1.363   0.707 -0.1885  0.4241 -0.5410
   37MOL   H12234754   2.900   1.524   0.863  2.0457 -0.4799 -0.1605
   37MOL   H12334755   2.822   1.594   0.725  2.0313  0.8291  0.8118
   37MOL   H12434756   2.791   1.300   0.808 -0.9053 -1.1841 -1.5543
   37MOL   H12534757   2.684   1.367   0.691 -3.9835  2.6177  1.5675
   37MOL   H12634758   2.583   1.522   0.825  0.6805 -1.0815 -1.8055
   37MOL   H12734759   2.681   1.488   0.965  1.7948  1.1152 -0.9569
   37MOL   H12834760   2.599   1.246   0.966 -0.9857 -0.5400  0.3130
   37MOL   H12934761   2.510   1.288   0.812 -0.7090  1.6440 -0.2164
   37MOL   H13034762   2.390   1.468   0.947  1.1251  1.9168  2.9571
   37MOL   H13134763   2.470   1.398   1.083  1.1703 -0.5182  0.0720
   37MOL   H13234764   2.278   1.303   1.116 -2.6594 -0.2840 -0.5297
   37MOL   H13334765   2.369   1.166   1.065  0.7338  0.5375 -1.6291
   37MOL   H13434766   2.172   1.342   0.895 -0.3881 -0.3280  0.4491
   37MOL   H13534767   2.292   1.247   0.815 -0.8270  1.5584  0.0271
   37MOL   H13634768   2.174   1.040   0.896  0.8000  0.1811  1.8705
   37MOL   H13734769   2.069   1.168   0.824  0.0257  1.3285  0.5178
   37MOL   H13834770   1.832   1.266   1.220  1.0605  0.8082  0.5728
   37MOL   H13934771   1.803   1.101   1.169 -1.5755  1.9865 -1.9227
   37MOL   H14034772   2.030   1.029   1.249  1.0192  0.1240 -0.6332
   37MOL   H14134773   1.936   1.082   1.384 -1.2400  2.7789  0.3758
   37MOL   H14234774   2.030   1.297   1.389 -1.4463 -0.8979 -0.5414
   37MOL   H14334775   2.137   1.268   1.250  4.4091 -2.3817  0.8630
   37MOL   H14434776   2.150   1.107   1.500  1.2830 -1.1196  0.6034
   37MOL   H14534777   2.261   1.239   1.482 -0.7860  2.7188 -1.4741
   37MOL   O14634778   2.420   1.134   1.339  0.5408 -0.0016 -0.0840
   37MOL   C14734779   2.534   1.066   1.290  0.2407 -0.6933  0.4140
   37MOL   C14834780   2.641   1.172   1.274  0.3966  0.0551  0.1390
   37MOL   C14934781   2.691   1.220   1.411  0.4283 -0.0684  0.6053
   37MOL   C15034782   2.790   1.343   1.411 -0.1391  0.8712 -0.3460
   37MOL   C15134783   2.858   1.361   1.550 -0.2194  0.1303 -0.1688
   37MOL   C15234784   2.962   1.475   1.553 -0.7098  0.2421  0.5004
   37MOL   C15334785   3.028   1.490   1.694  0.0833 -0.2024  0.9454
   37MOL   C15434786   3.106   1.373   1.744  0.3900  0.4478 -0.6092
   37MOL   C15534787   3.180   1.401   1.874 -0.2321  0.8292 -0.2819
   37MOL   C15634788   3.277   1.283   1.909  0.6226 -0.9212  0.1782
   37MOL   O15734789   3.207   1.163   1.934  0.2750  0.3157  0.2029
   37MOL   C15834790   3.269   1.055   1.914 -0.8763  0.2932 -0.5433
   37MOL   O15934791   3.390   1.048   1.886  0.4722  0.2154  0.0703
   37MOL   C16034792   3.186   0.928   1.934  0.2549 -0.3466 -0.7552
   37MOL   C16134793   3.048   0.930   1.862 -0.4076  0.3036 -0.4851
   37MOL   C16234794   3.062   0.888   1.714  0.6254 -0.0794  0.5407
   37MOL   C16334795   2.931   0.898   1.636  0.4865  0.1795 -0.5501
   37MOL   C16434796   2.922   0.838   1.496 -0.8746  0.2061  0.1011
   37MOL   O16534797   2.901   0.904   1.392 -0.0196 -0.3767 -0.1457
   37MOL   H16634798   2.562   0.991   1.364  1.9763 -1.8078 -1.3065
   37MOL   H16734799   2.506   1.011   1.200 -0.4278  2.4228 -1.3413
   37MOL   H16834800   2.598   1.247   1.207  1.2733 -0.2026 -0.7212
   37MOL   H16934801   2.729   1.131   1.225  1.1485  0.7936  0.8455
   37MOL   H17034802   2.612   1.247   1.482 -0.7319 -0.7612 -0.3967
   37MOL   H17134803   2.729   1.131   1.461 -0.7424 -1.8857 -1.6343
   37MOL   H17234804   2.733   1.432   1.381 -1.1233  0.8588  1.4151
   37MOL   H17334805   2.853   1.329   1.323 -0.7911 -1.4957 -0.4632
   37MOL   H17434806   2.897   1.263   1.579 -0.8546 -0.3575 -0.9584
   37MOL   H17534807   2.777   1.383   1.619 -1.6562  1.2142 -2.1558
   37MOL   H17634808   2.910   1.570   1.537  0.4947  1.2845  2.5168
   37MOL   H17734809   3.038   1.454   1.477  0.7859  1.3599  1.6507
   37MOL   H17834810   2.968   1.542   1.768 -0.4130 -1.2441  1.2915
   37MOL   H17934811   3.111   1.559   1.680 -0.8829  0.9535  0.8129
   37MOL   H18034812   3.183   1.346   1.672  0.4412  0.6421 -0.6259
   37MOL   H18134813   3.038   1.290   1.764  0.5126  0.2755 -0.8975
   37MOL   H18234814   3.232   1.495   1.858 -0.7909  1.6826  2.5728
   37MOL   H18334815   3.111   1.412   1.958  0.8867  0.3651  0.7015
   37MOL   H18434816   3.329   1.305   2.003 -0.1707 -0.6079  0.5444
   37MOL   H18534817   3.357   1.270   1.836  1.4987  1.4841  0.6668
   37MOL   H18634818   3.241   0.842   1.896  1.2535 -0.5668  1.1630
   37MOL   H18734819   3.173   0.904   2.039  1.9702 -0.4240 -0.5567
   37MOL   H18834820   2.993   1.022   1.881 -1.4217  0.0099 -1.9276
   37MOL   H18934821   2.990   0.852   1.912  0.8346 -0.1464  0.2783
   37MOL   H19034822   3.092   0.783   1.717 -0.5038 -0.4776 -1.1337
   37MOL   H19134823   3.132   0.960   1.671  0.8549  1.5509  3.5115
   37MOL   H19234824   2.894   1.001   1.634 -0.1221 -0.0006  0.7811
   37MOL   H19334825   2.847   0.869   1.700  0.5412 -1.5689 -1.2499
   37MOL   O19434826   2.947   0.706   1.494  0.3146 -0.9579 -0.7704
   37MOL   C19534827   2.908   0.621   1.389  0.3294  0.4416  0.1678
   37MOL   C19634828   3.015   0.515   1.380 -0.2544 -0.0640 -0.3884
   37MOL   C19734829   2.994   0.431   1.261  0.0266 -0.2175  0.1055
   37MOL   C19834830   3.120   0.347   1.226 -0.0332 -0.7000 -0.2597
   37MOL   C19934831   3.098   0.252   1.110  0.4827  0.4575  0.8637
   37MOL   C20034832   3.233   0.199   1.073  0.8547  0.0635 -0.1933
   37MOL   C20134833   3.339   0.295   1.015  0.5821 -0.0076  0.0176
   37MOL   C20234834   3.473   0.233   0.990  0.1344 -0.7025 -0.3100
   37MOL   C20334835   3.578   0.352   0.989 -0.5408 -0.3585  0.1874
   37MOL   C20434836   3.716   0.290   0.969  0.8194 -0.4464  0.1301
   37MOL   O20534837   3.798   0.384   0.887 -0.8121  0.5159 -0.3195
   37MOL   C20634838   3.927   0.390   0.902 -0.0053  0.0225 -0.3521
   37MOL   O20734839   3.979   0.337   1.001 -0.3739 -0.2010 -0.8699
   37MOL   C20834840   4.004   0.475   0.804  0.5754  0.4294  0.2028
   37MOL   C20934841   3.951   0.616   0.774  0.2622 -0.4214 -0.3210
   37MOL   C21034842   4.024   0.675   0.651  0.2675 -0.2567  0.3257
   37MOL   C21134843   4.013   0.824   0.627  0.4587  0.4341 -0.0662
   37MOL   C21234844   3.880   0.870   0.586 -0.3026  0.1952  0.3318
   37MOL   O21334845   3.808   0.940   0.657 -0.3893 -0.2661  0.5129
   37MOL   H21434846   2.815   0.572   1.415  0.0732  0.4185 -0.7846
   37MOL   H21534847   2.899   0.669   1.292 -2.0849 -1.4553 -0.5832
   37MOL   H21634848   3.011   0.451   1.468 -1.8920 -0.1669 -0.5324
   37MOL   H21734849   3.109   0.570   1.388  0.9822 -2.5459  3.0922
   37MOL   H21834850   2.909   0.364   1.273 -0.3896  0.1670 -0.6256
   37MOL   H21934851   2.968   0.501   1.181 -1.8807 -1.0115 -0.0010
   37MOL   H22034852   3.138   0.297   1.321  0.8249  3.1246  1.6729
   37MOL   H22134853   3.197   0.423   1.213  0.2242 -0.9396 -0.1437
   37MOL   H22234854   3.048   0.296   1.023  0.8655  0.8241  0.8260
   37MOL   H22334855   3.029   0.173   1.140 -2.3582  2.2606 -0.7561
   37MOL   H22434856   3.226   0.113   1.007  2.0399 -0.2643  0.0942
   37MOL   H22534857   3.268   0.150   1.164 -0.4919 -0.6577 -0.0512
   37MOL   H22634858   3.353   0.375   1.088  0.3358 -0.7783  0.9124
   37MOL   H22734859   3.296   0.337   0.924 -1.5252  1.1430  1.4940
   37MOL   H22834860   3.459   0.181   0.895 -0.9291 -0.6171 -0.2156
   37MOL   H22934861   3.496   0.156   1.064 -0.5914 -1.2270 -0.6183
   37MOL   H23034862   3.548   0.403   0.898 -0.3161  2.1662  1.4731
   37MOL   H23134863   3.578   0.406   1.084 -1.7066  0.3213 -0.1888
   37MOL   H23234864   3.711   0.199   0.909  0.4748 -0.3801  0.0566
   37MOL   H23334865   3.772   0.269   1.060 -0.2382  0.6118  1.0495
   37MOL   H23434866   4.101   0.471   0.853  0.6897  0.2214 -0.0361
   37MOL   H23534867   4.016   0.418   0.712  2.2545 -0.4130  0.9084
   37MOL   H23634868   3.970   0.673   0.864  0.0644 -0.5021 -0.2297
   37MOL   H23734869   3.844   0.601   0.767  0.5217 -3.9619  2.2053
   37MOL   H23834870   3.989   0.616   0.566  0.3518  1.3468 -0.8339
   37MOL   H23934871   4.127   0.642   0.666  0.6285  0.7548  0.0672
   37MOL   H24034872   4.083   0.845   0.546  0.7813 -1.1329 -0.2155
   37MOL   H24134873   4.053   0.876   0.713  0.4553 -0.0947  0.2595
   37MOL   O24234874   3.854   0.831   0.457 -0.0670 -0.4534  0.5666
   37MOL   C24334875   3.738   0.880   0.394  0.1654 -0.1786 -0.2062
   37MOL   C24434876   3.715   0.803   0.262  0.5247 -0.0849  0.3896
   37MOL   C24534877   3.580   0.837   0.201 -0.1232  1.2010  0.7816
   37MOL   C24634878   3.555   0.750   0.073  0.1994  0.1946  0.1596
   37MOL   C24734879   3.416   0.777   0.010 -0.1915 -0.5228  0.3910
   37MOL   C24834880   3.431   0.913   7.691  0.1840  0.2074 -0.1613
   37MOL   C24934881   3.295   0.946   7.629  0.4452 -0.0310 -0.6039
   37MOL   C25034882   3.275   1.091   7.578  0.0618  0.6864 -0.3319
   37MOL   C25134883   3.165   1.105   7.480 -0.1863  0.6089 -0.0331
   37MOL   C25234884   3.019   1.090   7.535 -0.6268 -0.0665  0.2642
   37MOL   O25334885   2.917   1.094   7.429  0.0253  0.2735  0.4069
   37MOL   C25434886   2.827   1.186   7.425  0.1736  0.8080  0.3923
   37MOL   O25534887   2.815   1.281   7.499 -0.1277  0.2216 -0.5378
   37MOL   C25634888   2.728   1.182   7.306  0.3325  0.1549  0.1276
   37MOL   C25734889   2.789   1.209   7.162  0.6318 -0.1467 -0.0235
   37MOL   C25834890   2.910   1.109   7.143 -1.1167  0.5215  0.3792
   37MOL   C25934891   2.952   1.123   6.988 -0.1565  1.0311  0.2304
   37MOL   C26034892   3.066   1.028   6.943  0.1843 -0.0873 -0.3979
   37MOL   O26134893   3.078   0.990   6.827 -0.3264 -0.6112 -0.1397
   37MOL   H26234894   3.659   0.849   0.462 -1.0657  1.3154 -0.9072
   37MOL   H26334895   3.734   0.989   0.383 -4.2007 -0.0552  1.4043
   37MOL   H26434896   3.719   0.695   0.277 -3.6614 -0.5177 -0.8626
   37MOL   H26534897   3.799   0.829   0.199  1.2359 -1.4577  0.7519
   37MOL   H26634898   3.502   0.814   0.273  1.7932 -1.8532  1.9733
   37MOL   H26734899   3.576   0.943   0.176  0.3958  0.5488 -2.3675
   37MOL   H26834900   3.564   0.647   0.106  1.3430  0.7493  1.6706
   37MOL   H26934901   3.616   0.753   7.748 -0.5230 -2.1559 -0.4497
   37MOL   H27034902   3.334   0.787   0.081 -0.8472  2.3652 -0.7115
   37MOL   H27134903   3.388   0.703   7.700  0.6497  1.3061 -1.8005
   37MOL   H27234904   3.502   0.898   7.610 -0.5081 -2.5058 -0.3134
   37MOL   H27334905   3.455   1.010   7.736  1.9918 -0.1031 -0.4283
   37MOL   H27434906   3.208   0.912   7.685 -1.1715  2.7887 -1.3189
   37MOL   H27534907   3.288   0.878   7.543  1.3774 -1.1400  0.1803
   37MOL   H27634908   3.365   1.135   7.536  1.0817 -0.1521  0.9483
   37MOL   H27734909   3.258   1.150   7.668  3.3063  0.5453  0.4301
   37MOL   H27834910   3.185   1.205   7.440 -0.6094  0.3397 -0.9401
   37MOL   H27934911   3.186   1.040   7.395  1.4354 -2.0427  2.3001
   37MOL   H28034912   3.011   1.167   7.612 -0.9303  0.3566 -0.1877
   37MOL   H28134913   3.013   0.997   7.592  0.1390  0.3635  1.0686
   37MOL   H28234914   2.681   1.083   7.309  1.1013 -0.1838  1.4876
   37MOL   H28334915   2.643   1.249   7.320  1.0021  1.0823 -0.1843
   37MOL   H28434916   2.817   1.314   7.160 -2.3257  0.6665 -1.6638
   37MOL   H28534917   2.717   1.206   7.081  2.6224  2.3647 -1.9613
   37MOL   H28634918   2.893   1.005   7.171  0.6496  0.1425  0.1051
   37MOL   H28734919   2.993   1.136   7.207 -0.8960  0.7211  0.0112
   37MOL   H28834920   2.970   1.229   6.971  1.4523  1.1028  2.1798
   37MOL   H28934921   2.866   1.103   6.924  0.6799 -0.0677 -0.5610
   37MOL   O29034922   3.149   0.999   7.042  0.0017 -0.2229 -0.1323
   37MOL   C29134923   3.273   0.926   7.014  0.3737  0.4376  0.0019
   37MOL   C29234924   3.331   0.869   7.145  0.0999 -0.7461  0.0591
   37MOL   C29334925   3.463   0.785   7.127 -0.0663 -0.1992  0.5083
   37MOL   C29434926   3.539   0.741   7.255 -0.2914 -0.8227 -0.0751
   37MOL   C29534927   3.476   0.628   7.336 -0.4503 -0.1870 -0.1639
   37MOL   C29634928   3.563   0.588   7.457 -0.7521 -0.3071  0.2973
   37MOL   C29734929   3.507   0.470   7.529 -0.2448 -0.3117 -0.6921
   37MOL   C29834930   3.610   0.408   7.633 -0.5019 -0.0635 -0.0166
   37MOL   C29934931   3.540   0.289   7.712  0.4279 -0.0466 -0.7299
   37MOL   C30034932   3.472   0.333   0.078 -0.1396  0.3074  0.5454
   37MOL   O30134933   3.370   0.422   0.052  0.3052 -0.3230  0.4171
   37MOL   C30234934   3.240   0.392   0.068 -0.1557 -0.3994 -0.3724
   37MOL   O30334935   3.192   0.288   0.109  0.1080 -0.4087  0.3852
   37MOL   C30434936   3.140   0.503   0.026 -0.0254 -0.1122 -0.0792
   37MOL   C30534937   3.114   0.481   7.647 -0.0283  0.2251  0.1339
   37MOL   C30634938   3.013   0.584   7.584  0.1130 -0.4487  0.7878
   37MOL   C30734939   2.984   0.552   7.441  0.8015  0.0421  0.1792
   37MOL   C30834940   2.932   0.666   7.352 -0.0972 -0.1547 -0.3277
   37MOL   O30934941   2.991   0.773   7.332  0.1029  0.2039  0.1509
   37MOL   H31034942   3.267   0.853   6.933  0.7414  0.7941 -0.3522
   37MOL   H31134943   3.327   1.017   6.988  1.3363  0.3385  1.5707
   37MOL   H31234944   3.259   0.797   7.184  1.6301 -2.2208  0.2236
   37MOL   H31334945   3.339   0.945   7.222 -2.0572 -0.8468  0.4235
   37MOL   H31434946   3.442   0.703   7.059 -0.0087  0.8430 -0.7666
   37MOL   H31534947   3.521   0.850   7.061 -0.5212 -0.9817 -0.6750
   37MOL   H31634948   3.550   0.832   7.314 -1.9632  0.4552 -1.6378
   37MOL   H31734949   3.642   0.723   7.227 -0.0727 -1.4198  1.0829
   37MOL   H31834950   3.458   0.537   7.279 -2.2602  0.0850 -0.0722
   37MOL   H31934951   3.382   0.671   7.370  0.3723  1.1812  0.4227
   37MOL   H32034952   3.580   0.671   7.525  0.7765  0.2522 -0.7473
   37MOL   H32134953   3.665   0.560   7.434 -0.3642  0.4445  1.0887
   37MOL   H32234954   3.464   0.401   7.456  0.3137  0.2434 -1.5588
   37MOL   H32334955   3.428   0.511   7.592  1.5302  1.3901  0.4894
   37MOL   H32434956   3.634   0.480   7.710  1.0880  0.3264 -0.8505
   37MOL   H32534957   3.712   0.385   7.600  0.3095  1.2978  1.5088
   37MOL   H32634958   3.485   0.225   7.643 -0.1628 -0.8597  0.4572
   37MOL   H32734959   3.613   0.216   7.747 -0.9525 -0.4432  1.4235
   37MOL   H32834960   3.547   0.366   0.150  1.0744  0.5387 -0.7864
   37MOL   H32934961   3.430   0.242   0.122  2.2398 -1.7894 -1.3009
   37MOL   H33034962   3.047   0.502   0.083  0.3964  0.6428  0.6287
   37MOL   H33134963   3.184   0.601   0.045 -1.5372  0.6684 -0.5452
   37MOL   H33234964   3.065   0.384   7.640 -0.1319  0.1313  2.0288
   37MOL   H33334965   3.216   0.488   7.611 -0.4740 -0.5459 -1.3353
   37MOL   H33434966   3.060   0.682   7.599 -2.3453  0.5634  2.1251
   37MOL   H33534967   2.916   0.584   7.634 -0.3513 -0.1133 -0.1123
   37MOL   H33634968   2.912   0.471   7.438 -1.9124  2.3261  0.9587
   37MOL   H33734969   3.075   0.512   7.397  0.7814  1.0529 -0.8301
   37MOL   O33834970   2.805   0.638   7.314 -0.1893 -0.9521  0.2683
   37MOL   C33934971   2.732   0.751   7.262 -0.1920  0.1662 -0.8035
   37MOL   C34034972   2.586   0.719   7.229  0.7157  0.0011  0.4973
   37MOL   C34134973   2.511   0.835   7.169 -0.5929 -0.6378 -0.3318
   37MOL   C34234974   2.557   0.864   7.023 -0.3407  0.5041  0.5688
   37MOL   C34334975   2.468   0.963   6.950 -0.0076  0.2525  0.1184
   37MOL   C34434976   2.499   0.978   6.797 -0.2767  0.1582  0.3517
   37MOL   C34534977   2.639   1.040   6.763  0.3984  0.3696 -0.2508
   37MOL   C34634978   2.662   1.107   6.624 -0.6346 -0.1828 -0.1791
   37MOL   C34734979   2.809   1.151   6.614  0.6238  0.4649  0.0885
   37MOL   C34834980   2.843   1.187   6.462 -0.1349 -0.1623  0.4887
   37MOL   O34934981   2.975   1.224   6.471  0.2291  0.1811  0.1292
   37MOL   C35034982   3.053   1.264   6.377 -0.2987 -0.1194 -0.3856
   37MOL   O35134983   3.014   1.296   6.265 -0.2429  0.3372  0.4364
   37MOL   C35234984   3.203   1.273   6.419 -0.8641  0.4645 -0.7083
   37MOL   C35334985   3.278   1.353   6.312  1.1163 -0.1945  0.4757
   37MOL   C35434986   3.422   1.385   6.351  0.0943 -0.5979  0.1106
   37MOL   C35534987   3.445   1.453   6.487 -0.0841  0.1694 -0.0616
   37MOL   C35634988   3.379   1.584   6.505  0.5534 -0.0955 -0.0539
   37MOL   O35734989   3.307   1.618   6.600 -0.3447 -0.0664 -0.0625
   37MOL   H35834990   2.735   0.814   7.351  0.5853 -1.0077  0.0059
   37MOL   H35934991   2.788   0.804   7.186 -0.0960 -0.2484 -1.0237
   37MOL   H36034992   2.533   0.702   7.323 -1.2214 -0.1277 -0.5903
   37MOL   H36134993   2.576   0.633   7.162 -0.7134 -0.5810  1.4394
   37MOL   H36234994   2.403   0.825   7.172 -0.8043  1.4901 -0.2116
   37MOL   H36334995   2.534   0.924   7.227 -1.3014  0.0621 -1.1171
   37MOL   H36434996   2.558   0.770   6.967  0.1358  0.1789  1.1184
   37MOL   H36534997   2.659   0.901   7.014 -0.7800  1.4778 -0.4181
   37MOL   H36634998   2.476   1.062   6.995  0.8567 -0.7914  2.3273
   37MOL   H36734999   2.364   0.933   6.969 -0.3635 -0.1894 -2.3691
   37MOL   H36835000   2.422   1.036   6.744 -2.0048 -0.4743  2.1010
   37MOL   H36935001   2.496   0.884   6.742  2.0025  1.3333 -1.8632
   37MOL   H37035002   2.717   0.965   6.779 -0.7597 -0.5271  1.3523
   37MOL   H37135003   2.655   1.111   6.844 -1.8603  0.2884  0.2977
   37MOL   H37235004   2.603   1.198   6.625 -0.9777 -0.4101  0.2874
   37MOL   H37335005   2.634   1.041   6.542  1.4852 -1.5021  0.0928
   37MOL   H37435006   2.838   1.243   6.664 -2.9221  2.0760 -0.6634
   37MOL   H37535007   2.877   1.069   6.638 -0.6481 -0.2428  1.3685
   37MOL   H37635008   2.777   1.264   6.422  0.6817  0.3821  0.1876
   37MOL   H37735009   2.832   1.099   6.400 -0.3482 -0.2975  0.7154
   37MOL   H37835010   3.203   1.333   6.510 -2.1969  0.9900 -1.0413
   37MOL   H37935011   3.243   1.177   6.450  0.7359  0.5860 -2.2890
   37MOL   H38035012   3.219   1.444   6.307  0.4114 -0.7637 -2.8562
   37MOL   H38135013   3.260   1.311   6.213 -1.4537  1.0620  0.3795
   37MOL   H38235014   3.470   1.444   6.273 -2.0356  0.1896 -0.6267
   37MOL   H38335015   3.476   1.291   6.340 -2.4865 -2.1311  0.1364
   37MOL   H38435016   3.551   1.471   6.505  0.4212 -1.0303 -1.6825
   37MOL   H38535017   3.407   1.399   6.574 -0.7687  0.2817 -0.2871
   37MOL   O38635018   3.401   1.666   6.398  0.4659  0.0038  0.4704
   37MOL   C38735019   3.340   1.795   6.396  0.4117  0.5373  0.0966
   37MOL   C38835020   3.361   1.873   6.261 -0.2086 -0.3156 -0.3937
   37MOL   C38935021   3.296   1.790   6.150 -0.3393 -0.2026  0.5403
   37MOL   C39035022   3.152   1.789   6.131 -0.1405 -0.6977  0.0716
   37MOL   C39135023   3.082   1.668   6.194  0.8356 -0.4499 -0.3819
   37MOL   C39235024   2.933   1.686   6.208 -0.6385  0.0885 -0.0335
   37MOL   C39335025   2.857   1.568   6.266  0.7611 -0.2763  0.5671
   37MOL   C39435026   2.712   1.606   6.292  0.1573  0.5707 -0.0450
   37MOL   C39535027   2.634   1.490   6.350 -0.0528 -0.4640 -0.0233
   37MOL   C39635028   2.490   1.533   6.396 -0.2697  0.3525 -0.0065
   37MOL   O39735029   2.426   1.422   6.460  0.0817  0.1105  0.0182
   37MOL   C39835030   2.291   1.433   6.484  0.3778  0.3156  0.2715
   37MOL   O39935031   2.221   1.536   6.457 -0.1863 -0.0825  0.0028
   37MOL   C40035032   2.238   1.310   6.545 -0.4304  0.3472 -0.8809
   37MOL   C40135033   2.215   1.186   6.451 -0.2996 -0.7852 -0.1976
   37MOL   C40235034   2.345   1.102   6.423  0.8911  0.5245  0.8424
   37MOL   C40335035   2.339   1.027   6.286  0.3661  0.4340 -0.8727
   37MOL   C40435036   2.218   0.928   6.249  0.3133  0.2504  0.1667
   37MOL   O40535037   2.123   0.899   6.321  0.2920 -0.0019 -0.5983
   37MOL   H40635038   3.237   1.786   6.431  0.6239 -0.7577  0.4048
   37MOL   H40735039   3.385   1.863   6.468 -2.3159  1.7381  0.7518
   37MOL   H40835040   3.466   1.894   6.244 -0.4536  1.2182 -0.1008
   37MOL   H40935041   3.323   1.975   6.266  2.4824  0.6559  1.0570
   37MOL   H41035042   3.336   1.839   6.061  1.3401 -1.7702  0.4025
   37MOL   H41135043   3.338   1.689   6.144 -0.8295 -0.3657 -0.1795
   37MOL   H41235044   3.124   1.793   6.025 -1.5661  1.8508  0.5239
   37MOL   H41335045   3.108   1.882   6.166  2.2343  0.3120  0.4776
   37MOL   H41435046   3.120   1.663   6.296  1.9811  2.7883 -0.5962
   37MOL   H41535047   3.104   1.572   6.147  2.1896  0.3390 -1.3962
   37MOL   H41635048   2.888   1.720   6.115  0.2316  3.2496  0.6377
   37MOL   H41735049   2.932   1.774   6.272  1.6049 -0.4951  0.8234
   37MOL   H41835050   2.910   1.540   6.357  0.8950  2.7732  1.4933
   37MOL   H41935051   2.862   1.479   6.203  0.3277 -0.8231  1.2974
   37MOL   H42035052   2.665   1.638   6.199 -1.3680  0.5396  0.6963
   37MOL   H42135053   2.714   1.695   6.355 -0.5731  0.1490  0.5856
   37MOL   H42235054   2.621   1.415   6.272  0.9477 -0.9854  0.2937
   37MOL   H42335055   2.688   1.448   6.436 -0.6195 -1.1153  0.0242
   37MOL   H42435056   2.430   1.558   6.308  1.2585  2.4077 -0.5034
   37MOL   H42535057   2.493   1.625   6.455 -0.1350 -0.6958  1.6389
   37MOL   H42635058   2.307   1.290   6.627  0.8003  1.8896 -1.5128
   37MOL   H42735059   2.144   1.335   6.594  1.8349  4.2647  1.8174
   37MOL   H42835060   2.177   1.216   6.353 -0.6377 -1.4070 -0.2656
   37MOL   H42935061   2.144   1.120   6.501  1.5226 -0.7006  2.5658
   37MOL   H43035062   2.381   1.028   6.495 -0.2244 -0.8574  0.0067
   37MOL   H43135063   2.429   1.169   6.410  0.0468  1.5715  0.7640
   37MOL   H43235064   2.424   0.959   6.284  0.9896  1.2360 -2.9959
   37MOL   H43335065   2.347   1.111   6.217 -3.0615 -0.1931 -2.0817
   37MOL   O43435066   2.227   0.892   6.121 -0.3223 -0.1424 -0.4996
   37MOL   C43535067   2.137   0.792   6.069  0.5957 -0.2566  0.2697
   37MOL   C43635068   2.132   0.808   5.921 -0.5353  0.3634 -0.2487
   37MOL   C43735069   2.063   0.689   5.861 -0.2469 -0.5425  0.6244
   37MOL   C43835070   2.082   0.665   5.706 -0.2486  0.6159  0.2647
   37MOL   C43935071   2.040   0.786   5.630 -0.1567 -0.4051  0.0270
   37MOL   C44035072   2.084   0.774   5.478  0.1440 -0.3854  0.4459
   37MOL   C44135073   2.009   0.882   5.399  0.3830  0.2323 -0.0942
   37MOL   C44235074   2.057   0.871   5.251 -0.6412  0.2167 -0.2829
   37MOL   C44335075   1.953   0.915   5.141  0.1139 -0.0551  0.2978
   37MOL   C44435076   2.002   0.875   4.998 -0.4047 -0.7431  0.6328
   37MOL   O44535077   1.910   0.933   4.905  0.0383  0.5515  0.4841
   37MOL   C44635078   1.908   1.062   4.879 -0.3457  0.7018  0.5378
   37MOL   O44735079   1.989   1.144   4.922  0.0836 -0.4767  0.5311
   37MOL   C44835080   1.804   1.108   4.778 -0.4169  0.9096 -0.7895
   37MOL   C44935081   1.669   1.096   4.834 -0.5010  0.5464  0.2191
   37MOL   C45035082   1.599   0.958   4.834 -0.0764  0.0560 -0.0310
   37MOL   C45135083   1.462   0.934   4.890  0.6736  0.3382 -0.4290
   37MOL   C45235084   1.463   0.947   5.046 -0.0792  0.0564  0.3989
   37MOL   O45335085   1.567   0.965   5.108 -0.3151 -0.4959 -0.0111
   37MOL   H45435086   2.168   0.693   6.102  1.3775  0.2792  1.1622
   37MOL   H45535087   2.044   0.801   6.126  0.5937 -1.2461  0.4399
   37MOL   H45635088   2.233   0.816   5.880 -0.5497 -1.2988 -0.6517
   37MOL   H45735089   2.085   0.900   5.887 -2.1443 -0.9068 -1.5077
   37MOL   H45835090   2.114   0.599   5.895  2.3284 -0.3672 -2.5079
   37MOL   H45935091   1.957   0.693   5.883 -0.9218  0.7466 -2.5939
   37MOL   H46035092   2.023   0.583   5.665 -2.5951  2.7425 -0.6657
   37MOL   H46135093   2.182   0.636   5.672 -0.4085 -1.3657  1.3837
   37MOL   H46235094   2.084   0.879   5.666  2.0796 -0.0448 -3.3146
   37MOL   H46335095   1.933   0.803   5.638 -0.2442  0.7418 -2.7856
   37MOL   H46435096   2.068   0.672   5.442 -1.6784 -0.1741  0.6061
   37MOL   H46535097   2.189   0.802   5.469 -0.1706  0.8362  0.5636
   37MOL   H46635098   2.018   0.981   5.443  1.8169 -0.3120  0.8713
   37MOL   H46735099   1.901   0.863   5.406  0.4656  0.0596  0.8820
   37MOL   H46835100   2.088   0.769   5.232 -2.1231 -0.1332 -0.8922
   37MOL   H46935101   2.154   0.918   5.238 -0.3555 -0.4793 -0.6723
   37MOL   H47035102   1.859   0.860   5.152 -1.0598  1.8938  0.1711
   37MOL   H47135103   1.922   1.019   5.147  2.0250  0.4579  1.7428
   37MOL   H47235104   1.987   0.769   4.978 -0.6356 -0.3534 -1.3436
   37MOL   H47335105   2.106   0.899   4.974 -0.5108 -0.7054  0.2026
   37MOL   H47435106   1.821   1.213   4.756 -3.1635  1.2042 -1.6723
   37MOL   H47535107   1.807   1.049   4.687 -1.7483  1.4689 -1.1989
   37MOL   H47635108   1.603   1.167   4.785  0.2583  0.4949 -0.9157
   37MOL   H47735109   1.670   1.131   4.937  1.1679 -1.0211  0.7645
   37MOL   H47835110   1.656   0.875   4.876 -0.5435 -1.4313 -2.2368
   37MOL   H47935111   1.583   0.934   4.729  2.2600 -1.2874 -0.1425
   37MOL   H48035112   1.434   0.832   4.865  0.2366  0.7096 -1.4669
   37MOL   H48135113   1.390   1.003   4.845  0.5111  0.3792 -0.1097
   37MOL   O48235114   1.342   0.929   5.109  0.6359 -0.2599  0.0678
   37MOL   C48335115   1.331   0.953   5.245 -0.7761 -0.1063  0.8081
   37MOL   C48435116   1.315   0.819   5.322  0.3746  0.2124  0.3397
   37MOL   C48535117   1.327   0.824   5.474 -0.5543 -0.0381  0.3236
   37MOL   C48635118   1.278   0.692   5.538 -0.7315 -0.1303 -0.8892
   37MOL   C48735119   1.327   0.658   5.679  0.0112  0.6937 -0.5443
   37MOL   C48835120   1.284   0.520   5.727  0.0054  0.1925  0.3274
   37MOL   C48935121   1.358   0.476   5.854  0.4786 -0.4081 -0.4223
   37MOL   C49035122   1.334   0.324   5.886 -0.0449  0.4758 -0.4173
   37MOL   C49135123   1.402   0.265   6.004  0.5826 -0.1245 -0.1756
   37MOL   C49235124   1.387   0.112   6.016  0.4450 -0.3599 -0.1939
   37MOL   O49335125   1.480   0.059   5.924 -0.2282  0.2822 -0.0216
   37MOL   C49435126   1.446   0.015   5.810 -0.6445 -0.2636  0.1498
   37MOL   O49535127   1.331   0.016   5.760 -0.0327 -0.4823 -0.7267
   37MOL   C49635128   1.562   7.717   5.724  0.4756 -0.0649  0.3850
   37MOL   C49735129   1.575   0.018   5.587  0.1325 -0.1652  0.5243
   37MOL   C49835130   1.609   0.168   5.585 -0.3802 -0.2693  0.0750
   37MOL   C49935131   1.751   0.202   5.639 -0.3902  0.3278  0.2887
   37MOL   C50035132   1.795   0.346   5.621 -0.2599 -0.2079 -0.3686
   37MOL   O50135133   1.875   0.399   5.701 -0.0493 -0.1362  0.1424
   37MOL   H50235134   1.412   1.016   5.281 -1.3064  1.0589  0.0054
   37MOL   H50335135   1.234   1.001   5.258 -1.8246 -1.1319 -2.6234
   37MOL   H50435136   1.392   0.749   5.291 -0.2148  0.0488 -0.7700
   37MOL   H50535137   1.214   0.784   5.301  0.9072 -2.3868  1.8797
   37MOL   H50635138   1.433   0.836   5.493 -0.3865  0.9567 -1.1152
   37MOL   H50735139   1.268   0.910   5.506 -0.6642  0.2020 -0.5048
   37MOL   H50835140   1.318   0.607   5.483  0.9716  0.4794 -0.6380
   37MOL   H50935141   1.169   0.686   5.529 -0.5780 -3.2745 -1.1437
   37MOL   H51035142   1.297   0.733   5.753 -1.4624 -0.1032 -0.3133
   37MOL   H51135143   1.436   0.660   5.674 -0.0499 -0.6886 -2.6875
   37MOL   H51235144   1.298   0.440   5.654  2.2324  0.3555  0.5278
   37MOL   H51335145   1.179   0.534   5.751 -0.0081  2.2549 -0.8210
   37MOL   H51435146   1.335   0.537   5.941 -0.0864 -0.5418 -0.4810
   37MOL   H51535147   1.462   0.498   5.829 -0.7348  3.7906 -2.1682
   37MOL   H51635148   1.366   0.273   5.795 -1.9001  1.6237 -1.7495
   37MOL   H51735149   1.229   0.298   5.899  0.5510 -0.5893  2.6534
   37MOL   H51835150   1.507   0.292   5.996  0.1986  1.0310 -1.5426
   37MOL   H51935151   1.373   0.315   6.096  0.6405 -0.6294  0.1192
   37MOL   H52035152   1.286   0.076   5.999  0.8579 -1.6616 -0.0064
   37MOL   H52135153   1.408   0.088   6.121  1.5013 -2.4133 -0.8294
   37MOL   H52235154   1.650   7.727   5.788  1.5893 -3.0179 -0.6111
   37MOL   H52335155   1.552   7.610   5.709  0.2593 -0.0629  0.5065
   37MOL   H52435156   1.491   0.001   5.520  0.3683 -0.3098  0.2650
   37MOL   H52535157   1.653   7.732   5.530 -0.3287 -0.5433  0.2265
   37MOL   H52635158   1.529   0.220   5.638 -0.0980  1.8112 -1.4527
   37MOL   H52735159   1.603   0.202   5.482 -1.3724  0.7758  0.4657
   37MOL   H52835160   1.834   0.147   5.595  0.8475  1.2966  1.3495
   37MOL   H52935161   1.767   0.181   5.745  0.5916 -2.5092 -0.3896
   37MOL   O53035162   1.759   0.398   5.504 -0.4808  0.0436 -0.6938
   37MOL   C53135163   1.763   0.540   5.494  0.0869 -0.0327 -0.9868
   37MOL   C53235164   1.679   0.579   5.371  0.4830  0.1362 -0.3528
   37MOL   C53335165   1.740   0.554   5.232  0.1094 -0.0395  0.1949
   37MOL   C53435166   1.650   0.574   5.114 -0.4425 -0.0172  0.3653
   37MOL   C53535167   1.711   0.541   4.975  0.1984 -0.4144 -0.5575
   37MOL   C53635168   1.611   0.568   4.856 -0.1776 -0.0727 -0.3511
   37MOL   C53735169   1.658   0.554   4.717 -0.2638 -0.0311  0.3335
   37MOL   C53835170   1.735   0.674   4.653 -0.1709 -0.7792 -0.8274
   37MOL   C53935171   1.837   0.626   4.554 -0.0529 -0.0135 -0.1700
   37MOL   C54035172   1.912   0.746   4.501  0.8632 -0.4052  0.0939
   37MOL   O54135173   1.812   0.812   4.424 -0.3005 -0.0936  0.0430
   37MOL   C54235174   1.826   0.951   4.419 -0.4633  0.7795  0.3656
   37MOL   O54335175   1.923   1.012   4.462 -0.0159 -0.0283  0.3470
   37MOL   C54435176   1.713   1.022   4.355 -0.4629 -0.2283 -0.2390
   37MOL   C54535177   1.584   0.984   4.424  0.3758 -0.0350 -0.1988
   37MOL   C54635178   1.459   1.046   4.365 -0.4531  0.2302  0.9632
   37MOL   C54735179   1.348   1.066   4.470  0.9874 -0.3802  0.3987
   37MOL   C54835180   1.259   0.953   4.498 -0.2084 -0.3113  0.3500
   37MOL   O54935181   1.246   0.905   4.610 -0.3170  0.2683 -0.1013
   37MOL   H55035182   1.701   0.589   5.569  0.8343  0.6492 -0.8010
   37MOL   H55135183   1.862   0.583   5.479 -0.8003  1.7214 -2.1204
   37MOL   H55235184   1.664   0.687   5.376  0.0229  0.2109 -2.5882
   37MOL   H55335185   1.588   0.519   5.382 -0.7203  2.1790  1.1535
   37MOL   H55435186   1.839   0.597   5.217 -0.1121  0.8164  1.1235
   37MOL   H55535187   1.753   0.447   5.221 -2.1866 -0.3227 -0.0400
   37MOL   H55635188   1.618   0.678   5.122  1.6907  0.7326 -0.5142
   37MOL   H55735189   1.568   0.503   5.113  0.0796 -0.6177 -0.2425
   37MOL   H55835190   1.745   0.438   4.968  0.3225 -0.7016  3.3166
   37MOL   H55935191   1.799   0.600   4.950  0.4509  0.6504  2.6082
   37MOL   H56035192   1.569   0.669   4.855  0.9110  0.3870 -1.0433
   37MOL   H56135193   1.524   0.506   4.875 -0.0630  0.5322  2.4257
   37MOL   H56235194   1.574   0.531   4.652  1.7370 -0.4238 -2.1835
   37MOL   H56335195   1.718   0.464   4.718  0.0023  0.1493  1.0312
   37MOL   H56435196   1.785   0.728   4.734  1.5978 -1.7853 -1.2425
   37MOL   H56535197   1.672   0.752   4.609  2.5681  0.9343 -1.7899
   37MOL   H56635198   1.909   0.559   4.600 -0.4195 -1.4225 -1.6128
   37MOL   H56735199   1.784   0.578   4.472 -2.1667  1.6987  0.1473
   37MOL   H56835200   1.989   0.710   4.432 -1.0201 -2.4684 -1.0105
   37MOL   H56935201   1.955   0.811   4.577  0.6258  1.4807 -1.3466
   37MOL   H57035202   1.725   1.131   4.351  0.0872 -0.3442 -2.0799
   37MOL   H57135203   1.713   0.993   4.250 -0.8173  1.7385 -0.8143
   37MOL   H57235204   1.578   1.011   4.529 -0.1269 -1.0980  0.0497
   37MOL   H57335205   1.564   0.878   4.411  0.7633 -0.0639 -0.5947
   37MOL   H57435206   1.424   0.997   4.274 -2.6298  2.5806  0.4560
   37MOL   H57535207   1.493   1.141   4.325  0.0447 -0.9927 -1.5963
   37MOL   H57635208   1.291   1.156   4.449  0.3366 -0.1665  2.9253
   37MOL   H57735209   1.403   1.096   4.559  2.1140 -2.2093  0.3487
   37MOL   O57835210   1.203   0.905   4.390  0.5265  0.6174  0.5882
   37MOL   C57935211   1.106   0.798   4.392  0.2717  0.3305 -0.5216
   37MOL   C58035212   1.161   0.679   4.314  1.1538  0.4163  0.4584
   37MOL   C58135213   1.297   0.625   4.381 -0.0878  0.2992  0.5879
   37MOL   C58235214   1.370   0.527   4.295 -0.6984  0.7524  0.1264
   37MOL   C58335215   1.498   0.457   4.362  0.5616  0.9160 -0.1606
   37MOL   C58435216   1.552   0.326   4.296  0.4677  0.2794  0.4196
   37MOL   C58535217   1.667   0.271   4.374 -0.2381  0.2477  0.0188
   37MOL   C58635218   1.743   0.151   4.323  0.0131 -0.4371  0.3969
   37MOL   C58735219   1.657   0.022   4.316  0.6526  0.0106 -0.4798
   37MOL   C58835220   1.742   7.659   4.281  0.0811  0.2045  0.0374
   37MOL   O58935221   1.788   7.674   4.145 -0.1970  0.0439 -0.0217
   37MOL   C59035222   1.913   7.711   4.124  0.3561 -0.4485  0.0677
   37MOL   O59135223   2.003   7.737   4.210  0.4280 -0.0430 -0.0965
   37MOL   C59235224   1.935   7.753   3.974  0.4861 -0.1744 -0.4168
   37MOL   C59335225   1.941   0.139   3.970 -0.1584 -0.6187 -1.2439
   37MOL   C59435226   1.991   0.206   3.840  0.4700  0.1851 -0.1264
   37MOL   C59535227   1.997   0.359   3.849  0.0592 -0.1971  0.8232
   37MOL   C59635228   2.023   0.419   3.712 -0.4426  0.1598 -0.2132
   37MOL   O59735229   1.945   0.505   3.671 -0.3000 -0.7362  0.4938
   37MOL   H59835230   1.067   0.784   4.493 -1.2954 -0.4588 -1.2190
   37MOL   H59935231   1.025   0.842   4.333 -0.2105 -0.8904 -0.7879
   37MOL   H60035232   1.190   0.706   4.213  0.0026 -1.3159 -0.3610
   37MOL   H60135233   1.083   0.605   4.295  1.0205  0.6813 -0.0354
   37MOL   H60235234   1.351   0.720   4.377  0.4593 -0.0473 -0.6253
   37MOL   H60335235   1.280   0.592   4.483  1.0606 -3.5685 -0.3900
   37MOL   H60435236   1.396   0.572   4.199  2.0891 -0.9656  0.0388
   37MOL   H60535237   1.300   0.451   4.260 -0.6848  0.8516 -0.1242
   37MOL   H60635238   1.476   0.427   4.465 -1.9535 -1.1330 -1.2421
   37MOL   H60735239   1.586   0.521   4.359  0.5886  0.8422 -0.9659
   37MOL   H60835240   1.596   0.348   4.199 -1.0281 -0.9198 -0.5557
   37MOL   H60935241   1.473   0.254   4.274  0.0812  1.1963 -1.2699
   37MOL   H61035242   1.629   0.252   4.474 -1.0240 -0.0324 -0.3227
   37MOL   H61135243   1.740   0.351   4.383  1.3935 -1.4451  2.2798
   37MOL   H61235244   1.836   0.136   4.377 -0.1658 -0.6912  0.6407
   37MOL   H61335245   1.776   0.176   4.222  0.3002  1.3779  0.9251
   37MOL   H61435246   1.631   0.006   4.421 -2.5579  1.5441 -0.9913
   37MOL   H61535247   1.575   0.034   4.245  2.3771  2.8333 -2.0787
   37MOL   H61635248   1.677   7.571   4.278 -1.3629  1.2214  0.7483
   37MOL   H61735249   1.822   7.641   4.352  0.3907  0.1519 -0.3232
   37MOL   H61835250   2.028   7.706   3.940  1.8680  2.2456 -0.0750
   37MOL   H61935251   1.849   7.731   3.911  0.2018  1.4254 -0.5831
   37MOL   H62035252   2.002   0.164   4.056 -3.8954  0.6812  1.1318
   37MOL   H62135253   1.841   0.176   3.995  1.2811  1.9200  0.9695
   37MOL   H62235254   1.916   0.186   3.764  0.2905  1.0307 -0.1793
   37MOL   H62335255   2.088   0.165   3.811  1.0713  2.3753 -1.3204
   37MOL   H62435256   2.072   0.402   3.915  0.1820  0.3685  0.3192
   37MOL   H62535257   1.897   0.382   3.885 -0.0668  0.9062 -0.1952
   37MOL   O62635258   2.127   0.369   3.648 -0.2291 -0.0301 -0.1471
   37MOL   C62735259   2.149   0.408   3.516 -0.6966 -0.2719  0.1549
   37MOL   C62835260   2.290   0.352   3.464  0.1946 -0.1718 -0.4004
   37MOL   C62935261   2.418   0.423   3.496  0.2319  0.2886 -0.0735
   37MOL   C63035262   2.545   0.369   3.423 -0.2298  0.1951  0.3850
   37MOL   C63135263   2.531   0.388   3.268 -0.0246 -0.5595 -0.3679
   37MOL   C63235264   2.665   0.407   3.203 -0.1318 -0.1733  0.2856
   37MOL   C63335265   2.730   0.539   3.236  0.3244 -0.2338  0.2401
   37MOL   C63435266   2.884   0.535   3.206  0.1197  0.2492 -0.4476
   37MOL   C63535267   2.953   0.678   3.221  0.3035 -0.4195 -0.4762
   37MOL   C63635268   3.106   0.678   3.242  0.0259  0.3392  0.4639
   37MOL   O63735269   3.169   0.606   3.134 -0.0197 -0.1746 -0.0146
   37MOL   C63835270   3.196   0.664   3.016 -0.4309  0.1825  0.3743
   37MOL   O63935271   3.151   0.776   2.977  0.5495  0.0834 -0.1383
   37MOL   C64035272   3.293   0.580   2.926  0.8779  0.3214  0.2855
   37MOL   C64135273   3.431   0.549   2.980  0.3072 -0.3343 -0.0591
   37MOL   C64235274   3.518   0.672   2.959 -0.6014  0.1260 -0.3556
   37MOL   C64335275   3.648   0.661   3.045 -0.4162  0.0241  0.6730
   37MOL   C64435276   3.757   0.751   2.992 -0.9088  0.1234 -0.1929
   37MOL   O64535277   3.854   0.710   2.924 -0.0731  0.2302 -0.3355
   37MOL   H64635278   2.071   0.364   3.455  0.1921 -1.3331 -0.2151
   37MOL   H64735279   2.147   0.517   3.507  0.7688 -0.3554 -1.5179
   37MOL   H64835280   2.279   0.353   3.355  0.8486  0.8017 -0.4676
   37MOL   H64935281   2.309   0.250   3.497  1.1161 -0.4443 -1.7329
   37MOL   H65035282   2.419   0.530   3.472  2.7382  0.5470  1.1029
   37MOL   H65135283   2.437   0.414   3.603  1.0645 -1.5914 -0.3666
   37MOL   H65235284   2.558   0.263   3.446 -2.8795 -0.1012  0.6627
   37MOL   H65335285   2.628   0.424   3.466  0.2309  0.1253 -0.3948
   37MOL   H65435286   2.451   0.452   3.232 -0.0710 -1.2131 -1.4442
   37MOL   H65535287   2.503   0.288   3.234  0.9154 -1.1556  0.5425
   37MOL   H65635288   2.666   0.404   3.094 -2.4134 -1.8540  0.2748
   37MOL   H65735289   2.732   0.329   3.241 -3.6554 -2.7207  1.4902
   37MOL   H65835290   2.719   0.556   3.343  1.0703  2.5308 -0.0563
   37MOL   H65935291   2.674   0.622   3.194 -1.1422 -0.5653  1.4825
   37MOL   H66035292   2.909   0.491   3.110 -2.1077 -0.4035 -0.7442
   37MOL   H66135293   2.919   0.463   3.281 -3.8485 -2.0066 -0.6187
   37MOL   H66235294   2.920   0.730   3.131 -1.0188  0.4518  0.5086
   37MOL   H66335295   2.912   0.723   3.311  0.3571 -0.6677 -0.3260
   37MOL   H66435296   3.139   0.631   3.334 -2.3501 -0.0138  1.1663
   37MOL   H66535297   3.147   0.779   3.250  2.7216 -0.6741 -0.0934
   37MOL   H66635298   3.246   0.482   2.932 -1.5699  1.3532 -1.5147
   37MOL   H66735299   3.294   0.614   2.823 -0.6414  1.6395  0.6757
   37MOL   H66835300   3.465   0.459   2.928  0.8614 -0.2631  0.1735
   37MOL   H66935301   3.430   0.528   3.086 -0.5351  1.2659  0.2654
   37MOL   H67035302   3.461   0.753   3.004 -0.8356 -0.2878  0.0990
   37MOL   H67135303   3.551   0.694   2.858  2.8931  1.3365  0.9655
   37MOL   H67235304   3.691   0.562   3.035  1.1962  0.8511 -0.8614
   37MOL   H67335305   3.617   0.686   3.147  0.5109  0.3981  0.8728
   37MOL   O67435306   3.739   0.880   3.036  0.0520  0.2317 -0.1536
   37MOL   C67535307   3.839   0.986   3.034 -0.1551 -0.6454  0.1524
   37MOL   C67635308   3.945   0.979   3.140  0.0177  0.2334 -0.2560
   37MOL   C67735309   4.046   0.865   3.122  0.2171  0.3664  0.1967
   37MOL   C67835310   4.178   0.897   3.194  0.0911  0.3813  0.4628
   37MOL   C67935311   4.167   0.871   3.344  0.3566 -0.8905  0.3316
   37MOL   C68035312   4.291   0.891   3.430 -0.1104 -0.0334 -0.2855
   37MOL   C68135313   4.260   0.884   3.586 -0.4487 -0.6561  0.2160
   37MOL   C68235314   4.253   0.739   3.639  0.3565 -0.2013  0.4042
   37MOL   C68335315   4.229   0.738   3.791 -0.2498  0.2416 -0.4121
   37MOL   C68435316   4.233   0.603   3.854  0.1223 -0.4017  0.4365
   37MOL   O68535317   4.258   0.605   3.995  0.3266  0.0509  0.1286
   37MOL   C68635318   4.169   0.618   4.090 -0.0752 -0.5039 -0.0442
   37MOL   O68735319   4.046   0.638   4.071 -0.2911 -0.5216 -0.1673
   37MOL   C68835320   4.223   0.599   4.235 -0.2658  0.3300  0.4866
   37MOL   C68935321   4.322   0.479   4.244 -0.3767  0.1782  1.0974
   37MOL   C69035322   4.346   0.431   4.389  0.1133  0.4812  0.1626
   37MOL   C69135323   4.415   0.538   4.481  1.2901 -0.3032 -0.1048
   37MOL   C69235324   4.400   0.496   4.627  1.4559 -0.4071  0.6664
   37MOL   O69335325   4.408   0.385   4.669 -0.3276  0.1063  0.5231
   37MOL   H69435326   3.873   0.994   2.931  1.0318 -0.0902  0.5848
   37MOL   H69535327   3.784   1.074   3.068 -1.6988 -2.0308  1.3254
   37MOL   H69635328   3.891   0.955   3.231 -1.6158 -0.8273 -1.4627
   37MOL   H69735329   3.995   1.076   3.147 -3.3138  2.0796 -0.5742
   37MOL   H69835330   4.001   0.771   3.152 -0.3052 -0.3812 -2.7166
   37MOL   H69935331   4.062   0.859   3.014 -1.4291 -0.7502  0.0037
   37MOL   H70035332   4.217   0.995   3.167 -2.1506  0.9536 -0.7601
   37MOL   H70135333   4.255   0.826   3.162  0.5530  0.4390  1.4196
   37MOL   H70235334   4.130   0.769   3.357 -0.2294 -1.2147 -3.2853
   37MOL   H70335335   4.089   0.929   3.392  1.1167 -0.2383  0.7894
   37MOL   H70435336   4.329   0.990   3.404 -0.0920  0.2880  0.9353
   37MOL   H70535337   4.382   0.840   3.398  1.8611  2.0293  1.7512
   37MOL   H70635338   4.168   0.941   3.602  0.2434  0.8966 -1.1656
   37MOL   H70735339   4.341   0.937   3.636 -1.5901  1.7818 -0.4590
   37MOL   H70835340   4.350   0.689   3.629 -0.0759 -0.5662 -2.3368
   37MOL   H70935341   4.173   0.688   3.586  0.6336 -2.2535  1.9009
   37MOL   H71035342   4.310   0.798   3.834  0.5780 -0.5910 -0.7865
   37MOL   H71135343   4.136   0.785   3.820 -0.6124 -0.7457  0.0104
   37MOL   H71235344   4.321   0.547   3.821  0.8128  1.4729 -1.0335
   37MOL   H71335345   4.152   0.536   3.826 -0.1773  0.4286 -0.7768
   37MOL   H71435346   4.280   0.687   4.264  0.2981  0.5984 -1.3635
   37MOL   H71535347   4.140   0.583   4.304  1.4220  0.0925  2.4617
   37MOL   H71635348   4.416   0.517   4.203 -0.8237  0.8781  0.7142
   37MOL   H71735349   4.294   0.400   4.175 -2.0858  2.7826 -1.2846
   37MOL   H71835350   4.409   0.343   4.377 -0.9744 -0.5166  1.6093
   37MOL   H71935351   4.255   0.385   4.428  0.6030  0.6873  1.5966
   37MOL   H72035352   4.374   0.638   4.467 -2.1083 -1.6254 -0.0720
   37MOL   H72135353   4.524   0.528   4.473  1.3221  1.1532 -1.7799
   37MOL   O72235354   4.379   0.610   4.703  0.5472 -0.2271  0.0353
   37MOL   C72335355   4.385   0.598   4.850 -0.2736 -0.3000  0.3414
   37MOL   C72435356   4.372   0.738   4.910  0.0500 -0.0901 -0.6360
   37MOL   C72535357   4.351   0.729   5.060 -0.7829 -0.1298  0.4280
   37MOL   C72635358   4.352   0.859   5.133 -0.0063 -0.1069 -0.7024
   37MOL   C72735359   4.360   0.840   5.283 -0.4706 -0.2643  0.0892
   37MOL   C72835360   4.377   0.967   5.365 -0.5620 -0.0482  1.0456
   37MOL   C72935361   4.374   0.944   5.519  0.2984  0.3881 -0.2897
   37MOL   C73035362   4.423   1.062   5.601  0.5956  0.4326 -0.2658
   37MOL   C73135363   4.401   1.048   5.748 -0.2159 -0.3539  0.0059
   37MOL   C73235364   4.445   1.170   5.831  0.5568  0.2096 -0.4516
   37MOL   O73335365   4.577   1.213   5.809 -0.7022 -0.1445  0.0694
   37MOL   C73435366   4.611   1.334   5.862 -0.1333  0.0302 -0.6927
   37MOL   O73535367   4.533   1.415   5.914 -0.3085  0.4327  0.2442
   37MOL   C73635368   4.760   1.374   5.849  0.3184  0.3707 -0.1410
   37MOL   C73735369   4.809   1.397   5.706 -0.1675  0.2993  0.6101
   37MOL   C73835370   4.958   1.405   5.709 -1.2029  0.2592  0.3712
   37MOL   C73935371   5.023   1.429   5.569  0.0899 -0.0230  0.1712
   37MOL   C74035372   4.991   1.321   5.463  0.6646  0.6931 -0.4002
   37MOL   O74135373   4.968   1.204   5.492 -0.4987  0.0726 -0.1286
   37MOL   H74235374   4.308   0.529   4.885 -1.3278  0.5564 -0.2327
   37MOL   H74335375   4.481   0.557   4.880  0.9304  1.7242 -0.6131
   37MOL   H74435376   4.282   0.788   4.872  0.4865  1.2562  0.0639
   37MOL   H74535377   4.460   0.799   4.888 -0.3533  0.0102 -2.0377
   37MOL   H74635378   4.256   0.682   5.086 -0.6510  0.1555  1.4245
   37MOL   H74735379   4.424   0.654   5.090 -0.5452  0.4050  1.1950
   37MOL   H74835380   4.256   0.907   5.116 -0.9444 -1.8945 -0.5330
   37MOL   H74935381   4.428   0.922   5.087 -0.4346  1.7483  1.0652
   37MOL   H75035382   4.444   0.775   5.309 -0.2571 -0.0662 -0.1056
   37MOL   H75135383   4.273   0.795   5.330 -0.6969  1.0288  0.9488
   37MOL   H75235384   4.294   1.031   5.335 -1.1399 -1.2080  0.1205
   37MOL   H75335385   4.473   1.011   5.341 -1.5779  3.2179  2.6224
   37MOL   H75435386   4.440   0.860   5.539  0.7444  0.6799 -0.5344
   37MOL   H75535387   4.272   0.920   5.550 -0.5543 -1.4415 -4.1551
   37MOL   H75635388   4.376   1.152   5.562  2.0803  2.2534  1.9874
   37MOL   H75735389   4.526   1.092   5.583  0.5695 -0.6182 -2.3397
   37MOL   H75835390   4.295   1.035   5.767 -0.2267  2.4702  2.2147
   37MOL   H75935391   4.447   0.960   5.793 -0.3790 -0.5606 -0.2346
   37MOL   H76035392   4.447   1.129   5.932  0.8179  0.2582 -0.4355
   37MOL   H76135393   4.368   1.246   5.818  2.6328  2.5278  0.4472
   37MOL   H76235394   4.768   1.467   5.905 -1.9261 -0.2993  1.3656
   37MOL   H76335395   4.815   1.303   5.911 -2.0504 -0.9259  0.5464
   37MOL   H76435396   4.755   1.489   5.680  0.7894  0.4952 -0.7551
   37MOL   H76535397   4.778   1.319   5.637 -0.0936 -0.1939  1.1363
   37MOL   H76635398   4.994   1.307   5.742 -1.1265 -0.9001 -3.0120
   37MOL   H76735399   4.980   1.481   5.784 -1.3018 -0.0990  0.7678
   37MOL   H76835400   5.130   1.428   5.587  0.4180 -2.7907 -1.6873
   37MOL   H76935401   5.005   1.526   5.523  2.8473  0.7938  0.7142
   37MOL   O77035402   4.983   1.376   5.342  0.1605 -0.3839  0.1686
   37MOL   C77135403   4.908   1.306   5.246  0.1188  0.1633  0.2654
   37MOL   C77235404   4.804   1.392   5.192 -0.1026 -0.1612  1.0131
   37MOL   C77335405   4.691   1.434   5.280 -0.0378 -0.6140 -0.1860
   37MOL   C77435406   4.602   1.318   5.325 -0.2539 -0.1698  0.8786
   37MOL   C77535407   4.459   1.355   5.360  0.2374 -0.0735  0.3248
   37MOL   C77635408   4.451   1.427   5.498  0.4535 -0.3582 -0.3568
   37MOL   C77735409   4.300   1.458   5.531 -0.0515  0.4172  0.1887
   37MOL   C77835410   4.284   1.517   5.673  0.0704 -0.9448  0.6442
   37MOL   C77935411   4.136   1.534   5.710 -0.6804  0.7780 -0.3106
   37MOL   C78035412   4.109   1.618   5.835  0.0577 -0.4996 -0.8064
   37MOL   O78135413   4.153   1.566   5.954  0.3151  0.2512  0.2873
   37MOL   C78235414   4.073   1.480   6.029 -0.3087 -0.2360  0.4704
   37MOL   O78335415   3.955   1.445   5.998  0.6495 -0.5230 -0.5466
   37MOL   C78435416   4.153   1.425   6.139 -0.3188  0.7161 -0.5258
   37MOL   C78535417   4.154   1.270   6.142  0.7228  0.0078  0.2258
   37MOL   C78635418   4.241   1.212   6.257  0.2594  0.1327 -0.2096
   37MOL   C78735419   4.240   1.057   6.293  0.4407  0.2049  0.4492
   37MOL   C78835420   4.199   0.951   6.188  0.0591  0.7426  0.4027
   37MOL   O78935421   4.285   0.908   6.106  0.1127 -0.2001  0.0013
   37MOL   H79035422   4.966   1.268   5.161  0.3478  0.0279  0.4805
   37MOL   H79135423   4.855   1.216   5.279 -1.3948 -0.2011 -2.9880
   37MOL   H79235424   4.768   1.350   5.098 -0.2235  3.8314 -0.8275
   37MOL   H79335425   4.849   1.483   5.154 -0.7776 -0.4103 -0.4191
   37MOL   H79435426   4.739   1.489   5.361  2.2316 -1.2855 -1.0468
   37MOL   H79535427   4.631   1.506   5.225  0.4701 -0.9342 -1.1800
   37MOL   H79635428   4.660   1.274   5.407  1.9981  2.3071  0.6742
   37MOL   H79735429   4.601   1.243   5.246 -0.5391  0.5135  0.2448
   37MOL   H79835430   4.392   1.270   5.348 -1.1708  1.3177 -2.3845
   37MOL   H79935431   4.426   1.419   5.277 -2.4745  0.5126  1.7858
   37MOL   H80035432   4.507   1.519   5.512 -0.5768  0.6287 -2.4054
   37MOL   H80135433   4.492   1.358   5.571 -0.1254 -0.6162 -0.2684
   37MOL   H80235434   4.242   1.367   5.522  1.0768 -0.1114 -2.1563
   37MOL   H80335435   4.257   1.532   5.464  0.0969  0.2652 -0.0714
   37MOL   H80435436   4.336   1.612   5.681  2.7618 -2.2308 -1.0622
   37MOL   H80535437   4.318   1.443   5.746 -0.1608 -1.0036  0.6934
   37MOL   H80635438   4.074   1.578   5.633 -1.2937 -0.2633 -0.4194
   37MOL   H80735439   4.088   1.438   5.730  3.7400 -1.2747  1.1087
   37MOL   H80835440   4.002   1.636   5.849  0.3390  1.2035 -0.6733
   37MOL   H80935441   4.144   1.721   5.831  0.9144 -0.8219 -1.8408
   37MOL   H81035442   4.253   1.467   6.127  0.6771 -1.2692  0.5502
   37MOL   H81135443   4.109   1.470   6.228  0.7700 -1.1344  0.9985
   37MOL   H81235444   4.196   1.233   6.048  0.2625 -0.6884  0.2910
   37MOL   H81335445   4.048   1.242   6.145  0.1044  2.2911  0.0900
   37MOL   H81435446   4.210   1.260   6.350  0.0936 -1.5795  0.6338
   37MOL   H81535447   4.344   1.244   6.243  0.2012  1.9462  2.8824
   37MOL   H81635448   4.183   1.026   6.381  2.2958  0.8035  1.8752
   37MOL   H81735449   4.343   1.041   6.324 -0.4697 -3.6924  1.7011
   37MOL   O81835450   4.076   0.917   6.195 -0.3974  0.2246  0.4074
   37MOL   C81935451   4.022   0.825   6.108 -0.7807 -0.6495 -0.0300
   37MOL   C82035452   3.880   0.779   6.141  0.7002  0.0010 -0.6064
   37MOL   C82135453   3.835   0.658   6.054 -0.3779 -0.5322 -0.6663
   37MOL   C82235454   3.701   0.595   6.081  0.1579  0.7346  0.0025
   37MOL   C82335455   3.698   0.513   6.206  0.1565 -0.5232  0.2540
   37MOL   C82435456   3.564   0.442   6.237 -0.0339 -0.2385 -0.5678
   37MOL   C82535457   3.568   0.333   6.347 -0.1968 -0.0816 -0.0027
   37MOL   C82635458   3.443   0.309   6.416 -0.8648 -0.3300  1.3743
   37MOL   C82735459   3.465   0.209   6.525 -0.0671  0.9404 -0.2295
   37MOL   C82835460   3.348   0.185   6.620 -0.1095  0.7575  0.2539
   37MOL   O82935461   3.225   0.155   6.547 -0.1070 -0.1427 -0.2098
   37MOL   C83035462   3.128   0.242   6.539 -0.1244 -0.4526  0.2525
   37MOL   O83135463   3.134   0.359   6.580  0.1581 -0.3830  0.5145
   37MOL   C83235464   3.003   0.188   6.464 -0.5067  0.2695 -0.4978
   37MOL   C83335465   2.871   0.256   6.492  0.2971  0.2926  1.4004
   37MOL   C83435466   2.800   0.208   6.611 -0.3362  0.0581 -0.2527
   37MOL   C83535467   2.699   0.309   6.672  0.8962  0.3670 -0.4687
   37MOL   C83635468   2.753   0.437   6.731 -0.3410 -0.1358  0.7604
   37MOL   O83735469   2.733   0.543   6.674 -0.1859 -0.0130  0.3626
   37MOL   H83835470   4.014   0.879   6.013 -1.3267  1.4015  1.1517
   37MOL   H83935471   4.084   0.736   6.094  0.1499  0.2083 -1.5682
   37MOL   H84035472   3.814   0.865   6.127 -2.9159 -1.8792  3.7552
   37MOL   H84135473   3.872   0.766   6.249 -1.4543 -0.2382 -0.7782
   37MOL   H84235474   3.828   0.691   5.950 -1.6178 -3.3630 -1.5390
   37MOL   H84335475   3.918   0.589   6.039  0.6338  0.9615 -2.1398
   37MOL   H84435476   3.681   0.533   5.994 -0.7413  0.5462  0.3389
   37MOL   H84535477   3.618   0.664   6.089 -0.1497  0.3289  0.3499
   37MOL   H84635478   3.724   0.575   6.292 -0.7678 -0.8688  0.7894
   37MOL   H84735479   3.780   0.441   6.204 -0.2231 -0.9372 -0.3399
   37MOL   H84835480   3.537   0.392   6.144 -1.0469 -2.2639  0.7624
   37MOL   H84935481   3.486   0.516   6.256  1.1874  1.8262 -3.1932
   37MOL   H85035482   3.643   0.357   6.422  0.1695 -1.2617  0.0187
   37MOL   H85135483   3.601   0.236   6.310  0.7289  0.0253  0.5457
   37MOL   H85235484   3.367   0.277   6.345  0.8453  1.8566 -1.5343
   37MOL   H85335485   3.406   0.403   6.458 -3.9538 -0.9414  0.1518
   37MOL   H85435486   3.498   0.116   6.480 -2.5912  1.6607 -3.7543
   37MOL   H85535487   3.549   0.246   6.585  0.2867  1.7371 -1.1902
   37MOL   H85635488   3.340   0.278   6.677  3.7596  1.4964 -0.2113
   37MOL   H85735489   3.374   0.104   6.689  0.6204  1.5295  0.9094
   37MOL   H85835490   3.020   0.212   6.359 -1.1312  0.1525 -0.6268
   37MOL   H85935491   2.985   0.082   6.478  0.3804  0.2821  0.9082
   37MOL   H86035492   2.801   0.235   6.410  1.7046  1.5911 -0.1594
   37MOL   H86135493   2.867   0.363   6.476 -2.6435  0.1686  0.9818
   37MOL   H86235494   2.875   0.177   6.684  0.3756  0.1246 -0.9438
   37MOL   H86335495   2.739   0.127   6.570 -0.6655  0.5388 -0.7196
   37MOL   H86435496   2.647   0.264   6.757 -0.0002  0.1514 -1.1197
   37MOL   H86535497   2.632   0.337   6.591  1.3837  0.9987 -0.6634
   37MOL   O86635498   2.826   0.424   6.849  0.0432  0.1268 -0.7987
   37MOL   C86735499   2.883   0.545   6.903  0.9791  0.1593  0.0006
   37MOL   C86835500   3.002   0.517   6.999  0.4355  0.3671 -0.4583
   37MOL   C86935501   3.104   0.418   6.948 -0.0089 -0.3175 -0.5583
   37MOL   C87035502   3.227   0.392   7.044  0.1947 -0.1566 -0.0820
   37MOL   C87135503   3.295   0.258   7.004 -0.6285  0.3327  0.4767
   37MOL   C87235504   3.431   0.223   7.070 -0.0882 -0.0009  0.0920
   37MOL   C87335505   3.548   0.324   7.056  1.1513  0.1438 -0.5101
   37MOL   C87435506   3.679   0.270   7.117 -0.7288  0.1581 -0.6464
   37MOL   C87535507   3.677   0.226   7.259  0.8412 -0.6505  0.0648
   37MOL   C87635508   3.807   0.211   7.327  0.6494  0.0593  0.2404
   37MOL   O87735509   3.787   0.166   7.462  0.3269 -0.2301  0.2473
   37MOL   C87835510   3.889   0.113   7.534 -0.1818  0.1447  0.0068
   37MOL   O87935511   4.006   0.104   7.501 -0.0394  0.0603  0.4158
   37MOL   C88035512   3.847   0.086   7.679  0.2504 -0.3545  0.1140
   37MOL   C88135513   3.935   7.750   7.759  0.0760 -0.7178  0.2809
   37MOL   C88235514   3.920   7.602   7.714  0.3324  0.4080  0.0664
   37MOL   C88335515   3.945   7.494   0.054  0.0277 -0.3977  0.4032
   37MOL   C88435516   3.841   7.476   0.157  0.0383  0.4419 -0.1644
   37MOL   O88535517   3.871   7.458   0.276  0.1829 -0.6204 -0.2270
   37MOL   H88635518   2.913   0.599   6.813 -0.0003  0.9151  0.1266
   37MOL   H88735519   2.791   0.587   6.942 -2.0519 -2.9970 -3.3895
   37MOL   H88835520   2.962   0.467   7.087  3.8514 -1.0459  0.3550
   37MOL   H88935521   3.045   0.613   7.029  1.0042 -0.5413  1.6690
   37MOL   H89035522   3.060   0.320   6.927  0.1304 -0.3014 -0.9390
   37MOL   H89135523   3.132   0.461   6.852 -0.3238  3.2019  0.8562
   37MOL   H89235524   3.192   0.390   7.147  0.6746 -1.8159  0.0625
   37MOL   H89335525   3.303   0.471   7.040 -1.3398  1.2979 -1.1845
   37MOL   H89435526   3.309   0.253   6.896 -0.5983  3.0725  0.3094
   37MOL   H89535527   3.225   0.179   7.028 -1.0566 -0.0385 -1.8911
   37MOL   H89635528   3.470   0.126   7.040 -2.4715 -0.9886  0.0257
   37MOL   H89735529   3.405   0.203   7.174 -1.7619 -2.0503 -0.6677
   37MOL   H89835530   3.535   0.418   7.109 -1.2004 -0.4821  0.0911
   37MOL   H89935531   3.572   0.334   6.950  1.3510 -1.3819 -0.6185
   37MOL   H90035532   3.761   0.341   7.104 -0.7522  0.5244  1.1041
   37MOL   H90135533   3.721   0.186   7.062  1.8992  0.4640  0.8156
   37MOL   H90235534   3.622   0.294   7.324 -2.3943  0.2391 -3.4782
   37MOL   H90335535   3.630   0.128   7.269 -1.3318  0.5452  2.0424
   37MOL   H90435536   3.863   0.305   7.332 -2.0387  1.8264 -1.3194
   37MOL   H90535537   3.869   0.137   7.275  0.6002 -0.6361  1.1648
   37MOL   H90635538   3.852   0.177   7.737  3.2420 -0.9146  0.8155
   37MOL   H90735539   3.742   0.055   7.686  0.5143 -0.8898  2.0483
   37MOL   H90835540   3.911   7.750   0.100 -2.4798  0.3956 -0.2708
   37MOL   H90935541   4.037   0.024   7.764  0.3404 -1.4039  0.2119
   37MOL   H91035542   3.991   7.601   7.632  0.4482  2.0484  0.1376
   37MOL   H91135543   3.819   7.580   7.680  0.4598  0.0759 -0.1031
   37MOL   H91235544   4.037   7.527   0.102  0.2940 -0.1499 -0.2673
   37MOL   H91335545   3.964   7.397   0.007  0.9906  0.8202 -1.7809
   37MOL   O91435546   3.714   7.491   0.117 -0.1011 -0.1223 -0.5456
   37MOL   C91535547   3.605   7.451   0.191 -0.2944 -0.1230 -0.5142
   37MOL   C91635548   3.580   7.552   0.318  0.1269 -0.5033 -0.3952
   37MOL   C91735549   3.547   7.702   0.286  0.3709 -0.6737 -0.1748
   37MOL   C91835550   3.511   0.017   0.407 -0.0195 -0.1608  0.1301
   37MOL   C91935551   3.459   0.160   0.381  0.0528  0.5001 -0.5463
   37MOL   C92035552   3.450   0.251   0.506  0.6808 -0.0034 -0.6530
   37MOL   C92135553   3.443   0.402   0.468 -0.4577  0.2889 -0.0024
   37MOL   C92235554   3.448   0.501   0.593  0.4500  0.2963  0.3033
   37MOL   C92335555   3.461   0.647   0.556 -0.4844  0.7743 -0.4437
   37MOL   C92435556   3.475   0.745   0.670  0.6286 -0.0078  0.1368
   37MOL   O92535557   3.357   0.740   0.743  0.7938 -0.2195  0.1509
   37MOL   C92635558   3.362   0.710   0.876  0.5195  0.0793  0.1940
   37MOL   O92735559   3.466   0.698   0.941  0.2042 -0.5202  0.8203
   37MOL   C92835560   3.230   0.672   0.945  0.1074  0.2712 -0.3862
   37MOL   C92935561   3.139   0.800   0.956 -0.6645  0.0363 -0.1813
   37MOL   C93035562   3.014   0.773   1.041 -0.4767 -0.4104 -0.0244
   37MOL   C93135563   2.899   0.887   1.025 -0.3694 -0.1400 -0.3347
   37MOL   C93235564   2.948   1.026   1.054 -0.7540 -0.8786 -0.0237
   37MOL   O93335565   2.887   1.123   1.012  0.1145 -0.9575  0.0997
   37MOL   H93435566   3.517   7.450   0.126 -1.0639  1.5374  0.4698
   37MOL   H93535567   3.616   7.351   0.232  0.6716 -1.1308 -3.1497
   37MOL   H93635568   3.663   7.547   0.389  1.2871  0.9396 -1.6132
   37MOL   H93735569   3.501   7.496   0.368  1.2607 -1.2493  0.6145
   37MOL   H93835570   3.628   7.759   0.239  1.5294 -1.5463  0.7390
   37MOL   H93935571   3.464   7.704   0.215  0.3628  0.4420 -0.1377
   37MOL   H94035572   3.598   0.025   0.472  1.8040  0.4602 -2.3059
   37MOL   H94135573   3.442   7.726   0.470  2.0528 -1.8388  0.9646
   37MOL   H94235574   3.365   0.167   0.325 -0.9759 -0.9622  0.9594
   37MOL   H94335575   3.532   0.206   0.315  1.1677  1.7286  1.5119
   37MOL   H94435576   3.541   0.244   0.566 -1.3891 -0.3782  2.6142
   37MOL   H94535577   3.365   0.226   0.570  0.2386  2.6559 -0.1328
   37MOL   H94635578   3.361   0.418   0.397 -0.4884  0.0903 -0.0119
   37MOL   H94735579   3.531   0.424   0.409  0.3141  0.9049  1.3688
   37MOL   H94835580   3.536   0.482   0.654  0.6135  1.7080  0.5341
   37MOL   H94935581   3.351   0.499   0.644  0.5274 -0.6486  0.4170
   37MOL   H95035582   3.541   0.653   0.483 -0.7425  0.4503 -0.7545
   37MOL   H95135583   3.371   0.666   0.497 -0.4896 -0.5809 -0.8763
   37MOL   H95235584   3.494   0.849   0.643  0.9291  0.0866  0.7022
   37MOL   H95335585   3.570   0.723   0.719  0.5468 -2.5681 -0.7982
   37MOL   H95435586   3.183   0.597   0.882 -0.6207  0.8742 -0.5716
   37MOL   H95535587   3.256   0.616   1.035 -2.4510 -1.4916 -0.7232
   37MOL   H95635588   3.103   0.830   0.857 -2.0904 -0.3917  0.1950
   37MOL   H95735589   3.188   0.880   1.012  0.0452 -1.3092  1.1451
   37MOL   H95835590   3.047   0.760   1.144 -0.3921 -0.2487 -0.0311
   37MOL   H95935591   2.982   0.670   1.022  1.9710 -0.6645 -3.1118
   37MOL   H96035592   2.833   0.853   1.104  1.5520 -0.9390  0.9519
   37MOL   H96135593   2.853   0.885   0.926  0.2245 -0.8508 -0.5990
   37MOL   H96235594   3.033   1.036   1.122 -1.7208  0.7994  0.9649
   38MOL     O135595   5.346   4.690   4.417 -0.3126  0.4208  0.0747
   38MOL     C235596   5.363   4.673   4.275  0.1824 -0.4270 -0.3045
   38MOL     C335597   5.282   4.551   4.238  0.5772 -0.2174  0.3453
   38MOL     C435598   5.295   4.528   4.079 -0.5341 -0.6518  0.0825
   38MOL     C535599   5.239   4.387   4.046 -0.0224 -0.9651 -0.1085
   38MOL     C635600   5.211   4.358   3.894 -0.0953 -0.3497 -0.0622
   38MOL     C735601   5.128   4.232   3.871 -0.1142  0.3749 -0.2932
   38MOL     C835602   5.108   4.208   3.720 -0.1632  0.4524 -0.7186
   38MOL     C935603   5.238   4.161   3.645 -0.7003 -0.2971 -0.1651
   38MOL    C1035604   5.227   4.161   3.496  0.5553 -0.0126 -0.0506
   38MOL    C1135605   5.348   4.106   3.420  0.4781  0.3801 -1.0011
   38MOL    O1235606   5.446   4.205   3.427  0.3833 -0.5073 -0.2074
   38MOL    C1335607   5.567   4.184   3.484  0.1621 -0.0101  0.3984
   38MOL    O1435608   5.598   4.081   3.536 -0.2929  0.1699 -0.1478
   38MOL    C1535609   5.665   4.301   3.464 -0.6441  0.0020  0.5342
   38MOL    C1635610   5.728   4.294   3.323 -0.1912  0.0724 -0.5895
   38MOL    C1735611   5.626   4.283   3.203  0.1676  0.4943 -0.3650
   38MOL    C1835612   5.707   4.278   3.074 -0.3200 -0.6450  0.2880
   38MOL    C1935613   5.742   4.406   3.000  0.2104  0.2941 -0.2104
   38MOL    O2035614   5.854   4.461   3.024  0.0611 -0.5326  0.2889
   38MOL    H2135615   5.336   4.762   4.217 -1.3410 -0.7687 -0.1338
   38MOL    H2235616   5.468   4.658   4.253  0.4462  2.4021 -1.1747
   38MOL    H2335617   5.177   4.563   4.261 -0.5504 -1.8787 -3.4434
   38MOL    H2435618   5.325   4.470   4.297  2.8589 -0.3135 -1.3438
   38MOL    H2535619   5.232   4.600   4.027  0.4075 -0.3567 -0.6590
   38MOL    H2635620   5.397   4.543   4.043 -0.5005 -0.1262  0.4008
   38MOL    H2735621   5.143   4.377   4.095 -0.1652 -2.3227 -0.6311
   38MOL    H2835622   5.304   4.309   4.087  1.4759 -0.8075 -2.0877
   38MOL    H2935623   5.309   4.351   3.845  0.8259  0.8932  1.5290
   38MOL    H3035624   5.149   4.431   3.841  0.3275 -0.4493 -0.7004
   38MOL    H3135625   5.033   4.240   3.923 -0.7860  2.9591 -1.8008
   38MOL    H3235626   5.179   4.146   3.915  0.3740  0.0467 -1.4752
   38MOL    H3335627   5.077   4.307   3.688 -3.1516  0.4533  1.9194
   38MOL    H3435628   5.020   4.147   3.699  0.8309 -0.6586 -1.6800
   38MOL    H3535629   5.257   4.057   3.672  1.6728  0.2631  0.3718
   38MOL    H3635630   5.322   4.229   3.657 -0.7234  0.0755 -1.9395
   38MOL    H3735631   5.139   4.107   3.460  1.1646 -0.6826 -0.5498
   38MOL    H3835632   5.206   4.264   3.466 -1.1730 -0.9539 -2.2798
   38MOL    H3935633   5.321   4.084   3.317 -3.6181  0.4576 -0.0612
   38MOL    H4035634   5.374   4.018   3.478 -0.6628 -0.0803 -1.1809
   38MOL    H4135635   5.617   4.395   3.492  0.8020  0.9945 -0.2539
   38MOL    H4235636   5.743   4.281   3.537 -0.1711  2.1972  0.6601
   38MOL    H4335637   5.805   4.218   3.310  1.1186  1.6748 -2.4580
   38MOL    H4435638   5.786   4.386   3.310  1.5533 -0.9329 -0.0427
   38MOL    H4535639   5.551   4.362   3.212 -0.1324  0.1548  0.1752
   38MOL    H4635640   5.593   4.180   3.214 -1.5286  1.0226 -0.3944
   38MOL    H4735641   5.652   4.217   3.002 -3.2886  1.7943  0.3385
   38MOL    H4835642   5.798   4.221   3.092  1.2962  1.2683 -1.5552
   38MOL    H4935643   5.368   4.779   4.440 -4.6701  1.5572  0.3332
   38MOL    O5035644   5.655   4.436   2.908  0.2827  0.1037 -0.2210
   38MOL    C5135645   5.672   4.548   2.820 -0.3274 -0.0516  0.0362
   38MOL    C5235646   5.546   4.572   2.735 -0.0725  0.3876 -0.5950
   38MOL    C5335647   5.421   4.601   2.822  0.1513  0.2919  0.3865
   38MOL    C5435648   5.287   4.573   2.755 -0.3236 -0.3366  0.3346
   38MOL    C5535649   5.168   4.587   2.846 -0.6182  0.0510  0.7260
   38MOL    C5635650   5.028   4.548   2.803  0.5139 -0.4588  0.0528
   38MOL    C5735651   4.916   4.564   2.904  0.4513 -0.0285  0.4183
   38MOL    C5835652   4.927   4.470   3.025  0.0804 -0.2184  0.0197
   38MOL    C5935653   4.795   4.490   3.112  0.2709  0.4263  0.3663
   38MOL    C6035654   4.779   4.366   3.208  0.9158  0.0314  0.1745
   38MOL    O6135655   4.653   4.367   3.271  0.5557  0.2914 -0.4475
   38MOL    C6235656   4.545   4.321   3.204 -0.0178 -0.8685 -0.5384
   38MOL    O6335657   4.552   4.261   3.097 -0.6587 -0.4643  0.0923
   38MOL    C6435658   4.415   4.321   3.292  0.3044  0.4756 -0.0819
   38MOL    C6535659   4.411   4.440   3.390  0.1804  0.1089  0.1352
   38MOL    C6635660   4.408   4.575   3.307 -1.4515  0.0435 -1.0758
   38MOL    C6735661   4.369   4.695   3.405 -1.0903  0.3101 -0.5383
   38MOL    C6835662   4.496   4.756   3.469  0.9320 -0.1850 -0.6167
   38MOL    O6935663   4.606   4.749   3.422  0.6625  0.5082 -0.4509
   38MOL    H7035664   5.694   4.640   2.876  1.2261 -0.2002 -0.2938
   38MOL    H7135665   5.765   4.540   2.763  0.4791  2.1962  0.9439
   38MOL    H7235666   5.533   4.482   2.675  1.2678  1.0438 -1.8810
   38MOL    H7335667   5.579   4.649   2.666 -0.4075 -0.4052 -1.6553
   38MOL    H7435668   5.435   4.529   2.903 -0.5210 -0.3985 -0.1022
   38MOL    H7535669   5.424   4.703   2.861  0.4665 -0.2476  1.8021
   38MOL    H7635670   5.281   4.470   2.722 -2.0771 -1.0935  2.8014
   38MOL    H7735671   5.277   4.652   2.680  0.5061  1.1144  1.7158
   38MOL    H7835672   5.176   4.680   2.903 -3.5150  1.1932 -0.5807
   38MOL    H7935673   5.184   4.516   2.928  0.9719  0.9763  1.2430
   38MOL    H8035674   5.031   4.440   2.785 -0.4735 -0.4315 -0.3247
   38MOL    H8135675   4.993   4.592   2.710  0.3448  0.4026  0.5271
   38MOL    H8235676   4.830   4.526   2.850  1.4626 -0.8242 -0.6709
   38MOL    H8335677   4.897   4.666   2.939  1.2894  0.5949 -0.9077
   38MOL    H8435678   5.008   4.497   3.093  0.0805 -2.7647  1.1166
   38MOL    H8535679   4.949   4.367   2.994  1.6348 -0.0604  0.5506
   38MOL    H8635680   4.807   4.582   3.169 -0.2413  0.8401 -0.1880
   38MOL    H8735681   4.708   4.494   3.046 -0.6493  0.2611  1.5363
   38MOL    H8835682   4.858   4.360   3.283  1.6468  0.7330 -0.5183
   38MOL    H8935683   4.794   4.278   3.147 -0.0842 -1.4871  2.0823
   38MOL    H9035684   4.325   4.321   3.229  0.9575 -0.9753 -1.0505
   38MOL    H9135685   4.423   4.232   3.354  2.0139  0.7655  0.1255
   38MOL    H9235686   4.492   4.436   3.463  1.5993 -0.4484 -1.4395
   38MOL    H9335687   4.332   4.436   3.466 -0.7323 -0.3060 -0.8156
   38MOL    H9435688   4.343   4.563   3.220 -0.7147  2.1178 -1.9417
   38MOL    H9535689   4.504   4.594   3.259 -0.5458 -0.0993  0.6442
   38MOL    H9635690   4.310   4.652   3.486 -0.1645 -2.1217 -1.1231
   38MOL    H9735691   4.322   4.777   3.351 -1.8187  1.3445  1.5988
   38MOL    O9835692   4.459   4.822   3.583 -0.2230  0.7078  0.0380
   38MOL    C9935693   4.548   4.866   3.683 -0.6837 -0.0550 -0.3624
   38MOL   C10035694   4.636   4.987   3.630 -0.3966 -0.4512  0.2818
   38MOL   C10135695   4.701   5.077   3.738  1.1179  0.0474  0.4865
   38MOL   C10235696   4.823   5.150   3.704  0.3733 -0.8779  0.3007
   38MOL   C10335697   4.803   5.280   3.622  0.3238  0.7234  0.7535
   38MOL   C10435698   4.931   5.323   3.549 -0.3102  0.2014  1.0201
   38MOL   C10535699   5.032   5.396   3.640 -1.0718  0.0261  0.3892
   38MOL   C10635700   5.156   5.463   3.571 -0.1402 -0.1102 -0.6395
   38MOL   C10735701   5.123   5.585   3.491 -0.2886 -0.5708  0.6763
   38MOL   C10835702   5.245   5.669   3.459  0.3453 -0.0739  0.0817
   38MOL   O10935703   5.302   5.707   3.586  0.0271  0.1723 -0.0056
   38MOL   C11035704   5.409   5.792   3.582 -0.0794  0.5110  0.3004
   38MOL   O11135705   5.459   5.834   3.479 -0.9596 -0.6285  0.1095
   38MOL   C11235706   5.474   5.822   3.720  0.0661  0.1197 -0.3956
   38MOL   C11335707   5.609   5.748   3.749 -0.2941 -0.3842  0.2392
   38MOL   C11435708   5.598   5.610   3.813 -0.3245 -0.0167 -0.0887
   38MOL   C11535709   5.728   5.564   3.875 -0.6686 -0.1370  0.0733
   38MOL   C11635710   5.711   5.431   3.951 -0.3908 -0.1094 -0.5516
   38MOL   O11735711   5.617   5.407   4.020  0.2041 -0.2306 -0.4966
   38MOL   H11835712   4.489   4.899   3.768 -1.7298 -3.1572  0.1613
   38MOL   H11935713   4.604   4.775   3.705  1.9596  1.4916 -0.4159
   38MOL   H12035714   4.578   5.053   3.565 -2.1008 -2.1901 -0.0052
   38MOL   H12135715   4.717   4.945   3.570 -1.4763 -1.8424 -0.2372
   38MOL   H12235716   4.633   5.152   3.777  0.1922 -0.1698 -0.6616
   38MOL   H12335717   4.721   5.008   3.820  1.0541 -1.1144 -0.4593
   38MOL   H12435718   4.895   5.081   3.661 -1.8448 -1.5022 -2.6663
   38MOL   H12535719   4.879   5.185   3.790  2.8702 -1.6379 -0.9689
   38MOL   H12635720   4.758   5.355   3.686 -1.5750  1.5121 -1.4498
   38MOL   H12735721   4.725   5.261   3.548  0.3366  0.4255  0.8139
   38MOL   H12835722   4.902   5.398   3.476 -3.6949 -1.3427  0.6424
   38MOL   H12935723   4.969   5.242   3.488 -2.0281  0.2253 -0.1334
   38MOL   H13035724   5.079   5.332   3.715 -2.6558 -0.5918  0.8540
   38MOL   H13135725   4.980   5.461   3.709  0.9767  0.3420  1.6879
   38MOL   H13235726   5.200   5.396   3.497  2.6486  3.1081 -2.0433
   38MOL   H13335727   5.229   5.488   3.648  2.2959 -2.0291 -2.2495
   38MOL   H13435728   5.069   5.543   3.406 -1.7143  1.2915  0.6288
   38MOL   H13535729   5.043   5.648   3.531 -0.0557  0.3783 -0.3102
   38MOL   H13635730   5.201   5.756   3.412  0.3302  0.6189  1.3613
   38MOL   H13735731   5.310   5.610   3.394  1.4711  0.3017  0.8453
   38MOL   H13835732   5.477   5.931   3.723 -2.4337  0.2991 -2.4497
   38MOL   H13935733   5.406   5.799   3.802  0.3051  1.8523  0.3267
   38MOL   H14035734   5.668   5.806   3.821  0.3173 -3.4494  2.2940
   38MOL   H14135735   5.669   5.740   3.659  1.2930 -0.9741  1.3333
   38MOL   H14235736   5.553   5.543   3.740  1.1573  0.3983 -1.4203
   38MOL   H14335737   5.527   5.601   3.895 -2.7167 -0.3406 -2.1294
   38MOL   H14435738   5.787   5.635   3.933 -2.3707  1.7538 -0.4486
   38MOL   H14535739   5.794   5.548   3.789  1.4786  2.2985  1.1960
   38MOL   O14635740   5.817   5.349   3.936 -0.1024  0.0971 -0.5282
   38MOL   C14735741   5.811   5.218   3.989 -0.3741 -0.3121 -0.4106
   38MOL   C14835742   5.949   5.141   3.976  0.1868 -0.6231 -0.3805
   38MOL   C14935743   5.947   5.057   3.852 -0.3244  0.0257 -0.1766
   38MOL   C15035744   6.057   4.953   3.841 -0.2290  0.3018 -0.0740
   38MOL   C15135745   6.093   4.916   3.692 -0.4311 -0.6667  0.1852
   38MOL   C15235746   6.187   4.790   3.683  0.6852  0.4781  0.1595
   38MOL   C15335747   6.263   4.773   3.550  0.1054 -0.7927  0.4117
   38MOL   C15435748   6.393   4.861   3.556  0.0979 -0.1784 -0.3169
   38MOL   C15535749   6.464   4.858   3.425 -0.4420 -0.6300  0.1758
   38MOL   C15635750   6.617   4.873   3.427 -0.1593  0.1026 -0.6083
   38MOL   O15735751   6.656   4.858   3.294 -0.2283 -0.2152  0.2364
   38MOL   C15835752   6.753   4.934   3.243 -0.0249 -0.2974  0.4552
   38MOL   O15935753   6.819   5.015   3.305 -0.3620  0.0417  0.2788
   38MOL   C16035754   6.789   4.893   3.097 -0.1619  0.4791  0.4779
   38MOL   C16135755   6.877   4.765   3.095 -0.2652  0.3374 -0.0399
   38MOL   C16235756   7.025   4.774   3.134 -0.1153 -0.4045  0.3768
   38MOL   C16335757   7.083   4.635   3.164 -0.2385  0.0143 -0.7790
   38MOL   C16435758   7.238   4.642   3.192  0.1289  0.0401 -0.6907
   38MOL   O16535759   7.312   4.720   3.142 -0.1706 -0.2245 -0.0696
   38MOL   H16635760   5.790   5.230   4.095  1.1136 -0.6288 -0.0575
   38MOL   H16735761   5.736   5.158   3.939 -0.5729 -2.0219  1.8506
   38MOL   H16835762   5.955   5.079   4.066  0.7041 -2.0180 -1.3434
   38MOL   H16935763   6.032   5.211   3.987  2.5122 -3.2320 -0.6362
   38MOL   H17035764   5.858   4.996   3.843  0.5608 -1.1953 -0.7723
   38MOL   H17135765   5.941   5.125   3.767 -1.7662 -0.2497 -0.3069
   38MOL   H17235766   6.024   4.863   3.892 -4.9229  2.0582  0.2640
   38MOL   H17335767   6.148   4.990   3.889 -0.6635  2.0455 -0.5427
   38MOL   H17435768   6.149   5.002   3.655 -0.1379  0.8201  3.8648
   38MOL   H17535769   6.005   4.906   3.628 -1.0619 -0.8765  1.0758
   38MOL   H17635770   6.114   4.714   3.710  0.3433  0.8489  0.2829
   38MOL   H17735771   6.257   4.788   3.767 -0.2522 -2.3472  0.9334
   38MOL   H17835772   6.196   4.816   3.475  2.6279 -0.1428 -1.5292
   38MOL   H17935773   6.299   4.676   3.518  0.3798 -0.5556 -0.0100
   38MOL   H18035774   6.452   4.814   3.635 -1.2261 -1.6232 -0.1546
   38MOL   H18135775   6.382   4.964   3.590  3.0766  0.6310 -1.6214
   38MOL   H18235776   6.452   4.760   3.378 -0.6803 -0.5907  0.1594
   38MOL   H18335777   6.426   4.942   3.366  0.4172  0.0528  0.5741
   38MOL   H18435778   6.665   4.793   3.483 -0.3482 -0.0056 -0.6035
   38MOL   H18535779   6.637   4.971   3.470 -2.4582  0.0810  0.6282
   38MOL   H18635780   6.691   4.882   3.051  0.2964  1.4798 -0.7810
   38MOL   H18735781   6.843   4.980   3.058  0.6334 -0.2132  0.0294
   38MOL   H18835782   6.879   4.721   2.995 -2.0213 -0.1341  0.1174
   38MOL   H18935783   6.833   4.681   3.150 -0.8979 -1.7138 -3.5453
   38MOL   H19035784   7.043   4.853   3.207  0.1131 -0.8410  0.7971
   38MOL   H19135785   7.076   4.819   3.049  0.7230  0.0464  1.1059
   38MOL   H19235786   7.073   4.557   3.089  0.4580  0.4611 -1.3419
   38MOL   H19335787   7.019   4.604   3.246 -2.6611  0.7344 -2.3025
   38MOL   O19435788   7.265   4.556   3.289  0.0669 -0.1028  0.1498
   38MOL   C19535789   7.389   4.515   3.325 -0.3093 -0.1631  0.8551
   38MOL   C19635790   7.439   4.603   3.444  0.4105  0.5377 -0.3363
   38MOL   C19735791   7.567   4.545   3.509 -0.6204 -0.1582 -0.2103
   38MOL   C19835792   7.579   4.607   3.647 -0.7268 -0.3135  0.2053
   38MOL   C19935793   7.697   4.557   3.736  0.6317  0.2973  0.5203
   38MOL   C20035794   7.693   4.625   3.879 -0.4058 -0.4921  0.2856
   38MOL   C20135795   7.605   4.557   3.998 -1.0311  0.4918 -0.3105
   38MOL   C20235796   7.565   4.648   4.111  0.0328 -0.4071 -0.1726
   38MOL   C20335797   7.487   4.580   4.217  0.0399 -0.3739 -0.1370
   38MOL   C20435798   7.420   4.669   4.325 -0.1762  0.3644  0.2557
   38MOL   O20535799   7.519   4.714   4.414  0.1116 -0.1796 -0.0312
   38MOL   C20635800   7.559   4.645   4.517  0.8815  0.2767  0.0594
   38MOL   O20735801   7.510   4.537   4.556 -0.4226 -0.0646 -0.5881
   38MOL   C20835802   7.680   4.715   4.589  0.4212 -0.0726 -0.2008
   38MOL   C20935803   0.006   4.628   4.684 -0.0320  0.0103  0.7323
   38MOL   C21035804   0.151   4.647   4.665 -0.2012 -0.0046 -0.3004
   38MOL   C21135805   0.242   4.601   4.775 -0.6409  0.4858 -0.3057
   38MOL   C21235806   0.285   4.444   4.781  0.0300 -0.1991 -0.0453
   38MOL   O21335807   0.386   4.411   4.718  0.2440 -0.4149  0.1002
   38MOL   H21435808   7.380   4.408   3.348  0.0717 -0.2587  0.5630
   38MOL   H21535809   7.463   4.521   3.245  0.9564 -3.0019  1.7451
   38MOL   H21635810   7.359   4.585   3.515  1.2684 -1.4257  0.1672
   38MOL   H21735811   7.444   4.710   3.425 -0.2263  0.8044  0.9633
   38MOL   H21835812   7.567   4.436   3.515 -2.1688 -0.1567  0.1704
   38MOL   H21935813   7.652   4.578   3.450 -0.4285  0.7415  0.5453
   38MOL   H22035814   7.496   4.589   3.716 -0.5796 -2.0994 -0.0696
   38MOL   H22135815   7.577   4.716   3.644 -1.4303 -0.2323  2.3154
   38MOL   H22235816   0.028   4.586   3.692  0.0948  0.8055 -0.3323
   38MOL   H22335817   7.695   4.450   3.754  1.1548  0.4804  1.7232
   38MOL   H22435818   7.658   4.728   3.872  0.2194 -0.3214 -0.3566
   38MOL   H22535819   0.031   4.637   3.914 -0.5556 -1.9325  1.2934
   38MOL   H22635820   7.648   4.460   4.025 -0.8239 -0.0990 -2.6885
   38MOL   H22735821   7.512   4.527   3.951 -1.6749  0.5860  0.8772
   38MOL   H22835822   7.499   4.725   4.072 -1.3512 -2.4760 -2.0435
   38MOL   H22935823   7.658   4.686   4.153  0.9466 -0.8246 -1.7776
   38MOL   H23035824   7.410   4.529   4.159  0.8632  0.1538 -1.7372
   38MOL   H23135825   7.550   4.501   4.258  2.9783  0.5474 -2.6406
   38MOL   H23235826   7.340   4.611   4.373 -0.2638 -1.2414 -1.7662
   38MOL   H23335827   7.375   4.754   4.272  2.0231  0.7162 -1.0929
   38MOL   H23435828   7.752   4.742   4.511  0.9412 -0.0406  0.2843
   38MOL   H23535829   7.649   4.801   4.649 -2.0528 -0.7702 -0.4188
   38MOL   H23635830   7.759   4.522   4.664 -1.3017  0.5080 -1.2694
   38MOL   H23735831   7.744   4.650   4.788  0.0219 -0.9613  0.9576
   38MOL   H23835832   0.172   4.751   4.640 -2.3693  1.1006  2.3541
   38MOL   H23935833   0.180   4.589   4.577 -2.5247 -2.4054  0.4390
   38MOL   H24035834   0.199   4.624   4.872  1.4288  1.5493  0.3839
   38MOL   H24135835   0.336   4.655   4.774  0.0869 -0.7570 -0.2727
   38MOL   O24235836   0.204   4.376   4.865  0.0641 -0.0739 -0.4636
   38MOL   C24335837   0.232   4.239   4.888  0.4678 -0.0997 -0.2958
   38MOL   C24435838   0.106   4.172   4.949  0.2256  0.3905 -0.2272
   38MOL   C24535839   0.105   4.157   5.107  0.1690 -0.1316  0.3224
   38MOL   C24635840   7.755   4.070   5.160  1.5749 -0.7899 -0.3273
   38MOL   C24735841   7.743   4.081   5.315  0.5865 -0.0257 -0.3275
   38MOL   C24835842   7.644   3.981   5.377 -0.1880 -0.0461 -0.4396
   38MOL   C24935843   7.670   3.961   5.531 -0.3869  0.1607  0.2280
   38MOL   C25035844   7.606   4.071   5.612 -0.1645 -0.2484 -0.1088
   38MOL   C25135845   7.646   4.063   5.762  0.0176 -0.3015  0.3669
   38MOL   C25235846   7.549   4.142   5.848  0.5820 -0.2333  0.5183
   38MOL   O25335847   7.561   4.282   5.826  0.2497 -0.1142 -0.6612
   38MOL   C25435848   7.473   4.371   5.866 -0.0795  0.1245  0.0227
   38MOL   O25535849   7.375   4.345   5.938 -0.4084  0.0334  0.3411
   38MOL   C25635850   7.482   4.510   5.807  0.0290  0.4515 -0.1051
   38MOL   C25735851   7.533   4.521   5.664 -0.4308  0.4116  0.0286
   38MOL   C25835852   7.454   4.449   5.552  0.2628 -0.1627 -0.3695
   38MOL   C25935853   7.315   4.507   5.506 -0.3631 -0.1466 -0.0804
   38MOL   C26035854   7.235   4.404   5.427  0.5329  0.4318 -0.0694
   38MOL   O26135855   7.271   4.285   5.427  0.3362  0.0119 -0.2133
   38MOL   H26235856   0.257   4.189   4.794 -3.2453 -0.4646 -1.1522
   38MOL   H26335857   0.315   4.232   4.958 -1.4431 -0.0558  1.9952
   38MOL   H26435858   0.095   4.075   4.901  0.2057  0.2800  0.0003
   38MOL   H26535859   0.026   4.236   4.912 -0.2428 -0.1757 -0.1893
   38MOL   H26635860   0.197   4.113   5.145 -0.3853 -1.1285  0.5121
   38MOL   H26735861   0.091   4.255   5.153 -1.1898 -0.2609  0.1940
   38MOL   H26835862   0.016   3.966   5.146 -2.2198 -2.0940  1.6757
   38MOL   H26935863   7.657   4.098   5.122  0.9062  0.5864  2.2682
   38MOL   H27035864   7.721   4.184   5.340  0.5822 -0.4596  1.5302
   38MOL   H27135865   0.077   4.048   5.348  3.1080  3.6120 -3.7266
   38MOL   H27235866   7.658   3.882   5.333  0.1137  0.9271 -2.5845
   38MOL   H27335867   7.545   4.013   5.345 -1.0338 -0.8410  1.2959
   38MOL   H27435868   0.012   3.957   5.552 -0.8795 -3.0164  2.5381
   38MOL   H27535869   7.647   3.862   5.572 -0.6109  1.5175  3.5296
   38MOL   H27635870   7.498   4.076   5.599 -0.0747  0.4157 -0.6195
   38MOL   H27735871   7.637   4.172   5.582  0.7612 -0.6689 -0.5861
   38MOL   H27835872   7.649   3.957   5.784 -0.1033 -0.8309 -2.0294
   38MOL   H27935873   7.746   4.106   5.769 -0.1315 -0.0392  1.0385
   38MOL   H28035874   7.566   4.123   5.954  1.1316 -0.9239  0.3133
   38MOL   H28135875   7.451   4.095   5.835  0.1924  0.5471  0.6059
   38MOL   H28235876   7.382   4.552   5.816 -0.5212 -0.2820 -2.4038
   38MOL   H28335877   7.557   4.556   5.872  1.0245 -0.1455 -0.8058
   38MOL   H28435878   7.637   4.493   5.649  0.5190  2.5165  2.2854
   38MOL   H28535879   7.532   4.627   5.635 -0.5397  0.2095 -0.7262
   38MOL   H28635880   7.437   4.347   5.586 -1.6796 -0.2042 -1.4181
   38MOL   H28735881   7.510   4.439   5.459  2.2934  2.8689  0.4512
   38MOL   H28835882   7.313   4.608   5.467 -0.7400 -0.4629 -0.8936
   38MOL   H28935883   7.262   4.525   5.600  1.4419 -1.1933  1.1635
   38MOL   O29035884   7.128   4.455   5.365  0.1797  0.1235 -0.2520
   38MOL   C29135885   7.045   4.371   5.289  0.5537  0.6644  0.4132
   38MOL   C29235886   6.944   4.450   5.199 -0.2586 -1.0595  0.6315
   38MOL   C29335887   6.819   4.498   5.277  0.6709  0.2317  0.0337
   38MOL   C29435888   6.707   4.567   5.203 -0.3942  0.5860 -0.2251
   38MOL   C29535889   6.606   4.633   5.292  0.0173  0.7142 -0.4281
   38MOL   C29635890   6.490   4.697   5.211 -0.3793  0.2074 -0.5478
   38MOL   C29735891   6.416   4.797   5.296 -0.4486 -0.0156  0.3541
   38MOL   C29835892   6.303   4.880   5.222 -0.4234  0.0935 -0.2629
   38MOL   C29935893   6.363   4.949   5.097  1.0433  0.0554  0.4163
   38MOL   C30035894   6.260   5.036   5.016  0.5734  0.7360 -0.1697
   38MOL   O30135895   6.327   5.092   4.905  0.5261  0.4285  0.2663
   38MOL   C30235896   6.309   5.043   4.782  0.3421 -0.1864 -0.3418
   38MOL   O30335897   6.247   4.940   4.756 -0.9078  0.0176 -0.1555
   38MOL   C30435898   6.360   5.135   4.666  0.0497  0.0471  0.0751
   38MOL   C30535899   6.505   5.134   4.640 -0.4366  0.4111 -0.3056
   38MOL   C30635900   6.568   5.002   4.600 -0.5612 -0.2498  0.3423
   38MOL   C30735901   6.719   5.021   4.571  0.0924 -0.3273 -0.7970
   38MOL   C30835902   6.800   5.000   4.695  0.1259  0.0660 -0.5488
   38MOL   O30935903   6.913   4.955   4.702  0.2497  0.1501 -0.4415
   38MOL   H31035904   7.111   4.309   5.229  3.4051  1.1140  2.9612
   38MOL   H31135905   6.990   4.309   5.360  1.8056 -0.3669  0.4884
   38MOL   H31235906   6.907   4.385   5.120 -0.6300  0.4559 -0.4618
   38MOL   H31335907   6.998   4.529   5.148  0.5652 -0.6711  2.0730
   38MOL   H31435908   6.775   4.417   5.336  1.6522 -0.1046  0.3119
   38MOL   H31535909   6.852   4.566   5.356  1.8447 -1.5299  1.0879
   38MOL   H31635910   6.661   4.488   5.145 -0.1154  1.7581 -2.0717
   38MOL   H31735911   6.739   4.630   5.120  0.6108 -0.2728 -0.5006
   38MOL   H31835912   6.649   4.711   5.355 -0.2111 -0.3457  1.0710
   38MOL   H31935913   6.561   4.560   5.360 -2.3371  0.7145 -1.9145
   38MOL   H32035914   6.412   4.630   5.176  0.1007 -0.2969 -0.6455
   38MOL   H32135915   6.530   4.746   5.122  0.9621 -2.6588 -1.5567
   38MOL   H32235916   6.489   4.870   5.332  1.0485 -0.9840 -0.6709
   38MOL   H32335917   6.385   4.745   5.386 -4.1938 -1.4330 -1.6709
   38MOL   H32435918   6.262   4.948   5.297 -0.3179  0.4775 -0.5516
   38MOL   H32535919   6.228   4.806   5.193  1.6442 -2.2042  0.0913
   38MOL   H32635920   6.446   5.014   5.128  1.6219  0.4644 -1.8991
   38MOL   H32735921   6.412   4.882   5.026  1.0682 -1.1527  1.5604
   38MOL   H32835922   6.231   5.125   5.072 -0.5854  0.0509  0.3523
   38MOL   H32935923   6.174   4.975   4.986  1.5088 -1.8982  2.3006
   38MOL   H33035924   6.304   5.089   4.585  0.9914 -2.7789  0.9665
   38MOL   H33135925   6.334   5.240   4.684  1.9896  0.5678 -0.0467
   38MOL   H33235926   6.549   5.174   4.732 -1.6341 -0.7550  0.8062
   38MOL   H33335927   6.531   5.199   4.557  1.1205 -0.8518 -0.8421
   38MOL   H33435928   6.523   4.951   4.515 -0.4858 -0.5783  0.5000
   38MOL   H33535929   6.559   4.937   4.687  1.7574  0.3558  1.0797
   38MOL   H33635930   6.742   5.119   4.529  2.3762  0.8607  2.9548
   38MOL   H33735931   6.749   4.943   4.501 -0.4297 -0.6475 -0.6665
   38MOL   O33835932   6.746   5.060   4.803  0.2906 -0.9673  0.0322
   38MOL   C33935933   6.818   5.082   4.927  0.5232 -0.0619 -0.3840
   38MOL   C34035934   6.780   4.976   5.034 -1.0532 -0.6437  0.6536
   38MOL   C34135935   6.821   5.006   5.178 -0.0201 -0.5155 -0.2837
   38MOL   C34235936   6.966   4.957   5.198  0.0946 -0.0294  0.5092
   38MOL   C34335937   7.024   4.979   5.335  0.1912  0.2573 -0.3203
   38MOL   C34435938   7.006   4.855   5.432  0.4463  0.3942  0.1460
   38MOL   C34535939   7.075   4.876   5.561 -0.1986 -0.8634 -0.8211
   38MOL   C34635940   7.052   4.756   5.648  0.4265 -0.3116  0.0987
   38MOL   C34735941   7.148   4.741   5.767  0.1182  0.0551  0.6050
   38MOL   C34835942   7.090   4.645   5.871  0.0431 -0.0226 -0.1243
   38MOL   O34935943   7.074   4.517   5.813  0.4785 -0.0038  0.2363
   38MOL   C35035944   7.020   4.415   5.890  0.7064  0.2163  0.4153
   38MOL   O35135945   6.979   4.432   6.006  0.3530  0.2625  0.1065
   38MOL   C35235946   6.995   4.286   5.804  0.0060 -0.5361 -0.0178
   38MOL   C35335947   6.938   4.318   5.667  0.7822  0.3977 -0.6495
   38MOL   C35435948   6.796   4.361   5.677  0.0648  0.1070 -0.4734
   38MOL   C35535949   6.767   4.513   5.675  0.2717 -0.6436  0.4421
   38MOL   C35635950   6.619   4.550   5.685  0.1343 -0.7081 -0.5137
   38MOL   O35735951   6.566   4.632   5.607 -0.1697 -0.0023 -0.5078
   38MOL   H35835952   6.923   5.111   4.925  0.6065 -0.3188  0.2441
   38MOL   H35935953   6.779   5.170   4.980  0.4855 -0.8992  0.9954
   38MOL   H36035954   6.823   4.881   5.003  1.1904  0.2136  1.0803
   38MOL   H36135955   6.671   4.977   5.036 -1.1505  0.2984 -2.5311
   38MOL   H36235956   6.807   5.111   5.205 -0.1493 -1.0503  1.8470
   38MOL   H36335957   6.757   4.947   5.243  0.0321 -1.0470 -0.7184
   38MOL   H36435958   7.028   5.024   5.138 -0.7457  0.2987 -0.0091
   38MOL   H36535959   6.983   4.860   5.150 -0.4143  0.7134 -1.2296
   38MOL   H36635960   6.983   5.066   5.386 -0.6603  0.0466 -0.6465
   38MOL   H36735961   7.133   4.986   5.331  0.3286 -1.7102 -0.7784
   38MOL   H36835962   7.044   4.769   5.377 -2.0148  0.5147 -1.8375
   38MOL   H36935963   6.901   4.844   5.459 -0.1971  0.8815 -2.1142
   38MOL   H37035964   7.052   4.969   5.614 -0.9601  0.0922 -2.7826
   38MOL   H37135965   7.182   4.891   5.545 -0.1259 -1.4940 -0.9135
   38MOL   H37235966   7.045   4.658   5.600 -0.7669 -1.1578  1.9423
   38MOL   H37335967   6.958   4.770   5.700  0.1715  0.9184 -0.6921
   38MOL   H37435968   7.249   4.716   5.734 -0.2296 -1.1802  0.4246
   38MOL   H37535969   7.158   4.832   5.826  0.7134 -0.0569  0.6802
   38MOL   H37635970   7.001   4.680   5.923 -0.7515 -1.5202 -0.4654
   38MOL   H37735971   7.167   4.631   5.947  0.7108 -0.6541 -0.9097
   38MOL   H37835972   7.084   4.224   5.792 -0.2384 -0.6374 -1.4035
   38MOL   H37935973   6.924   4.223   5.859  0.2486 -2.2909 -1.6251
   38MOL   H38035974   6.938   4.222   5.615 -0.6670  0.5102 -0.8854
   38MOL   H38135975   6.995   4.389   5.608  1.6653  0.8387  0.7240
   38MOL   H38235976   6.749   4.308   5.761 -1.9693  1.5082 -0.7251
   38MOL   H38335977   6.742   4.310   5.597 -1.1323  2.4056 -1.1474
   38MOL   H38435978   6.820   4.544   5.585 -0.1351 -2.0305 -0.3015
   38MOL   H38535979   6.823   4.549   5.761  0.9726 -0.6509 -0.0085
   38MOL   O38635980   6.556   4.483   5.782  0.2834 -0.1083 -0.3093
   38MOL   C38735981   6.419   4.502   5.813  0.0888  0.2808  0.2622
   38MOL   C38835982   6.366   4.374   5.878 -0.0366  0.4695 -0.9994
   38MOL   C38935983   6.216   4.378   5.905 -0.6291  1.0413  0.4467
   38MOL   C39035984   6.156   4.240   5.930  0.4738  0.0540  0.5704
   38MOL   C39135985   6.157   4.216   6.076 -0.4252 -0.7603 -0.7822
   38MOL   C39235986   6.086   4.085   6.124  0.6425  0.0045 -0.3744
   38MOL   C39335987   6.186   3.970   6.108  0.5785 -0.2021 -0.4907
   38MOL   C39435988   6.121   3.827   6.123  0.1725 -0.1962 -0.1550
   38MOL   C39535989   6.217   3.714   6.123 -0.0167 -0.2081  0.5559
   38MOL   C39635990   6.160   3.583   6.171  0.3035  0.3009 -0.1084
   38MOL   O39735991   6.061   3.531   6.079  0.6466 -0.0974 -0.2625
   38MOL   C39835992   5.983   3.437   6.119 -0.1129  0.0304 -0.7378
   38MOL   O39935993   5.977   3.391   6.236 -0.2386  0.5434  0.3777
   38MOL   C40035994   5.886   3.376   6.015  0.1661 -0.3698 -0.7051
   38MOL   C40135995   5.770   3.472   5.976  0.7785 -0.1153 -0.5103
   38MOL   C40235996   5.674   3.386   5.886 -0.2076 -0.3988  0.4971
   38MOL   C40335997   5.534   3.445   5.843 -0.4998  0.2144  0.0100
   38MOL   C40435998   5.447   3.433   5.963  0.3691 -0.9117 -0.2338
   38MOL   O40535999   5.395   3.326   5.988  0.4523  0.0181 -0.1452
   38MOL   H40636000   6.413   4.591   5.876  0.4528  1.2358 -1.0140
   38MOL   H40736001   6.361   4.525   5.724  0.7054 -0.6525 -0.3925
   38MOL   H40836002   6.416   4.359   5.974 -1.6410  2.1195  0.1339
   38MOL   H40936003   6.405   4.296   5.812  1.8266 -0.6811  1.3692
   38MOL   H41036004   6.179   4.454   5.975 -1.0807  1.4904 -0.2634
   38MOL   H41136005   6.166   4.417   5.816  0.3832 -0.2956 -0.7232
   38MOL   H41236006   6.211   4.163   5.877 -2.2318 -0.9134 -0.9154
   38MOL   H41336007   6.055   4.251   5.890  1.3008  0.1817 -1.5518
   38MOL   H41436008   6.101   4.298   6.119 -0.4185 -0.4613 -1.3404
   38MOL   H41536009   6.257   4.234   6.117 -0.8578  1.1689 -0.5269
   38MOL   H41636010   6.002   4.073   6.057  0.4408 -0.0695 -0.1115
   38MOL   H41736011   6.042   4.095   6.224  0.8275 -1.0149 -0.1803
   38MOL   H41836012   6.267   3.987   6.179 -2.2476 -0.7400  2.9763
   38MOL   H41936013   6.232   3.979   6.009 -0.8734  1.1999 -1.0580
   38MOL   H42036014   6.039   3.822   6.052  0.3508  0.4609 -0.4169
   38MOL   H42136015   6.068   3.840   6.217 -2.2147 -0.4865 -1.4414
   38MOL   H42236016   6.253   3.707   6.020 -1.1365  1.3578  0.0500
   38MOL   H42336017   6.312   3.730   6.173  0.0830 -0.9469  0.6132
   38MOL   H42436018   6.120   3.607   6.269  0.8215 -2.2327  0.7541
   38MOL   H42536019   6.244   3.514   6.179 -0.5398 -0.8091 -0.6702
   38MOL   H42636020   5.949   3.333   5.937  1.3371  2.5759 -1.4627
   38MOL   H42736021   5.833   3.291   6.057 -1.9580  1.6311  0.8488
   38MOL   H42836022   5.787   3.565   5.922  2.4843  1.6367  2.8801
   38MOL   H42936023   5.720   3.504   6.068 -1.1754 -1.2338 -1.1383
   38MOL   H43036024   5.660   3.294   5.944 -2.4033  0.7423  1.8548
   38MOL   H43136025   5.728   3.352   5.797  0.9175 -0.5567  1.2353
   38MOL   H43236026   5.498   3.380   5.764 -0.2188 -3.0242  2.4493
   38MOL   H43336027   5.543   3.549   5.812  0.0884  0.4070  0.7940
   38MOL   O43436028   5.437   3.540   6.046 -0.3937 -0.2992 -0.6841
   38MOL   C43536029   5.373   3.527   6.167  0.1391 -0.0174  0.2493
   38MOL   C43636030   5.344   3.667   6.225  0.0315  0.7426 -0.6294
   38MOL   C43736031   5.273   3.656   6.366  0.1049  0.7583 -0.3185
   38MOL   C43836032   5.259   3.793   6.439  0.3868  0.3652  0.3697
   38MOL   C43936033   5.389   3.845   6.502 -0.1570  1.0802  0.2795
   38MOL   C44036034   5.357   3.969   6.591  0.1627  0.0391  1.2876
   38MOL   C44136035   5.479   4.014   6.677 -0.4244 -0.7236  0.3470
   38MOL   C44236036   5.592   4.067   6.595  0.1125  0.6377 -0.0203
   38MOL   C44336037   5.708   4.103   6.685  0.5359 -0.4388 -0.2235
   38MOL   C44436038   5.841   4.134   6.616 -0.6932  0.1596 -0.2387
   38MOL   O44536039   5.867   4.268   6.575  0.1346 -0.1938  0.4011
   38MOL   C44636040   5.819   4.316   6.463 -0.1042 -0.6220  0.8396
   38MOL   O44736041   5.741   4.268   6.385  0.1577  0.4320 -0.1708
   38MOL   C44836042   5.867   4.455   6.429  0.5792 -0.6059 -0.2783
   38MOL   C44936043   5.843   4.561   6.540 -0.1422 -0.5874  0.7190
   38MOL   C45036044   5.701   4.561   6.592 -1.3063 -0.2815  1.0380
   38MOL   C45136045   5.671   4.677   6.688 -0.5321 -0.2691 -0.0597
   38MOL   C45236046   5.764   4.660   6.812 -0.9675 -0.4245  0.0716
   38MOL   O45336047   5.859   4.737   6.835  0.2069 -0.1731 -0.0046
   38MOL   H45436048   5.278   3.477   6.152 -0.1608  1.2505 -2.3392
   38MOL   H45536049   5.429   3.462   6.234 -0.0080  0.1715  0.5617
   38MOL   H45636050   5.272   3.718   6.162 -1.0720  1.5417  1.2166
   38MOL   H45736051   5.440   3.717   6.234 -0.9336  2.4510  0.5693
   38MOL   H45836052   5.171   3.626   6.344  0.6187 -0.9145 -0.4679
   38MOL   H45936053   5.325   3.577   6.420  1.0106  2.2509  1.0375
   38MOL   H46036054   5.173   3.793   6.506  0.2507 -1.1174  0.1979
   38MOL   H46136055   5.216   3.856   6.361  1.7610  1.6438  0.6124
   38MOL   H46236056   5.461   3.863   6.422 -0.0130  1.5459  0.5123
   38MOL   H46336057   5.433   3.770   6.568  0.5237 -1.6922 -3.1802
   38MOL   H46436058   5.279   3.937   6.659  3.6601  0.6330  5.7964
   38MOL   H46536059   5.318   4.052   6.533 -1.6097 -2.5685 -1.4555
   38MOL   H46636060   5.505   3.929   6.740 -2.2486 -1.4360  0.1993
   38MOL   H46736061   5.445   4.084   6.753 -1.5242  0.3576 -1.1093
   38MOL   H46836062   5.554   4.156   6.545 -1.3165 -0.3568 -0.7557
   38MOL   H46936063   5.626   3.999   6.517 -0.2726 -1.8756  1.9377
   38MOL   H47036064   5.681   4.178   6.759 -2.3433 -2.5971  1.0246
   38MOL   H47136065   5.714   4.014   6.748 -4.5111  0.0805  1.2315
   38MOL   H47236066   5.856   4.068   6.531 -0.5914  1.1221 -0.9778
   38MOL   H47336067   5.922   4.115   6.686  0.2201 -0.2579 -1.4062
   38MOL   H47436068   5.973   4.451   6.404  0.1712 -1.6045 -1.9704
   38MOL   H47536069   5.820   4.488   6.336  0.8026 -0.1782 -0.2404
   38MOL   H47636070   5.873   4.662   6.510 -1.3316  0.2949  2.4015
   38MOL   H47736071   5.905   4.543   6.628  0.3647  2.2612  1.0148
   38MOL   H47836072   5.676   4.469   6.645 -1.5677 -1.2707 -0.7469
   38MOL   H47936073   5.635   4.562   6.505  0.4333  1.9778 -0.3195
   38MOL   H48036074   5.567   4.688   6.721 -1.5953 -1.9933 -2.6483
   38MOL   H48136075   5.700   4.767   6.634  0.8446 -0.0226  1.0723
   38MOL   O48236076   5.749   4.550   6.888 -0.2961 -0.2731 -0.0566
   38MOL   C48336077   5.853   4.503   6.972  0.1434  0.7272  0.6181
   38MOL   C48436078   5.878   4.357   6.936 -0.3241 -0.6512  0.2686
   38MOL   C48536079   5.986   4.291   7.027 -0.1630  0.0898  0.0121
   38MOL   C48636080   6.035   4.157   6.974 -0.3707  0.0875  0.9952
   38MOL   C48736081   6.132   4.085   7.069 -1.4872  0.1652  0.1437
   38MOL   C48836082   6.216   3.978   6.990  0.1625  0.2947  0.2609
   38MOL   C48936083   6.281   3.878   7.088  0.4472 -0.3738 -0.5554
   38MOL   C49036084   6.409   3.810   7.031 -0.5126 -0.4602 -0.2972
   38MOL   C49136085   6.457   3.699   7.128 -0.7389  0.5910 -0.1148
   38MOL   C49236086   6.572   3.622   7.079 -0.0170  0.3542  0.1496
   38MOL   O49336087   6.561   3.567   6.949  0.1356 -0.1641  0.5676
   38MOL   C49436088   6.669   3.524   6.884  0.0509 -0.0527  0.6221
   38MOL   O49536089   6.777   3.514   6.935 -0.2013 -0.2636  0.1820
   38MOL   C49636090   6.644   3.482   6.739  0.1817  0.6790 -0.7317
   38MOL   C49736091   6.614   3.331   6.722  0.1382 -0.0772 -0.3054
   38MOL   C49836092   6.576   3.279   6.582  0.4343  1.1866  0.1368
   38MOL   C49936093   6.552   3.126   6.570 -0.8147  0.1418 -0.0061
   38MOL   C50036094   6.461   3.090   6.455  0.1471  0.5989  0.7426
   38MOL   O50136095   6.386   2.995   6.463  0.1678 -0.0788 -0.1901
   38MOL   H50236096   5.948   4.557   6.974 -1.2100  3.1675  0.6489
   38MOL   H50336097   5.812   4.512   7.072 -0.7729  1.9340  0.1517
   38MOL   H50436098   5.911   4.362   6.832 -0.6043  0.1927  0.2120
   38MOL   H50536099   5.782   4.307   6.945 -1.5765  1.5926 -0.1550
   38MOL   H50636100   6.072   4.357   7.037  0.9981 -1.5184  0.7691
   38MOL   H50736101   5.943   4.269   7.125  0.1582 -1.1533 -0.1137
   38MOL   H50836102   6.084   4.191   6.882 -0.8877  1.9040  1.3617
   38MOL   H50936103   5.957   4.091   6.935 -1.0697  1.3166  0.2712
   38MOL   H51036104   6.067   4.040   7.145 -1.8143  0.6035  0.1249
   38MOL   H51136105   6.198   4.158   7.115  2.8207 -2.0892 -2.0960
   38MOL   H51236106   6.293   4.030   6.935  0.6693 -0.5050  0.2043
   38MOL   H51336107   6.170   3.914   6.914  1.5070  0.1424 -0.4355
   38MOL   H51436108   6.203   3.817   7.133 -0.7569  1.0544 -0.6614
   38MOL   H51536109   6.325   3.940   7.165 -0.0471  1.0057 -1.3708
   38MOL   H51636110   6.492   3.876   7.006 -1.0264 -0.4368 -1.9893
   38MOL   H51736111   6.390   3.775   6.929 -1.0418  1.5365 -0.9054
   38MOL   H51836112   6.491   3.749   7.219 -2.7922  0.8697  0.5035
   38MOL   H51936113   6.371   3.636   7.151  0.4622 -0.6380  1.1134
   38MOL   H52036114   6.574   3.537   7.147  1.7736 -0.9841 -1.5352
   38MOL   H52136115   6.664   3.681   7.082 -0.9642  1.7819  1.5849
   38MOL   H52236116   6.563   3.540   6.694 -1.3205 -0.8891 -0.1139
   38MOL   H52336117   6.730   3.511   6.679 -0.2981  1.3463 -1.1076
   38MOL   H52436118   6.526   3.303   6.779 -0.8441  1.1748 -1.1709
   38MOL   H52536119   6.700   3.277   6.760  0.4379  1.5051  1.2974
   38MOL   H52636120   6.650   3.315   6.511 -0.1485  1.0532 -0.5449
   38MOL   H52736121   6.485   3.333   6.554  0.3960  1.0817  0.0591
   38MOL   H52836122   6.510   3.086   6.663  0.8609 -1.3415  0.1427
   38MOL   H52936123   6.645   3.076   6.544 -0.8799  0.7297 -1.3994
   38MOL   O53036124   6.456   3.182   6.349  0.0877  0.7908 -0.0148
   38MOL   C53136125   6.360   3.188   6.247 -0.0233 -0.6065 -0.9727
   38MOL   C53236126   6.414   3.161   6.112 -0.4325  0.4064 -0.5038
   38MOL   C53336127   6.315   3.208   6.006  0.0297  0.1588 -0.0556
   38MOL   C53436128   6.355   3.177   5.864 -0.1510  0.2272 -0.6852
   38MOL   C53536129   6.235   3.164   5.780 -0.3444 -0.6960  0.3296
   38MOL   C53636130   6.162   3.034   5.791 -0.3272 -0.1100 -0.3766
   38MOL   C53736131   6.022   3.043   5.748  0.2116 -0.1028 -0.1146
   38MOL   C53836132   5.971   2.899   5.722  0.6014 -0.2194 -0.3242
   38MOL   C53936133   5.826   2.905   5.657  0.6247 -0.1615 -0.0582
   38MOL   C54036134   5.760   2.767   5.653  0.0016  0.3461  0.9303
   38MOL   O54136135   5.772   2.689   5.775  0.3039  0.6050 -0.7110
   38MOL   C54236136   5.675   2.605   5.809  0.2786  1.0722  0.1730
   38MOL   O54336137   5.585   2.572   5.739 -0.0254  0.2689  0.4041
   38MOL   C54436138   5.700   2.530   5.942  0.3756 -0.0035 -0.5651
   38MOL   C54536139   5.594   2.561   6.040  0.5536 -0.7533 -0.1483
   38MOL   C54636140   5.614   2.491   6.180  0.7417 -0.3906  0.6320
   38MOL   C54736141   5.517   2.535   6.288  0.2664  0.5006 -0.2382
   38MOL   C54836142   5.544   2.453   6.410  0.8050 -0.2054 -0.5767
   38MOL   O54936143   5.617   2.495   6.499  0.3823 -0.6410 -0.3741
   38MOL   H55036144   6.278   3.118   6.267 -1.7915  0.7625 -3.1862
   38MOL   H55136145   6.311   3.285   6.254 -2.6168 -1.8926 -0.3328
   38MOL   H55236146   6.441   3.057   6.096 -0.6380  0.3325 -0.3731
   38MOL   H55336147   6.508   3.211   6.088 -0.8340  0.2941 -2.4228
   38MOL   H55436148   6.220   3.162   6.032  0.9251 -0.8665  1.4836
   38MOL   H55536149   6.297   3.314   6.020 -3.1032 -0.2334 -0.8795
   38MOL   H55636150   6.421   3.090   5.858  0.4832  0.5815  1.0376
   38MOL   H55736151   6.411   3.261   5.824  0.5205 -0.1568 -0.5575
   38MOL   H55836152   6.257   3.176   5.674  1.8593  0.5509  0.8871
   38MOL   H55936153   6.173   3.251   5.800 -1.7474 -1.6886  0.3398
   38MOL   H56036154   6.159   3.008   5.897 -2.8074  1.8475  0.0874
   38MOL   H56136155   6.216   2.953   5.743 -2.7437 -2.7377  1.2387
   38MOL   H56236156   6.016   3.101   5.656  2.5029  1.0809  0.4557
   38MOL   H56336157   5.962   3.080   5.831 -0.4114  2.0403 -1.4779
   38MOL   H56436158   5.958   2.848   5.817  0.4977 -0.6448 -0.5624
   38MOL   H56536159   6.036   2.848   5.651  0.2522  1.4847 -1.9426
   38MOL   H56636160   5.762   2.969   5.717  0.7097  2.3258 -2.4898
   38MOL   H56736161   5.842   2.947   5.557 -0.0692  3.5861  1.3141
   38MOL   H56836162   5.812   2.705   5.580 -0.7130  1.2226 -0.3465
   38MOL   H56936163   5.655   2.785   5.629 -0.2755  0.1088  1.9401
   38MOL   H57036164   5.691   2.423   5.920  0.0975  0.5393 -3.2317
   38MOL   H57136165   5.801   2.544   5.979 -0.0749  2.3562 -0.1586
   38MOL   H57236166   5.495   2.539   5.999  0.2187  1.8036 -0.8188
   38MOL   H57336167   5.606   2.668   6.056  0.0513 -0.6701 -0.3140
   38MOL   H57436168   5.720   2.497   6.206  0.8646 -2.2112  0.5963
   38MOL   H57536169   5.603   2.386   6.153  0.1463 -0.0760 -0.3566
   38MOL   H57636170   5.411   2.521   6.267  0.3526  1.1344 -1.1379
   38MOL   H57736171   5.526   2.637   6.326  0.1263  0.2770  0.4039
   38MOL   O57836172   5.481   2.340   6.413  0.3425 -0.0031 -0.4384
   38MOL   C57936173   5.471   2.263   6.531 -0.1413  0.0466  0.9707
   38MOL   C58036174   5.424   2.116   6.505  0.2713 -0.4371  0.6410
   38MOL   C58136175   5.529   2.049   6.415  0.6461  0.0525  0.2068
   38MOL   C58236176   5.476   1.918   6.362 -0.2711 -0.9180 -0.2362
   38MOL   C58336177   5.579   1.845   6.270 -0.0290 -0.3901 -0.2778
   38MOL   C58436178   5.585   1.904   6.130  0.8112 -1.0603 -0.4374
   38MOL   C58536179   5.714   1.868   6.060 -0.3242  0.3387  0.8795
   38MOL   C58636180   5.710   1.927   5.920 -0.8355 -0.5969 -0.3378
   38MOL   C58736181   5.846   1.934   5.853  0.5051 -0.3008  0.2349
   38MOL   C58836182   5.810   1.915   5.703 -0.0824 -0.1359  0.3377
   38MOL   O58936183   5.705   1.995   5.647  0.3064  0.0895  0.6917
   38MOL   C59036184   5.690   2.020   5.515 -0.3355 -0.1166  0.4258
   38MOL   O59136185   5.739   1.959   5.422  0.5617 -0.6528 -0.2510
   38MOL   C59236186   5.609   2.142   5.476 -0.0512  0.3566 -0.2012
   38MOL   C59336187   5.681   2.270   5.517 -0.1489 -1.2380 -0.2341
   38MOL   C59436188   5.808   2.302   5.444 -0.7277  0.5127  0.5260
   38MOL   C59536189   5.867   2.442   5.475 -0.6142 -0.0457 -0.4438
   38MOL   C59636190   5.956   2.457   5.602 -0.5990 -0.1191  0.0978
   38MOL   O59736191   5.915   2.400   5.705  0.5823  0.0441 -0.1433
   38MOL   H59836192   5.573   2.258   6.570  0.1715 -1.1800  0.0335
   38MOL   H59936193   5.419   2.321   6.608  0.6366 -0.8281  2.1807
   38MOL   H60036194   5.328   2.109   6.453  0.2948 -1.1234  0.6940
   38MOL   H60136195   5.412   2.065   6.600  0.3640  0.5083  1.1635
   38MOL   H60236196   5.544   2.112   6.327  1.7139 -1.4521 -0.6985
   38MOL   H60336197   5.617   2.037   6.477 -0.9088  3.4557  3.2822
   38MOL   H60436198   5.388   1.932   6.300  1.5597 -0.6295 -2.8936
   38MOL   H60536199   5.448   1.864   6.452  1.2977  0.4721  1.1131
   38MOL   H60636200   5.540   1.744   6.260 -0.6015 -0.3599  1.4760
   38MOL   H60736201   5.673   1.847   6.325  0.4146 -4.0825 -0.8022
   38MOL   H60836202   5.583   2.013   6.140  1.6399 -1.1979  1.4208
   38MOL   H60936203   5.499   1.893   6.064  1.3304  2.6314 -1.8561
   38MOL   H61036204   5.729   1.762   6.041  1.9519  0.6514  0.7179
   38MOL   H61136205   5.795   1.911   6.119 -1.0834  2.1566  0.6283
   38MOL   H61236206   5.653   2.019   5.905  0.1029  0.0791  0.1844
   38MOL   H61336207   5.636   1.863   5.873 -2.4598  0.6812  0.4079
   38MOL   H61436208   5.897   2.025   5.886 -0.9505  0.5522  0.1677
   38MOL   H61536209   5.904   1.849   5.890  2.4520  1.0672  0.4244
   38MOL   H61636210   5.776   1.811   5.697  2.9281 -1.1578 -0.3662
   38MOL   H61736211   5.899   1.923   5.640  0.0129  2.8736  0.7913
   38MOL   H61836212   5.591   2.151   5.369  0.6498  0.9923 -0.2691
   38MOL   H61936213   5.516   2.147   5.533  0.8567  0.3438  1.2872
   38MOL   H62036214   5.698   2.262   5.624 -4.0750  0.6931  0.6117
   38MOL   H62136215   5.620   2.359   5.504  0.1239 -0.7877  1.4038
   38MOL   H62236216   5.776   2.301   5.340  0.7598  0.0160  0.0504
   38MOL   H62336217   5.881   2.224   5.466 -2.6160 -1.0436  1.4151
   38MOL   H62436218   5.786   2.509   5.500  0.0686  0.5496  0.2103
   38MOL   H62536219   5.929   2.471   5.390  1.3462 -1.6223  0.3961
   38MOL   O62636220   6.062   2.527   5.589  0.0915 -0.2663 -0.8620
   38MOL   C62736221   6.155   2.533   5.697  0.3293 -0.7141 -0.2019
   38MOL   C62836222   6.257   2.635   5.655 -0.3283  0.6305 -1.2436
   38MOL   C62936223   6.381   2.649   5.745  0.6126 -0.2283  0.0808
   38MOL   C63036224   6.486   2.740   5.679 -0.5748 -0.1475 -0.4660
   38MOL   C63136225   6.629   2.697   5.709 -0.3485  1.1883  0.3500
   38MOL   C63236226   6.721   2.788   5.625 -0.5440  0.0330 -0.2485
   38MOL   C63336227   6.868   2.770   5.655 -0.1896  0.1032 -0.1626
   38MOL   C63436228   6.916   2.619   5.640 -0.5555  0.1193 -0.0119
   38MOL   C63536229   7.065   2.617   5.599  0.8239  0.8420  0.9632
   38MOL   C63636230   7.123   2.472   5.599  0.2150 -0.0958 -0.1712
   38MOL   O63736231   7.054   2.384   5.513  0.5504 -0.5972  0.2923
   38MOL   C63836232   7.098   2.262   5.513  0.4555  0.2955  0.0462
   38MOL   O63936233   7.173   2.215   5.599  0.0817  0.2805  0.7113
   38MOL   C64036234   7.030   2.175   5.401 -0.1406 -0.0331  0.8783
   38MOL   C64136235   7.003   2.031   5.440  0.6540  0.6811  0.3855
   38MOL   C64236236   6.891   2.009   5.549  0.2585 -0.6171  0.4683
   38MOL   C64336237   6.755   2.089   5.532  0.2278 -0.6892  0.2598
   38MOL   C64436238   6.664   2.055   5.417 -0.1473 -0.6789 -0.3065
   38MOL   O64536239   6.547   2.023   5.436 -0.2102 -0.4889  0.0968
   38MOL   H64636240   6.106   2.574   5.785  1.4808  0.8922 -0.2884
   38MOL   H64736241   6.196   2.433   5.713  1.2701 -0.7332 -2.5084
   38MOL   H64836242   6.228   2.740   5.642  0.3364  0.8010 -1.3465
   38MOL   H64936243   6.305   2.610   5.561 -0.6530  1.6333 -1.6827
   38MOL   H65036244   6.358   2.711   5.832 -0.4186  0.4224 -0.6401
   38MOL   H65136245   6.412   2.552   5.784  2.2646 -0.0217 -0.6782
   38MOL   H65236246   6.462   2.841   5.712  3.3457  1.1880 -1.4660
   38MOL   H65336247   6.467   2.744   5.571  0.9131 -0.2977 -0.7345
   38MOL   H65436248   6.648   2.592   5.687  1.7012  1.0936  2.3941
   38MOL   H65536249   6.655   2.698   5.815  0.9979 -2.7211  0.1673
   38MOL   H65636250   6.698   2.893   5.643 -0.2205  0.3359 -1.5547
   38MOL   H65736251   6.710   2.751   5.524  0.3945 -3.1241  0.7467
   38MOL   H65836252   6.897   2.805   5.754  2.5435  0.6875 -1.1362
   38MOL   H65936253   6.915   2.836   5.583 -0.8346  1.0446  0.2747
   38MOL   H66036254   6.859   2.567   5.564  2.9403 -0.5033 -2.3389
   38MOL   H66136255   6.896   2.568   5.734 -0.1908  2.3689  1.3447
   38MOL   H66236256   7.081   2.663   5.501  3.6964  1.9786  1.8858
   38MOL   H66336257   7.109   2.689   5.669  1.3124  1.9282 -0.4192
   38MOL   H66436258   7.108   2.448   5.704  0.0646 -1.5288 -0.5182
   38MOL   H66536259   7.229   2.464   5.576  0.5873  0.9187  1.1145
   38MOL   H66636260   6.953   2.223   5.341  0.5428 -0.0362 -0.0161
   38MOL   H66736261   7.112   2.151   5.333  0.1127 -2.3428  1.9631
   38MOL   H66836262   7.087   1.984   5.491 -0.2644  0.4857  1.7279
   38MOL   H66936263   6.983   1.969   5.353 -1.7614 -1.4610  2.3641
   38MOL   H67036264   6.937   2.034   5.645  1.4669 -1.4059  0.1106
   38MOL   H67136265   6.870   1.902   5.545  0.9152 -0.7594  0.7422
   38MOL   H67236266   6.781   2.194   5.533  1.2186 -0.9297  1.2808
   38MOL   H67336267   6.691   2.072   5.619  0.0321 -0.4436  0.1609
   38MOL   O67436268   6.727   2.057   5.297 -0.1002 -0.5418 -0.1717
   38MOL   C67536269   6.665   2.035   5.177 -0.5534 -0.2442 -0.8026
   38MOL   C67636270   6.772   2.002   5.069  0.1495  0.9426 -0.2177
   38MOL   C67736271   6.874   2.112   5.041  0.0827  1.0320 -0.6446
   38MOL   C67836272   6.997   2.070   4.955 -0.9217 -0.3814 -0.5284
   38MOL   C67936273   7.100   2.187   4.947  0.7607 -0.4175  0.1016
   38MOL   C68036274   7.056   2.312   4.864 -0.7085  0.1261  0.0525
   38MOL   C68136275   7.134   2.432   4.919 -0.9747  0.7697 -0.9269
   38MOL   C68236276   7.101   2.550   4.832  0.4309  0.4221  0.0975
   38MOL   C68336277   7.191   2.664   4.857 -0.7089 -0.4431  0.9880
   38MOL   C68436278   7.152   2.800   4.782  0.0682 -0.1322 -0.1890
   38MOL   O68536279   7.209   2.906   4.857  0.0930 -0.5719  0.5124
   38MOL   C68636280   7.233   3.023   4.790 -0.0070  0.8477  0.0624
   38MOL   O68736281   7.230   3.040   4.663 -0.4578  0.5747  0.6592
   38MOL   C68836282   7.274   3.137   4.884  1.0975  0.0011  0.5809
   38MOL   C68936283   7.386   3.095   4.979 -0.2756  0.0797  0.6095
   38MOL   C69036284   7.498   3.200   4.986  0.2467  0.4386  0.0039
   38MOL   C69136285   7.596   3.210   4.870 -0.3944  0.2818  0.8567
   38MOL   C69236286   7.720   3.299   4.908  0.4894  0.6257 -0.6427
   38MOL   O69336287   7.730   3.415   4.867 -0.1591  0.2403 -0.2360
   38MOL   H69436288   6.591   1.956   5.187  0.1710 -0.8779 -0.3932
   38MOL   H69536289   6.607   2.122   5.145  0.8306  1.1664  0.4487
   38MOL   H69636290   6.730   1.979   4.971  1.1507  1.2091 -0.7174
   38MOL   H69736291   6.826   1.913   5.099 -0.4914  0.9755  1.0831
   38MOL   H69836292   6.822   2.201   5.007  2.4603  1.7138 -2.5781
   38MOL   H69936293   6.915   2.145   5.136 -0.4224  1.5823 -0.6142
   38MOL   H70036294   6.961   2.042   4.856 -0.7552 -3.1197  0.1373
   38MOL   H70136295   7.041   1.982   5.001 -0.9083 -0.4072 -0.5911
   38MOL   H70236296   7.180   2.141   4.889  0.0249  0.3512 -1.5533
   38MOL   H70336297   7.145   2.212   5.043  0.5598  0.0774  0.0701
   38MOL   H70436298   6.951   2.329   4.889 -0.5706 -1.1161  1.6007
   38MOL   H70536299   7.082   2.295   4.760  1.1487 -1.9249  0.7990
   38MOL   H70636300   7.242   2.424   4.907 -0.8334 -0.5933  0.9566
   38MOL   H70736301   7.120   2.459   5.024 -0.8843  0.5987 -0.8707
   38MOL   H70836302   6.995   2.576   4.838  0.2699 -0.4582  1.1496
   38MOL   H70936303   7.108   2.517   4.728 -0.9091  1.0298 -0.1970
   38MOL   H71036304   7.183   2.688   4.963  1.4741 -1.4995  1.4237
   38MOL   H71136305   7.297   2.651   4.838  0.1251  4.8557  1.3314
   38MOL   H71236306   7.045   2.817   4.797 -0.0752 -1.5456  0.4877
   38MOL   H71336307   7.182   2.785   4.679  1.5691 -1.9217  0.4736
   38MOL   H71436308   7.309   3.230   4.839 -0.4655 -0.1964 -1.0832
   38MOL   H71536309   7.181   3.150   4.939 -0.6843 -0.4728 -2.2240
   38MOL   H71636310   7.432   2.999   4.956 -0.2345  0.7240 -2.0989
   38MOL   H71736311   7.324   3.082   5.068  1.0250 -2.0411  1.2588
   38MOL   H71836312   7.555   3.170   5.074 -2.5441  0.7855  1.9731
   38MOL   H71936313   7.465   3.296   5.025  1.4781  0.4732  1.0038
   38MOL   H72036314   7.549   3.268   4.791 -2.2394 -1.2810  0.7676
   38MOL   H72136315   7.625   3.123   4.811  0.6867  1.2815 -0.1132
   38MOL   O72236316   0.052   3.234   4.970 -0.0037  0.0232 -0.6753
   38MOL   C72336317   0.156   3.296   5.044  0.0938  0.2525  0.8093
   38MOL   C72436318   0.283   3.217   5.034 -0.1683 -0.0859  0.2835
   38MOL   C72536319   0.384   3.261   5.138 -0.8523  0.7310  0.2146
   38MOL   C72636320   0.515   3.179   5.132  0.5180  0.1628 -0.0172
   38MOL   C72736321   0.605   3.231   5.012 -0.1800  0.7206 -0.3983
   38MOL   C72836322   0.733   3.148   4.981  0.6801 -0.0746  0.4891
   38MOL   C72936323   0.819   3.119   5.109 -0.3682  0.7730  0.5689
   38MOL   C73036324   0.860   3.246   5.188 -0.1583  0.6435  1.2390
   38MOL   C73136325   0.882   3.228   5.339 -0.7318 -0.2498 -0.3087
   38MOL   C73236326   0.947   3.353   5.409  0.2574  0.6374  0.7083
   38MOL   O73336327   1.082   3.364   5.376  0.0267  0.2597 -0.7165
   38MOL   C73436328   1.171   3.427   5.454 -0.4084 -0.6142  0.4486
   38MOL   O73536329   1.151   3.467   5.565 -0.2776 -0.3945  0.4987
   38MOL   C73636330   1.310   3.433   5.384  0.2937  0.8292 -0.0763
   38MOL   C73736331   1.390   3.559   5.422 -0.2238  0.1702  0.3272
   38MOL   C73836332   1.333   3.702   5.384 -0.3322  0.8026 -0.2718
   38MOL   C73936333   1.440   3.804   5.359  0.4347 -0.4402 -0.6522
   38MOL   C74036334   1.505   3.785   5.222  0.7170  0.9553  0.7596
   38MOL   O74136335   1.613   3.733   5.214 -0.6844  0.1016  0.1572
   38MOL   H74236336   0.181   3.392   4.999 -2.9975 -0.0105 -1.6410
   38MOL   H74336337   0.122   3.300   5.148  1.3543 -0.3311  1.2583
   38MOL   H74436338   0.327   3.220   4.935 -0.0204  3.1670  0.3892
   38MOL   H74536339   0.270   3.111   5.054  0.2834  0.1412  1.8649
   38MOL   H74636340   0.407   3.367   5.123 -0.9847  0.5662 -1.2292
   38MOL   H74736341   0.338   3.252   5.237  0.9306  1.2742  1.1235
   38MOL   H74836342   0.485   3.077   5.112  0.0908  0.4137 -0.6592
   38MOL   H74936343   0.578   3.164   5.220  0.5297 -0.3378 -0.1112
   38MOL   H75036344   0.634   3.335   5.030  1.1234  0.4617 -0.9420
   38MOL   H75136345   0.555   3.237   4.916  0.8234 -0.5046 -1.0082
   38MOL   H75236346   0.793   3.190   4.900  2.6985 -1.1249  1.4134
   38MOL   H75336347   0.699   3.052   4.941  2.1485 -0.5828  0.4091
   38MOL   H75436348   0.902   3.054   5.082 -1.8114 -0.4046 -1.1652
   38MOL   H75536349   0.750   3.056   5.166  2.2503 -0.2451  2.6702
   38MOL   H75636350   0.803   3.332   5.153 -1.3962 -0.7957 -0.3564
   38MOL   H75736351   0.962   3.258   5.153 -0.4752  1.9379  0.7512
   38MOL   H75836352   0.782   3.207   5.377  0.0715 -0.2293  1.8895
   38MOL   H75936353   0.944   3.141   5.357  1.8205  1.5315 -0.2686
   38MOL   H76036354   0.926   3.351   5.516 -1.2931 -1.0765  0.4015
   38MOL   H76136355   0.895   3.439   5.365 -1.7140  0.4535  2.5899
   38MOL   H76236356   1.357   3.337   5.407 -0.5539 -0.1492 -2.2367
   38MOL   H76336357   1.302   3.438   5.275 -1.5186  0.1807  0.0021
   38MOL   H76436358   1.492   3.547   5.385 -0.5373  1.1766 -0.8933
   38MOL   H76536359   1.397   3.557   5.531 -1.5128 -2.1258  0.4069
   38MOL   H76636360   1.264   3.735   5.462 -0.5280 -0.4378  0.0914
   38MOL   H76736361   1.277   3.690   5.291 -0.5182 -3.9882  0.3299
   38MOL   H76836362   1.513   3.822   5.438 -0.5064 -3.4089  0.9463
   38MOL   H76936363   1.402   3.906   5.358  0.3654 -0.4621 -2.8437
   38MOL   O77036364   1.424   3.822   5.121  0.3869  0.3329 -0.3588
   38MOL   C77136365   1.474   3.807   4.994  0.2970 -0.4488  0.1222
   38MOL   C77236366   1.382   3.708   4.910  0.4181  0.1608 -0.2027
   38MOL   C77336367   1.383   3.562   4.968  0.1109 -0.0868  0.3103
   38MOL   C77436368   1.277   3.468   4.908 -0.4011  0.0653  0.4809
   38MOL   C77536369   1.230   3.364   5.007 -0.1658  0.1117  0.3449
   38MOL   C77636370   1.330   3.265   5.060  0.3047 -0.4111 -0.1602
   38MOL   C77736371   1.253   3.161   5.144 -0.2273  0.2161  0.7375
   38MOL   C77836372   1.328   3.027   5.157 -1.1114  0.2761  0.4862
   38MOL   C77936373   1.243   2.930   5.242 -0.3768 -0.1029  0.4660
   38MOL   C78036374   1.308   2.787   5.226  0.2425 -0.2360 -0.2074
   38MOL   O78136375   1.271   2.718   5.110 -0.2592  0.6153  0.1969
   38MOL   C78236376   1.336   2.601   5.077  0.1181  1.2606  0.3591
   38MOL   O78336377   1.398   2.527   5.154  0.2724  0.2373  0.0924
   38MOL   C78436378   1.312   2.565   4.936  0.1532  0.4006 -0.1808
   38MOL   C78536379   1.194   2.464   4.938 -0.2045  0.1039  0.1492
   38MOL   C78636380   1.178   2.422   4.788 -0.3570  0.1904  0.1393
   38MOL   C78736381   1.036   2.380   4.760  0.2742  0.2287  0.1497
   38MOL   C78836382   1.010   2.235   4.800  0.0763  0.0111 -0.6057
   38MOL   O78936383   0.944   2.168   4.721  0.0511 -0.3849 -0.4237
   38MOL   H79036384   1.489   3.902   4.942  2.0880  0.1529  1.6884
   38MOL   H79136385   1.567   3.752   4.986  1.1415  1.0853 -0.8722
   38MOL   H79236386   1.416   3.710   4.806 -1.0266 -2.1453 -0.7466
   38MOL   H79336387   1.280   3.745   4.919  0.3410 -0.1131  0.0281
   38MOL   H79436388   1.483   3.519   4.959 -1.0312 -3.3325  2.1585
   38MOL   H79536389   1.369   3.565   5.076  1.6863  0.1178  0.5302
   38MOL   H79636390   1.319   3.415   4.823 -1.9452 -0.2773 -0.0874
   38MOL   H79736391   1.191   3.524   4.871  0.6767  0.4091 -1.5975
   38MOL   H79836392   1.146   3.308   4.965 -0.5894  1.9182 -1.3067
   38MOL   H79936393   1.192   3.421   5.092  0.3649  1.7428 -0.4946
   38MOL   H80036394   1.415   3.321   5.100 -0.6058  0.7164  0.2047
   38MOL   H80136395   1.360   3.212   4.970  0.4361 -0.5118 -0.0580
   38MOL   H80236396   1.165   3.135   5.084  2.0547 -2.5759 -1.6152
   38MOL   H80336397   1.222   3.201   5.240 -0.1233  1.4185  0.2709
   38MOL   H80436398   1.422   3.044   5.210 -1.2453  1.5534  0.3107
   38MOL   H80536399   1.351   2.968   5.068  0.7190  0.7198  0.6498
   38MOL   H80636400   1.255   2.969   5.342 -0.7016  2.9895 -0.6379
   38MOL   H80736401   1.138   2.922   5.211 -0.5310  2.4634  0.2449
   38MOL   H80836402   1.262   2.732   5.307 -1.6009  0.8216 -0.5128
   38MOL   H80936403   1.415   2.800   5.246 -0.3516  1.1135  2.3008
   38MOL   H81036404   1.279   2.655   4.884  0.5676  1.5420  1.4727
   38MOL   H81136405   1.393   2.531   4.872 -0.0393 -1.3413  0.4844
   38MOL   H81236406   1.100   2.497   4.982 -1.8455 -0.0363 -3.0557
   38MOL   H81336407   1.220   2.377   4.998 -1.3961 -0.4982 -0.1870
   38MOL   H81436408   1.245   2.344   4.753 -0.1663  0.4094  0.0124
   38MOL   H81536409   1.197   2.513   4.731 -0.9081 -1.7924 -3.3577
   38MOL   H81636410   1.022   2.381   4.652  2.8275  2.3476 -0.2039
   38MOL   H81736411   0.968   2.454   4.802 -0.8058 -0.4855 -0.3337
   38MOL   O81836412   1.052   2.193   4.918 -0.5000  0.2047 -0.3437
   38MOL   C81936413   0.997   2.070   4.968  0.3862  0.1938  0.2588
   38MOL   C82036414   1.100   1.956   4.944 -0.3777  0.1276 -0.2382
   38MOL   C82136415   1.232   1.975   5.022 -0.8469 -0.3346 -0.0328
   38MOL   C82236416   1.327   1.858   4.997 -0.4978 -0.4588  0.0173
   38MOL   C82336417   1.470   1.904   5.037  0.1892  0.5617 -0.5376
   38MOL   C82436418   1.584   1.810   5.002 -0.6281  0.4333 -0.0253
   38MOL   C82536419   1.724   1.867   5.027 -0.3262  0.2229  0.2453
   38MOL   C82636420   1.827   1.783   4.960 -0.2994  0.3714  0.4578
   38MOL   C82736421   1.862   1.648   5.030  0.3447 -0.4507 -0.1015
   38MOL   C82836422   1.955   1.555   4.954 -0.0271 -0.5992  0.1435
   38MOL   O82936423   1.980   1.431   5.009  0.0997  0.6015  0.1907
   38MOL   C83036424   2.071   1.419   5.110 -0.1981  0.1004 -0.4150
   38MOL   O83136425   2.149   1.504   5.159  0.5683 -0.7740 -0.1405
   38MOL   C83236426   2.073   1.274   5.167  0.2959  0.4214 -0.7336
   38MOL   C83336427   2.146   1.250   5.300  0.3488 -0.1489 -0.4572
   38MOL   C83436428   2.298   1.222   5.290 -0.7212  0.2204 -0.3199
   38MOL   C83536429   2.351   1.111   5.391  0.1194  0.0723 -0.5141
   38MOL   C83636430   2.349   1.157   5.536 -0.6508  0.7694  0.0558
   38MOL   O83736431   2.454   1.189   5.590  0.4038  0.5089 -0.3129
   38MOL   H83836432   0.986   2.083   5.076  0.2034  0.5272  0.2002
   38MOL   H83936433   0.903   2.033   4.930  0.0977  1.3831 -0.2181
   38MOL   H84036434   1.111   1.945   4.836  0.2663  1.5199 -0.3223
   38MOL   H84136435   1.055   1.858   4.959 -1.9381  0.5564 -1.9712
   38MOL   H84236436   1.276   2.069   4.989 -1.2878  0.3493  1.2969
   38MOL   H84336437   1.217   1.985   5.130 -0.2018  0.8955 -0.0563
   38MOL   H84436438   1.329   1.821   4.895  0.1384  1.6476 -0.7629
   38MOL   H84536439   1.311   1.776   5.067 -0.5149 -1.0035 -0.6275
   38MOL   H84636440   1.474   1.919   5.145 -0.5606  0.9286 -0.5548
   38MOL   H84736441   1.496   2.001   4.993  1.8898 -0.1660 -1.1515
   38MOL   H84836442   1.579   1.775   4.899  0.6049 -2.2690  0.7893
   38MOL   H84936443   1.578   1.727   5.073 -0.4231  0.2763 -0.1934
   38MOL   H85036444   1.746   1.862   5.134 -2.2372 -1.8281  0.5655
   38MOL   H85136445   1.737   1.968   4.990 -3.5991  0.1361 -1.3242
   38MOL   H85236446   1.917   1.843   4.944  0.1836 -0.2170  0.9144
   38MOL   H85336447   1.801   1.757   4.858 -0.0820 -0.4056  0.5983
   38MOL   H85436448   1.909   1.671   5.126  0.6914  1.0717 -0.6115
   38MOL   H85536449   1.767   1.600   5.053  0.6096 -1.4412 -1.0731
   38MOL   H85636450   2.049   1.606   4.932  1.0502 -2.4646  0.3703
   38MOL   H85736451   1.903   1.549   4.858  0.0365 -0.7661  0.1189
   38MOL   H85836452   1.972   1.234   5.178 -0.0295  0.7537 -2.3792
   38MOL   H85936453   2.117   1.212   5.090 -2.9639 -0.1219 -2.2603
   38MOL   H86036454   2.094   1.177   5.362  2.4889 -0.5678  0.9404
   38MOL   H86136455   2.120   1.338   5.358 -2.0451 -0.2239 -1.3687
   38MOL   H86236456   2.360   1.311   5.302 -0.4141 -0.3135  2.3093
   38MOL   H86336457   2.317   1.184   5.189  0.3814  0.8267 -0.3559
   38MOL   H86436458   2.458   1.092   5.380  0.5997  0.4118  2.9910
   38MOL   H86536459   2.300   1.016   5.381  0.8274 -0.6153  2.0531
   38MOL   O86636460   2.222   1.158   5.581 -0.0969 -0.2071 -0.5012
   38MOL   C86736461   2.217   1.192   5.722 -0.2085 -0.2541 -0.4148
   38MOL   C86836462   2.080   1.176   5.782 -0.1403  0.0264  0.0555
   38MOL   C86936463   2.081   1.209   5.933  0.0444  0.9928 -0.1380
   38MOL   C87036464   1.946   1.167   5.993 -0.0429  0.2294  0.3656
   38MOL   C87136465   1.935   1.173   6.151  0.1007  0.5298  0.2893
   38MOL   C87236466   1.796   1.186   6.219  0.0201  0.8606 -0.2374
   38MOL   C87336467   1.820   1.195   6.371 -0.4263  1.0334 -0.2322
   38MOL   C87436468   1.822   1.062   6.438  0.4111  0.4805 -0.4028
   38MOL   C87536469   1.697   0.994   6.482 -0.4002 -0.2680 -0.3063
   38MOL   C87636470   1.733   0.856   6.545  1.2061 -0.1165  0.0162
   38MOL   O87736471   1.618   0.798   6.603  0.0711 -0.2551  0.1282
   38MOL   C87836472   1.596   0.805   6.727 -0.0563 -0.3130  0.6651
   38MOL   O87936473   1.678   0.847   6.811  0.2011 -0.3713 -0.0149
   38MOL   C88036474   1.457   0.762   6.770  0.4548 -0.2075 -0.8912
   38MOL   C88136475   1.328   0.856   6.743 -0.4806  0.4777  0.5513
   38MOL   C88236476   1.292   0.888   6.593  0.3156  0.7631  0.0661
   38MOL   C88336477   1.189   0.993   6.571  0.3675 -0.9983 -0.0719
   38MOL   C88436478   1.242   1.137   6.543  0.2532  0.2895  0.5999
   38MOL   O88536479   1.359   1.170   6.577  0.1778 -0.1068 -0.2467
   38MOL   H88636480   2.286   1.142   5.789  1.9092  3.3266  0.2223
   38MOL   H88736481   2.241   1.297   5.743 -1.0356 -0.1321 -0.0128
   38MOL   H88836482   2.045   1.074   5.770  1.8310 -0.4415 -2.0554
   38MOL   H88936483   2.007   1.234   5.726  0.7993 -0.4667 -1.6918
   38MOL   H89036484   2.168   1.171   5.986  0.8827  0.6599 -1.7168
   38MOL   H89136485   2.096   1.317   5.936 -2.0497  1.3412 -0.8178
   38MOL   H89236486   1.938   1.063   5.963 -0.0400  0.4556 -0.4507
   38MOL   H89336487   1.872   1.222   5.934  0.6198 -1.0005 -1.6574
   38MOL   H89436488   1.997   1.256   6.185  0.1501  0.9573 -0.8133
   38MOL   H89536489   1.976   1.082   6.195 -4.3302 -2.0171 -0.5314
   38MOL   H89636490   1.740   1.101   6.181 -0.2077  0.6329  0.5940
   38MOL   H89736491   1.740   1.273   6.185  0.0458  0.4390 -1.3661
   38MOL   H89836492   1.737   1.244   6.423  0.5100  4.5027 -1.8525
   38MOL   H89936493   1.906   1.259   6.391  0.1565  1.1495 -2.9337
   38MOL   H90036494   1.893   1.066   6.520  0.8588 -0.3028 -0.7502
   38MOL   H90136495   1.878   0.990   6.378  0.2712 -0.3654  0.4709
   38MOL   H90236496   1.648   1.067   6.546 -0.1232  0.4107 -0.8592
   38MOL   H90336497   1.623   0.984   6.404 -0.6675 -3.9281  0.3135
   38MOL   H90436498   1.800   0.854   6.630  0.7482  0.7246  0.4090
   38MOL   H90536499   1.769   0.790   6.466  0.1258 -1.4484  0.6225
   38MOL   H90636500   1.430   0.668   6.722 -1.6939  0.0028 -0.1075
   38MOL   H90736501   1.460   0.761   6.879 -0.2036 -0.8199 -0.8810
   38MOL   H90836502   1.339   0.949   6.799  1.5731 -0.1236  1.1679
   38MOL   H90936503   1.236   0.815   6.785 -0.5050 -0.3184 -0.2547
   38MOL   H91036504   1.259   0.796   6.544  2.2604  0.6430 -1.1169
   38MOL   H91136505   1.387   0.910   6.543  0.4703  1.8018  0.8058
   38MOL   H91236506   1.112   0.983   6.648  1.9778  1.4825  1.9141
   38MOL   H91336507   1.153   0.984   6.468 -1.2248  4.2968 -0.1173
   38MOL   O91436508   1.148   1.217   6.473 -0.4463 -0.6067 -0.0175
   38MOL   C91536509   1.188   1.352   6.438 -0.6500 -0.9637  0.0149
   38MOL   C91636510   1.088   1.405   6.327 -0.1536 -0.2023 -0.0680
   38MOL   C91736511   1.064   1.317   6.205 -0.0295 -0.4415 -0.5162
   38MOL   C91836512   0.945   1.364   6.118 -0.0140 -0.0967 -0.4700
   38MOL   C91936513   0.971   1.492   6.038 -0.5699 -0.5273 -0.1297
   38MOL   C92036514   0.873   1.523   5.926 -0.6310 -0.5737 -0.5479
   38MOL   C92136515   0.929   1.635   5.839 -0.6533 -0.9090 -0.0952
   38MOL   C92236516   0.842   1.698   5.739  0.2662  0.7242 -0.1106
   38MOL   C92336517   0.729   1.778   5.790  0.1933  0.2973 -0.1663
   38MOL   C92436518   0.666   1.875   5.682  0.4609  0.0131 -0.3010
   38MOL   O92536519   0.540   1.917   5.729 -0.5449  0.4672 -0.1996
   38MOL   C92636520   0.531   2.026   5.802 -0.1370 -0.3360 -0.0017
   38MOL   O92736521   0.618   2.115   5.805  0.4632  0.3797 -0.2054
   38MOL   C92836522   0.391   2.034   5.872  0.2346  0.6827  0.7271
   38MOL   C92936523   0.375   2.144   5.986  0.4400 -0.1647  0.6530
   38MOL   C93036524   0.457   2.116   6.114  0.1917  0.2054  0.6550
   38MOL   C93136525   0.470   2.230   6.221  0.3064 -0.2327  0.1142
   38MOL   C93236526   0.357   2.233   6.321  0.7672  1.1592 -0.7882
   38MOL   O93336527   0.311   2.126   6.355 -0.2602  0.5579 -0.3603
   38MOL   H93436528   1.181   1.408   6.531 -1.4730 -1.4839  0.2724
   38MOL   H93536529   1.289   1.344   6.397 -0.7792  0.3331 -0.5992
   38MOL   H93636530   1.119   1.502   6.288  2.1963 -1.0428 -0.3792
   38MOL   H93736531   0.990   1.416   6.373 -0.5781  0.9250 -1.2316
   38MOL   H93836532   1.153   1.311   6.142 -0.3624 -0.5705 -0.9783
   38MOL   H93936533   1.054   1.215   6.242  0.0797  0.0846  1.0061
   38MOL   H94036534   0.855   1.376   6.178  0.4865 -2.4766  0.8177
   38MOL   H94136535   0.929   1.289   6.040 -0.5630 -0.7764  0.2913
   38MOL   H94236536   1.072   1.492   5.997  0.2245  0.6912  1.7240
   38MOL   H94336537   0.964   1.585   6.095 -1.7445 -0.8353  0.2393
   38MOL   H94436538   0.773   1.540   5.967 -1.7704 -1.4961 -2.8343
   38MOL   H94536539   0.870   1.434   5.862  2.2343 -2.0344  1.2673
   38MOL   H94636540   1.015   1.587   5.791  0.6038  1.0838  0.1273
   38MOL   H94736541   0.976   1.707   5.906 -0.3862 -0.8605 -0.3335
   38MOL   H94836542   0.816   1.627   5.660  0.2514  0.0538  0.5014
   38MOL   H94936543   0.917   1.756   5.686 -1.1732  0.9614 -1.9719
   38MOL   H95036544   0.658   1.702   5.825 -0.0806 -0.0398 -1.4372
   38MOL   H95136545   0.763   1.836   5.877 -0.9509  0.6940  0.0371
   38MOL   H95236546   0.648   1.810   5.596 -1.1998 -0.4722  0.3983
   38MOL   H95336547   0.730   1.959   5.654 -1.0291  0.1563 -3.4634
   38MOL   H95436548   0.322   2.061   5.792  1.6114 -1.1711 -1.1509
   38MOL   H95536549   0.353   1.943   5.917 -0.9944  0.4941 -0.6826
   38MOL   H95636550   0.266   2.139   5.994  0.1381  2.1593 -1.3360
   38MOL   H95736551   0.393   2.241   5.940 -0.8002 -0.5436 -0.6945
   38MOL   H95836552   0.557   2.092   6.076  0.0759 -0.9502  1.0818
   38MOL   H95936553   0.405   2.027   6.148 -0.8549  1.1066  1.4338
   38MOL   H96036554   0.480   2.328   6.174 -0.2048  1.0109  2.5004
   38MOL   H96136555   0.555   2.215   6.287 -0.1696  0.5865  0.9359
   38MOL   H96236556   0.334   2.330   6.363 -2.0378  0.6002 -0.9481
   39MOL     O136557   4.730   6.523   6.023  0.1139 -0.6505  0.0035
   39MOL     C236558   4.769   6.424   5.929  0.4862 -1.0188  0.1028
   39MOL     C336559   4.904   6.451   5.863 -0.0247  0.2157 -0.4376
   39MOL     C436560   4.944   6.325   5.786  0.2218  0.0295 -0.3622
   39MOL     C536561   4.885   6.285   5.653  0.5297 -0.1317 -0.0590
   39MOL     C636562   4.953   6.162   5.593  0.1962 -0.1282 -0.6007
   39MOL     C736563   4.900   6.110   5.465 -0.0784  0.6720 -0.5243
   39MOL     C836564   5.000   5.995   5.419  0.4624 -0.3697 -0.4867
   39MOL     C936565   4.949   5.906   5.307  0.1700  0.4852  0.5652
   39MOL    C1036566   4.966   5.975   5.170  0.5687 -0.8127  0.0332
   39MOL    C1136567   4.937   5.897   5.051 -0.4373  0.7398  0.4918
   39MOL    O1236568   5.039   5.791   5.037  0.2275 -0.0093  0.0717
   39MOL    C1336569   5.010   5.665   5.064 -0.0805 -0.1252  0.6373
   39MOL    O1436570   4.908   5.621   5.115  0.3334  0.2704  0.0137
   39MOL    C1536571   5.126   5.570   5.026  1.0097  0.2190 -0.4420
   39MOL    C1636572   5.090   5.418   5.050 -0.3453 -0.1616  0.0251
   39MOL    C1736573   5.201   5.326   4.986 -0.2489 -0.1698 -0.5232
   39MOL    C1836574   5.184   5.175   5.013 -0.2354 -0.5751  0.0801
   39MOL    C1936575   5.238   5.128   5.155 -0.2204  0.2660  0.3292
   39MOL    O2036576   5.324   5.044   5.161 -0.0795 -0.0671  0.3542
   39MOL    H2136577   4.756   6.329   5.980  0.0999 -1.7739 -1.3674
   39MOL    H2236578   4.691   6.434   5.853  0.4623 -0.5165  0.1875
   39MOL    H2336579   4.982   6.481   5.934  1.3768 -3.1251 -0.4843
   39MOL    H2436580   4.908   6.542   5.803 -2.1430 -0.9195 -2.3780
   39MOL    H2536581   5.053   6.333   5.777  0.1506  3.0701  0.7746
   39MOL    H2636582   4.929   6.247   5.862  0.1745 -0.1341 -0.5397
   39MOL    H2736583   4.898   6.369   5.584 -1.5781 -0.4072 -0.8225
   39MOL    H2836584   4.779   6.278   5.677  0.8051  0.7643  1.4491
   39MOL    H2936585   4.954   6.072   5.655  1.1383  0.6119  0.4752
   39MOL    H3036586   5.060   6.179   5.579  0.4240 -0.6688  0.3829
   39MOL    H3136587   4.881   6.193   5.397 -1.5261 -0.0009 -0.9745
   39MOL    H3236588   4.800   6.069   5.484  0.5479 -0.9139 -0.5545
   39MOL    H3336589   5.022   5.933   5.506 -1.6259 -0.2174  0.1641
   39MOL    H3436590   5.092   6.043   5.386 -0.9497  0.3223 -3.5658
   39MOL    H3536591   4.845   5.875   5.313  0.6905 -1.9758 -1.6578
   39MOL    H3636592   5.001   5.809   5.305  0.8233  0.8136  1.3966
   39MOL    H3736593   4.910   6.067   5.160  0.9175 -0.7919 -2.0564
   39MOL    H3836594   5.067   6.016   5.160 -0.4663  1.2287 -2.6870
   39MOL    H3936595   4.940   5.956   4.959  0.8295  1.8393  1.2234
   39MOL    H4036596   4.834   5.861   5.064  0.0826 -1.5323 -1.2364
   39MOL    H4136597   5.136   5.580   4.918  0.1800 -0.9817 -0.6435
   39MOL    H4236598   5.222   5.610   5.059  1.7912 -1.7483 -0.2553
   39MOL    H4336599   4.993   5.402   5.004 -0.5396 -0.7932  0.6473
   39MOL    H4436600   5.084   5.405   5.158 -0.3549 -2.3610 -0.1995
   39MOL    H4536601   5.299   5.361   5.020 -0.8078 -0.4580  1.4651
   39MOL    H4636602   5.204   5.355   4.882 -0.3499 -2.3438 -1.1541
   39MOL    H4736603   5.235   5.124   4.932 -1.4839 -1.1512 -0.3468
   39MOL    H4836604   5.085   5.129   5.011 -0.6518  0.3749 -2.6519
   39MOL    H4936605   4.705   6.606   5.985  0.2709 -1.8843 -2.9329
   39MOL    O5036606   5.188   5.191   5.254 -0.6423  0.2258  0.2070
   39MOL    C5136607   5.214   5.157   5.391 -0.6637 -0.4688 -0.4002
   39MOL    C5236608   5.100   5.197   5.484  0.2584  0.0790  0.0155
   39MOL    C5336609   5.109   5.350   5.522 -0.2618  0.4327  0.6667
   39MOL    C5436610   4.977   5.398   5.586 -0.1377 -0.2727 -0.4355
   39MOL    C5536611   4.987   5.551   5.613  0.7524 -0.0645  0.7560
   39MOL    C5636612   4.879   5.610   5.703  0.2554  1.2347  0.3781
   39MOL    C5736613   4.909   5.757   5.749 -0.3634 -0.1165 -0.4164
   39MOL    C5836614   4.787   5.821   5.832  0.3978 -0.4331 -0.1038
   39MOL    C5936615   4.667   5.854   5.742  0.5874 -0.2387 -0.5749
   39MOL    C6036616   4.535   5.885   5.804  0.6865  0.4020 -0.0737
   39MOL    O6136617   4.499   5.783   5.898 -0.2141 -0.3551  0.7534
   39MOL    C6236618   4.368   5.780   5.940 -0.4693 -0.1489  0.8922
   39MOL    O6336619   4.288   5.868   5.904  0.1727 -0.1746 -0.1235
   39MOL    C6436620   4.331   5.669   6.041 -0.0149  0.1413 -0.0657
   39MOL    C6536621   4.204   5.693   6.116  0.3360 -0.3522 -0.9634
   39MOL    C6636622   4.197   5.803   6.224 -0.5204  0.1418  0.0847
   39MOL    C6736623   4.060   5.811   6.296 -0.1609 -0.0859 -0.2819
   39MOL    C6836624   4.075   5.889   6.428  0.3831  0.6078 -0.3743
   39MOL    O6936625   4.000   5.982   6.460  0.2223  0.2245  0.0159
   39MOL    H7036626   5.248   5.054   5.402  0.2282  0.0689  2.1775
   39MOL    H7136627   5.304   5.216   5.411 -2.4061  2.2918 -0.4616
   39MOL    H7236628   5.105   5.139   5.576  1.1893  0.8239  0.4405
   39MOL    H7336629   5.002   5.174   5.442 -0.7305  0.6880  1.8993
   39MOL    H7436630   5.193   5.364   5.589 -0.9302  0.2222  1.5585
   39MOL    H7536631   5.124   5.402   5.427 -0.0929 -0.7740  0.0188
   39MOL    H7636632   4.969   5.346   5.681  0.9279 -0.6300 -0.5391
   39MOL    H7736633   4.887   5.373   5.530 -0.8598  1.8752 -0.2968
   39MOL    H7836634   5.000   5.599   5.516  0.6849 -0.3540  0.6056
   39MOL    H7936635   5.074   5.582   5.670  0.5736  1.5004  0.2140
   39MOL    H8036636   4.861   5.540   5.785 -0.6545 -0.2802 -1.0903
   39MOL    H8136637   4.785   5.609   5.647  0.8264 -1.1255 -0.6219
   39MOL    H8236638   4.930   5.819   5.662  1.3157 -0.8323 -0.5581
   39MOL    H8336639   4.989   5.759   5.823 -0.6620 -3.2518  0.0378
   39MOL    H8436640   4.820   5.914   5.879  0.6242 -0.4126 -0.2995
   39MOL    H8536641   4.757   5.743   5.902 -1.5136 -2.1647 -2.7951
   39MOL    H8636642   4.700   5.933   5.675  0.0390 -1.5065 -2.3818
   39MOL    H8736643   4.658   5.766   5.678  1.4878 -0.4947 -0.3581
   39MOL    H8836644   4.468   5.903   5.720  2.6930 -1.7613 -2.1887
   39MOL    H8936645   4.538   5.977   5.863 -3.5014  0.2341  0.4957
   39MOL    H9036646   4.303   5.583   5.979  1.4201 -1.2807  1.2034
   39MOL    H9136647   4.413   5.651   6.110  0.9329 -0.5451 -1.3316
   39MOL    H9236648   4.193   5.596   6.166  3.1249 -1.0971 -1.6736
   39MOL    H9336649   4.133   5.716   6.038  1.7878  0.3750 -2.1000
   39MOL    H9436650   4.205   5.899   6.174  1.3208 -0.6153 -1.1402
   39MOL    H9536651   4.273   5.790   6.301 -1.4490  0.2077  1.0230
   39MOL    H9636652   4.015   5.713   6.311 -0.4224  0.1600  0.5823
   39MOL    H9736653   3.985   5.858   6.232  0.3108 -2.7116 -2.8533
   39MOL    O9836654   4.162   5.836   6.515 -0.3050 -0.0924 -0.0728
   39MOL    C9936655   4.169   5.882   6.651 -0.6867  0.5749  0.3584
   39MOL   C10036656   4.242   6.018   6.652  0.5038  0.0272 -0.3774
   39MOL   C10136657   4.383   5.994   6.606 -0.2903 -0.6933 -0.0386
   39MOL   C10236658   4.468   6.125   6.602 -0.0712 -0.1162 -0.2746
   39MOL   C10336659   4.616   6.109   6.588  0.4468  0.8011  0.5825
   39MOL   C10436660   4.688   6.021   6.691  0.4192 -0.3612  0.4402
   39MOL   C10536661   4.679   6.075   6.833  0.2313  0.5252  0.5809
   39MOL   C10636662   4.761   6.003   6.943  0.0597  0.3155 -0.6609
   39MOL   C10736663   4.757   6.059   7.084  0.1217 -0.3180 -0.2776
   39MOL   C10836664   4.849   5.986   7.177  0.3614  0.3848 -0.1568
   39MOL   O10936665   4.871   6.069   7.292 -0.0869  0.0922 -1.1391
   39MOL   C11036666   4.781   6.065   7.396 -0.0305 -0.2484 -0.0455
   39MOL   O11136667   4.683   5.993   7.409  0.1632 -0.6466  0.0898
   39MOL   C11236668   4.799   6.176   7.499  0.1656  0.3795  0.5050
   39MOL   C11336669   4.906   6.137   7.606  0.3802 -0.1685 -0.8882
   39MOL   C11436670   4.875   6.028   7.702 -0.2530 -0.1678 -0.3207
   39MOL   C11536671   4.979   6.007   0.061  0.2304 -0.1063 -0.0318
   39MOL   C11636672   5.112   5.951   0.014  0.2439  0.1887 -0.0740
   39MOL   O11736673   5.188   6.031   7.730 -0.3235 -0.0157  0.2023
   39MOL   H11836674   4.068   5.887   6.694 -0.6493 -3.5288  1.1342
   39MOL   H11936675   4.230   5.821   6.717 -0.5584 -0.9549 -1.1590
   39MOL   H12036676   4.246   6.058   6.753  0.3183  0.9214 -0.7251
   39MOL   H12136677   4.201   6.103   6.598  2.9104  2.1038  0.9835
   39MOL   H12236678   4.423   5.915   6.670 -0.0542  0.8594  1.7957
   39MOL   H12336679   4.384   5.951   6.506  1.8494  1.8837 -1.2054
   39MOL   H12436680   4.445   6.174   6.696  1.7766  1.2747 -0.5112
   39MOL   H12536681   4.419   6.190   6.529  0.7135  0.2790 -0.4580
   39MOL   H12636682   4.672   6.202   6.582 -1.8649  2.2676  0.9316
   39MOL   H12736683   4.637   6.071   6.489 -2.2074  0.1070  0.2328
   39MOL   H12836684   4.792   5.995   6.669  0.0925 -1.3027 -0.0269
   39MOL   H12936685   4.646   5.920   6.694 -0.9583  0.2479  2.2203
   39MOL   H13036686   4.573   6.072   6.857 -0.2472 -0.0641 -1.4868
   39MOL   H13136687   4.708   6.180   6.839  1.3136  0.1809  1.5452
   39MOL   H13236688   4.867   6.010   6.919 -0.1162 -0.3566 -1.6636
   39MOL   H13336689   4.743   5.895   6.943 -2.3648  0.6694 -1.3411
   39MOL   H13436690   4.767   6.168   7.077  0.1165 -0.3381 -0.6102
   39MOL   H13536691   4.662   6.041   7.135  0.5039  2.9415  1.7009
   39MOL   H13636692   4.950   5.974   7.137  1.6133  1.2826  2.5596
   39MOL   H13736693   4.800   5.892   7.204  0.0719  0.8010  0.7881
   39MOL   H13836694   4.828   6.270   7.453  0.0996 -0.3109 -0.9538
   39MOL   H13936695   4.704   6.195   7.549 -1.0069  0.9956 -1.9187
   39MOL   H14036696   4.916   6.234   7.656  3.3684 -1.3984  1.0271
   39MOL   H14136697   5.008   6.128   7.569  1.1521  1.7195  0.6798
   39MOL   H14236698   4.853   5.933   7.653  0.7602  0.1957 -1.4884
   39MOL   H14336699   4.783   6.052   7.755 -0.9644 -1.2233 -1.0558
   39MOL   H14436700   4.940   5.924   0.120 -1.5981  1.3169  0.8399
   39MOL   H14536701   4.994   6.102   0.112  1.9192 -0.5233  0.2700
   39MOL   O14636702   5.140   5.827   0.044 -0.0169  0.3021 -0.1743
   39MOL   C14736703   5.260   5.767   7.762  0.5922 -0.1000  0.6133
   39MOL   C14836704   5.327   5.699   0.123 -0.2026  0.0762  0.6349
   39MOL   C14936705   5.400   5.798   0.213  0.1098  0.5364  0.4271
   39MOL   C15036706   5.500   5.893   0.148  0.5208  0.3677 -0.2393
   39MOL   C15136707   5.575   5.974   0.253 -0.5571  0.2737  0.3379
   39MOL   C15236708   5.472   6.075   0.322 -0.0330  0.2169  0.1426
   39MOL   C15336709   5.521   6.192   0.412  0.1889  0.0810  0.2077
   39MOL   C15436710   5.616   6.163   0.523  0.1202 -0.3458 -0.7250
   39MOL   C15536711   5.560   6.059   0.619  0.3191 -0.0543  0.4081
   39MOL   C15636712   5.668   6.022   0.724  0.1850 -0.2742 -0.4543
   39MOL   O15736713   5.672   6.120   0.827  0.3628  0.0250  0.8942
   39MOL   C15836714   5.574   6.132   0.924 -0.2030 -0.5196  0.5712
   39MOL   O15936715   5.474   6.055   0.928 -0.1102  0.1356 -0.2628
   39MOL   C16036716   5.598   6.250   1.010 -0.4276  0.5320 -0.2801
   39MOL   C16136717   5.499   6.364   0.977  0.1832 -1.0646  0.2948
   39MOL   C16236718   5.495   6.416   0.829  0.1450 -0.1297  0.1852
   39MOL   C16336719   5.394   6.531   0.797  0.2567 -0.7460  0.3855
   39MOL   C16436720   5.447   6.669   0.840 -0.4434  0.1605 -0.4172
   39MOL   O16536721   5.364   6.748   0.884 -0.6333 -0.4748 -0.0900
   39MOL   H16636722   5.236   5.694   7.685 -1.4498  0.1394  1.0019
   39MOL   H16736723   5.322   5.843   7.716  0.3616 -0.2589  0.0393
   39MOL   H16836724   5.397   5.632   0.072  2.8826  2.8822  1.0008
   39MOL   H16936725   5.257   5.628   0.167 -0.8854  0.0328 -0.4906
   39MOL   H17036726   5.320   5.858   0.257  0.0896  1.3462 -0.6814
   39MOL   H17136727   5.454   5.736   0.285 -1.3512 -2.0634 -0.6274
   39MOL   H17236728   5.467   5.957   0.066 -1.2795 -0.6302 -0.3108
   39MOL   H17336729   5.579   5.835   0.101  2.3997  1.9512  0.8947
   39MOL   H17436730   5.646   6.035   0.197  0.0788  1.0765  1.9950
   39MOL   H17536731   5.628   5.906   0.319  1.9802  0.9949 -0.9008
   39MOL   H17636732   5.392   6.024   0.376 -2.7904  4.8455  0.6899
   39MOL   H17736733   5.418   6.120   0.238 -1.3450  0.0914  0.9042
   39MOL   H17836734   5.435   6.246   0.453  0.6497  1.7166 -0.9452
   39MOL   H17936735   5.568   6.269   0.352 -1.7687  0.4266 -0.9386
   39MOL   H18036736   5.620   6.260   0.573  0.1551 -0.8012  0.1659
   39MOL   H18136737   5.716   6.138   0.488  0.3171  0.7363 -0.9562
   39MOL   H18236738   5.470   6.100   0.665 -0.0295 -2.4185  1.9418
   39MOL   H18336739   5.533   5.970   0.561  0.3698  0.7743 -0.9054
   39MOL   H18436740   5.760   6.026   0.666  0.3309  1.7716 -0.1175
   39MOL   H18536741   5.657   5.918   0.755 -0.4982  0.3243  1.3675
   39MOL   H18636742   5.615   6.224   1.114  1.9878  0.4010 -0.6815
   39MOL   H18736743   5.694   6.290   0.979 -0.2622  0.2459 -0.1305
   39MOL   H18836744   5.525   6.448   1.041  0.4346 -1.8076  1.1806
   39MOL   H18936745   5.401   6.339   1.017 -0.0972  0.7450  0.7560
   39MOL   H19036746   5.464   6.334   0.765  0.6875  0.0465 -0.3128
   39MOL   H19136747   5.599   6.440   0.805  0.5098  0.3213  2.1082
   39MOL   H19236748   5.298   6.525   0.849  0.6664  2.2360  1.5839
   39MOL   H19336749   5.372   6.545   0.691 -1.6072 -0.2753  0.8061
   39MOL   O19436750   5.580   6.693   0.813 -0.0200 -0.1851  0.2143
   39MOL   C19536751   5.638   6.802   0.872  0.0780 -0.0190 -0.7993
   39MOL   C19636752   5.777   6.775   0.933  0.2456 -0.6676  0.7847
   39MOL   C19736753   5.885   6.763   0.826  0.2573  0.3300 -0.0398
   39MOL   C19836754   6.020   6.744   0.886  0.1596 -0.5357 -0.6149
   39MOL   C19936755   6.143   6.738   0.786 -0.0610  0.5240 -0.1404
   39MOL   C20036756   6.287   6.757   0.849  0.7492 -0.0326 -0.1802
   39MOL   C20136757   6.317   6.651   0.957  0.1265  0.3059 -0.6756
   39MOL   C20236758   6.345   6.508   0.902 -1.1665 -0.3265 -0.0999
   39MOL   C20336759   6.378   6.414   1.024  0.3964 -0.3748 -0.0118
   39MOL   C20436760   6.412   6.272   0.986 -0.0001  0.1052  0.1740
   39MOL   O20536761   6.521   6.263   0.887  0.4192  0.3918 -0.3590
   39MOL   C20636762   6.647   6.230   0.922  0.2800 -0.0868  0.5547
   39MOL   O20736763   6.691   6.225   1.037  0.3446  0.5818  0.4053
   39MOL   C20836764   6.726   6.209   0.797 -1.0859  0.1024  0.4710
   39MOL   C20936765   6.759   6.352   0.745 -0.5832  0.2820 -0.4092
   39MOL   C21036766   6.704   6.374   0.606  0.6178 -0.4750 -0.0438
   39MOL   C21136767   6.747   6.499   0.527 -0.2047 -0.3148  0.5613
   39MOL   C21236768   6.728   6.632   0.597  0.0431  0.3787 -0.1830
   39MOL   O21336769   6.669   6.640   0.707  0.2491  0.5117  0.2523
   39MOL   H21436770   5.641   6.883   0.799  0.2019  0.0014 -0.7720
   39MOL   H21536771   5.574   6.831   0.956  2.1048 -1.5084  1.3419
   39MOL   H21636772   5.765   6.687   0.996  2.2837 -1.2986  0.3579
   39MOL   H21736773   5.798   6.858   1.001  1.8419 -0.4751  0.0863
   39MOL   H21836774   5.864   6.669   0.775  1.8966 -0.9757  1.6187
   39MOL   H21936775   5.882   6.838   0.746 -0.9986 -0.8178 -1.0910
   39MOL   H22036776   6.029   6.665   0.961  0.8892 -0.1431 -0.2870
   39MOL   H22136777   6.032   6.835   0.945 -2.0960 -0.3724 -0.3448
   39MOL   H22236778   6.116   6.811   0.710  1.2072  0.2007 -0.9128
   39MOL   H22336779   6.135   6.644   0.731  0.4562 -0.0935  0.8332
   39MOL   H22436780   6.295   6.858   0.889  1.2746  0.4895 -1.5807
   39MOL   H22536781   6.364   6.752   0.772  1.7662  1.5520  0.7151
   39MOL   H22636782   6.229   6.649   1.021  0.4664  0.5006 -0.1940
   39MOL   H22736783   6.405   6.674   1.017  1.5031 -0.9711 -2.1555
   39MOL   H22836784   6.427   6.508   0.830 -0.2504 -1.4788  0.9327
   39MOL   H22936785   6.259   6.473   0.844  0.6990  0.3818 -3.4213
   39MOL   H23036786   6.466   6.455   1.074 -0.6209 -0.3076  1.7678
   39MOL   H23136787   6.293   6.421   1.092  0.6795  0.0589  0.3014
   39MOL   H23236788   6.316   6.234   0.950 -0.7361  1.7348  0.3910
   39MOL   H23336789   6.442   6.210   1.071 -0.5824 -0.7572 -0.2370
   39MOL   H23436790   6.825   6.174   0.826 -0.9019  1.0044  0.9452
   39MOL   H23536791   6.681   6.140   0.726  2.6817 -1.1955 -0.7835
   39MOL   H23636792   6.867   6.347   0.733 -0.4598  0.2146  0.6554
   39MOL   H23736793   6.748   6.436   0.814  1.5045  0.1941  0.0524
   39MOL   H23836794   6.596   6.387   0.615  0.8397  1.7200 -0.2889
   39MOL   H23936795   6.715   6.283   0.548  0.1173 -0.3233 -0.3804
   39MOL   H24036796   6.683   6.488   0.440 -0.1375 -1.2338  0.6276
   39MOL   H24136797   6.848   6.494   0.485 -1.2922 -1.0434 -2.0373
   39MOL   O24236798   6.786   6.737   0.522  0.1923 -0.2183  0.8053
   39MOL   C24336799   6.805   6.861   0.578 -0.1619  0.2888  0.5831
   39MOL   C24436800   6.952   6.879   0.636 -0.7552 -0.2579 -0.2840
   39MOL   C24536801   6.990   7.013   0.701 -0.4445 -0.2670 -0.3269
   39MOL   C24636802   7.138   7.016   0.760 -0.8931  0.4139  0.9141
   39MOL   C24736803   7.151   7.123   0.869  0.3977 -0.4460 -0.3424
   39MOL   C24836804   7.091   7.090   1.002  0.1414 -0.1565 -0.0251
   39MOL   C24936805   7.100   7.200   1.110  0.4201 -0.2689  0.4241
   39MOL   C25036806   7.008   7.166   1.229  0.1725 -0.0367 -0.0358
   39MOL   C25136807   7.001   7.281   1.330  1.0835  0.5706  0.3836
   39MOL   C25236808   6.930   7.255   1.461  0.2785  0.2986 -0.7438
   39MOL   O25336809   6.909   7.375   1.532 -0.5467 -0.1615  0.1887
   39MOL   C25436810   7.008   7.440   1.611 -0.2450  0.7959 -0.3955
   39MOL   O25536811   7.124   7.403   1.631 -0.1082  0.5984  0.9538
   39MOL   C25636812   6.957   7.571   1.682  0.2840  0.3461  0.0816
   39MOL   C25736813   6.844   7.645   1.598  0.8158  0.2814  0.0451
   39MOL   C25836814   6.889   7.725   1.477 -0.1198 -0.1657  0.1668
   39MOL   C25936815   6.781   7.763   1.377 -0.4154  0.2990  0.7006
   39MOL   C26036816   6.728   7.644   1.284  0.6073  0.3297 -0.2466
   39MOL   O26136817   6.629   7.580   1.307 -0.0260  0.6355 -0.3383
   39MOL   H26236818   6.795   6.927   0.493 -1.4976 -2.4859 -1.4944
   39MOL   H26336819   6.720   6.883   0.643  0.0788  0.8416  0.7159
   39MOL   H26436820   7.022   6.845   0.560 -0.5648  1.2843 -0.8185
   39MOL   H26536821   6.976   6.805   0.712 -0.5713 -0.8015 -0.8599
   39MOL   H26636822   6.989   7.092   0.626  0.9649 -0.3678 -0.4697
   39MOL   H26736823   6.913   7.036   0.775 -1.3494  0.4057 -1.4646
   39MOL   H26836824   7.220   7.039   0.692 -0.4360 -0.9085  0.9820
   39MOL   H26936825   7.172   6.920   0.801  0.4078  0.3959 -0.1724
   39MOL   H27036826   7.126   7.225   0.840 -1.2822 -0.9188 -0.6256
   39MOL   H27136827   7.258   7.135   0.884  0.4972 -0.4180 -1.0434
   39MOL   H27236828   7.133   6.995   1.034  1.6827  0.0924 -1.2345
   39MOL   H27336829   6.984   7.079   0.982  0.1349 -2.6533  1.2746
   39MOL   H27436830   7.082   7.297   1.063  1.6835 -0.6816 -0.9701
   39MOL   H27536831   7.202   7.207   1.149  0.9599  1.3305 -1.1931
   39MOL   H27636832   7.043   7.080   1.286  1.2352  0.1162 -0.4513
   39MOL   H27736833   6.905   7.140   1.206 -0.6211  1.7293  1.4420
   39MOL   H27836834   7.102   7.314   1.355  1.4883 -0.3021 -0.0920
   39MOL   H27936835   6.954   7.369   1.285  0.7145  0.9751  1.5346
   39MOL   H28036836   6.991   7.182   1.515  0.1377  1.5465  1.1503
   39MOL   H28136837   6.835   7.205   1.438  1.9024 -2.5730 -1.4304
   39MOL   H28236838   6.918   7.534   1.776  0.0240  0.0939 -0.1254
   39MOL   H28336839   7.033   7.647   1.702 -0.0902  0.2394  1.9389
   39MOL   H28436840   6.797   7.712   1.670 -0.5396 -0.1351 -0.4416
   39MOL   H28536841   6.762   7.579   1.570 -1.1256  2.7274 -0.1882
   39MOL   H28636842   6.961   7.671   1.416 -1.5500 -0.0610 -1.6845
   39MOL   H28736843   6.936   0.050   1.517 -1.0600  0.7931 -0.8238
   39MOL   H28836844   6.819   0.079   1.315 -1.3285 -0.7423 -1.2768
   39MOL   H28936845   6.699   0.050   1.428 -0.4734  2.9601 -1.9473
   39MOL   O29036846   6.819   7.632   1.188 -0.2507  0.9936  0.2379
   39MOL   C29136847   6.790   7.538   1.082  1.2165  0.2393  0.6046
   39MOL   C29236848   6.903   7.525   0.978 -0.1769 -0.0703 -0.7065
   39MOL   C29336849   6.843   7.441   0.858  0.4541  0.5086 -0.0276
   39MOL   C29436850   6.941   7.451   0.737 -0.6794  0.2851  0.6485
   39MOL   C29536851   6.866   7.398   0.611 -0.5035  0.0224  0.5566
   39MOL   C29636852   6.958   7.364   0.493 -0.0782 -0.2440  0.3293
   39MOL   C29736853   7.011   7.476   0.403  0.2046  0.2267  0.4627
   39MOL   C29836854   6.904   7.563   0.346  0.6966  0.5142  0.8885
   39MOL   C29936855   6.939   7.658   0.234 -0.7216 -0.0407  1.2194
   39MOL   C30036856   6.998   0.030   0.283 -0.2182 -0.4559  0.2133
   39MOL   O30136857   6.932   0.087   0.395  0.2056 -0.1664 -0.7343
   39MOL   C30236858   6.974   0.205   0.437  0.2256  0.0383  0.3240
   39MOL   O30336859   7.066   0.266   0.383 -0.0584  0.1416 -0.4094
   39MOL   C30436860   6.901   0.263   0.561 -0.6553 -0.7225 -0.0708
   39MOL   C30536861   6.745   0.277   0.553 -0.6748 -0.2561 -0.2868
   39MOL   C30636862   6.674   0.140   0.545  0.1191 -0.4390 -0.2776
   39MOL   C30736863   6.662   0.061   0.678 -0.8155  1.2306 -0.5551
   39MOL   C30836864   6.552   7.715   0.662  1.1605 -0.4997 -0.2809
   39MOL   O30936865   6.436   7.744   0.682 -0.6451  0.8932  0.2177
   39MOL   H31036866   6.769   7.446   1.137 -1.3711  1.9137  2.5616
   39MOL   H31136867   6.701   7.575   1.031 -0.2911  0.0441  3.0369
   39MOL   H31236868   6.993   7.485   1.025 -0.7495 -0.2361  0.2518
   39MOL   H31336869   6.931   7.626   0.949 -0.7901  0.2078 -0.3418
   39MOL   H31436870   6.834   7.336   0.885  0.6164  0.6158  0.4420
   39MOL   H31536871   6.755   7.491   0.817  1.0619  2.0661  0.5074
   39MOL   H31636872   7.028   7.387   0.749 -1.6044 -0.9975  0.5634
   39MOL   H31736873   6.981   7.551   0.723  0.9087 -0.5298 -0.8845
   39MOL   H31836874   6.790   7.469   0.577 -0.7558  0.0533  1.1917
   39MOL   H31936875   6.817   7.306   0.641 -0.7747  0.1090  0.3788
   39MOL   H32036876   6.904   7.287   0.438 -1.8052  1.0129  0.2537
   39MOL   H32136877   7.048   7.319   0.535 -0.5902  1.0172  2.8820
   39MOL   H32236878   7.076   7.430   0.328  0.6002  2.0791 -0.3623
   39MOL   H32336879   7.074   7.542   0.463  0.8106  0.3599 -0.3081
   39MOL   H32436880   6.854   7.616   0.428 -2.0836  1.1004 -1.0794
   39MOL   H32536881   6.819   7.502   0.315  1.9347 -1.5058  1.3742
   39MOL   H32636882   7.012   7.612   0.166 -3.1492  0.7641 -2.0821
   39MOL   H32736883   6.859   7.676   0.162  0.2813 -2.5312 -0.6128
   39MOL   H32836884   7.006   0.103   0.202  1.2943 -0.0938  0.6643
   39MOL   H32936885   7.105   0.022   0.302 -0.1890  1.6891  1.0566
   39MOL   H33036886   6.915   0.190   0.642 -0.9708 -0.5699  0.1214
   39MOL   H33136887   6.936   0.364   0.582 -0.0342 -1.0643  0.5937
   39MOL   H33236888   6.720   0.331   0.462 -0.7436 -0.4760 -0.3992
   39MOL   H33336889   6.702   0.345   0.627 -1.4822 -2.1763  1.0510
   39MOL   H33436890   6.714   0.075   0.468 -2.1880  2.1918 -3.8562
   39MOL   H33536891   6.572   0.166   0.516  0.7534  1.0239 -1.2537
   39MOL   H33636892   6.647   0.127   0.764 -0.4911  0.6933 -0.0817
   39MOL   H33736893   6.756   0.009   0.696 -0.7881  0.8714 -1.7001
   39MOL   O33836894   6.603   7.606   0.619  0.1820 -0.3838 -0.3867
   39MOL   C33936895   6.511   7.497   0.579 -0.1114 -0.6149  0.1428
   39MOL   C34036896   6.498   7.489   0.430 -0.0916 -0.1965  0.0872
   39MOL   C34136897   6.406   7.375   0.375 -0.3269  0.0061  0.5012
   39MOL   C34236898   6.334   7.418   0.251 -0.0025  0.5907  0.5378
   39MOL   C34336899   6.427   7.454   0.137 -0.2452  0.2966 -0.3218
   39MOL   C34436900   6.359   7.459   0.004 -0.7169  1.1273 -0.3031
   39MOL   C34536901   6.449   7.533   7.667  0.0062 -0.5226 -0.0296
   39MOL   C34636902   6.374   7.631   7.567  0.0881  0.4583 -0.3795
   39MOL   C34736903   6.297   7.745   7.631  0.2293  0.0719 -0.0818
   39MOL   C34836904   6.156   0.019   7.589  0.4778 -0.1810  0.2219
   39MOL   O34936905   6.067   7.678   7.615 -0.2770  0.1191  0.0953
   39MOL   C35036906   5.947   7.689   7.568 -0.4313 -0.5429 -0.3247
   39MOL   O35136907   5.903   0.022   7.507 -0.5963  0.3299  0.3243
   39MOL   C35236908   5.868   7.566   7.594  0.0576  0.2086  0.0922
   39MOL   C35336909   5.724   7.592   7.628  0.8086 -0.2895 -0.5893
   39MOL   C35436910   5.640   7.461   7.629 -0.2103 -0.1167  0.2146
   39MOL   C35536911   5.493   7.484   7.643  0.8015 -0.2901 -0.4745
   39MOL   C35636912   5.421   7.544   7.520  0.2020  0.3072  0.0910
   39MOL   O35736913   5.419   7.669   7.502  0.1266  0.4690  0.3173
   39MOL   H35836914   6.552   7.402   0.613  0.2728 -1.2566 -2.0413
   39MOL   H35936915   6.416   7.511   0.630  1.3299  3.2416  1.9857
   39MOL   H36036916   6.592   7.494   0.375  0.4435  2.9450  1.1719
   39MOL   H36136917   6.451   7.587   0.419 -0.5524 -0.5418 -1.0824
   39MOL   H36236918   6.478   7.296   0.351 -0.8429 -0.8587  1.7316
   39MOL   H36336919   6.331   7.334   0.443  0.1307 -1.5121  0.1093
   39MOL   H36436920   6.277   7.506   0.280 -0.1950  0.6829 -0.1135
   39MOL   H36536921   6.264   7.336   0.230 -1.6904  1.7339  1.5706
   39MOL   H36636922   6.499   7.372   0.131 -0.9396 -0.5067  1.9126
   39MOL   H36736923   6.484   7.544   0.159 -1.5988  0.6128  2.0470
   39MOL   H36836924   6.261   7.506   0.014 -1.6900 -0.8350 -0.4110
   39MOL   H36936925   6.350   7.357   7.733  1.1835 -0.4369  3.3877
   39MOL   H37036926   6.492   7.450   7.611  0.5181 -0.2623 -0.0250
   39MOL   H37136927   6.524   7.594   7.718 -0.6048 -0.0338  0.2863
   39MOL   H37236928   6.310   7.579   7.495  1.4467 -0.4687 -0.9359
   39MOL   H37336929   6.456   7.673   7.508  1.1299  1.9466  2.0548
   39MOL   H37436930   6.293   7.734   7.739 -1.2214  2.9286  0.2133
   39MOL   H37536931   6.357   0.071   7.618  1.3820 -0.6291  0.2952
   39MOL   H37636932   6.165   0.049   7.484  3.2536  0.7670  0.6821
   39MOL   H37736933   6.124   0.105   7.649  1.0160 -0.0090  0.2657
   39MOL   H37836934   5.868   7.500   7.507 -0.7989  0.3174  0.0044
   39MOL   H37936935   5.908   7.521   7.685  1.4524  1.2700  0.0202
   39MOL   H38036936   5.680   7.664   7.558 -0.6353  0.4003  0.9797
   39MOL   H38136937   5.714   7.642   7.725  2.8295 -2.2350  0.6648
   39MOL   H38236938   5.673   7.388   7.702 -0.9170  1.0540  1.7223
   39MOL   H38336939   5.659   7.407   7.536 -0.2452  0.7399 -0.2933
   39MOL   H38436940   5.460   7.540   7.730  0.6010 -1.0690 -0.0469
   39MOL   H38536941   5.447   7.386   7.654 -1.8052  1.0596  1.2499
   39MOL   O38636942   5.379   7.444   7.444 -0.0784 -0.3604 -1.0813
   39MOL   C38736943   5.327   7.472   7.319 -0.0599  0.3011 -0.2949
   39MOL   C38836944   5.177   7.494   7.310  0.0876 -0.2787  0.6787
   39MOL   C38936945   5.104   7.618   7.383 -0.0017  0.0054  0.4489
   39MOL   C39036946   4.953   7.629   7.358  0.0162  0.4932  0.7624
   39MOL   C39136947   4.870   7.511   7.404  0.2311 -0.4272  0.2595
   39MOL   C39236948   4.808   7.515   7.550  0.1898 -0.1004  0.2091
   39MOL   C39336949   4.721   7.383   7.564 -0.2247  0.2026 -1.0211
   39MOL   C39436950   4.638   7.395   7.687  0.0948  0.6620 -0.0703
   39MOL   C39536951   4.707   7.407   0.059  0.0297  0.1332  0.3305
   39MOL   C39636952   4.614   7.437   0.173  0.1019  0.0874  0.3551
   39MOL   O39736953   4.677   7.407   0.303 -0.0618 -0.1200  0.4296
   39MOL   C39836954   4.688   7.511   0.394  0.2219  0.0463  0.7737
   39MOL   O39936955   4.651   7.628   0.391  0.1209 -0.1977 -0.0916
   39MOL   C40036956   4.764   7.464   0.521 -0.1708 -0.1028  0.0376
   39MOL   C40136957   4.883   7.380   0.484  0.2922  1.0232  0.0385
   39MOL   C40236958   4.977   7.430   0.376  0.3035  0.9935  0.1890
   39MOL   C40336959   5.074   7.547   0.402  0.6671  1.0781  0.0200
   39MOL   C40436960   5.181   7.522   0.501  0.3629  0.5034  0.1135
   39MOL   O40536961   5.300   7.494   0.462  0.2442 -0.6864 -0.1406
   39MOL   H40636962   5.384   7.559   7.287 -4.1392  2.5050 -1.8578
   39MOL   H40736963   5.371   7.394   7.257  0.4217 -1.7106  2.4841
   39MOL   H40836964   5.131   7.405   7.353 -2.7898  0.6107 -0.4461
   39MOL   H40936965   5.139   7.489   7.208 -0.7153  1.3502  0.8933
   39MOL   H41036966   5.126   7.618   7.490  0.2451  0.3481  0.4002
   39MOL   H41136967   5.140   7.708   7.334 -0.3136  0.2232  0.6192
   39MOL   H41236968   4.934   7.639   7.251  0.9855 -0.8675  0.4469
   39MOL   H41336969   4.926   7.725   7.402 -1.4009 -1.0903  3.4153
   39MOL   H41436970   4.924   7.421   7.375  0.5866 -0.3292  0.6117
   39MOL   H41536971   4.780   7.508   7.341  0.5915 -0.6041 -0.2463
   39MOL   H41636972   4.742   7.602   7.542  1.8465  1.0339 -1.8509
   39MOL   H41736973   4.888   7.531   7.622  0.5055 -0.1866 -0.1204
   39MOL   H41836974   4.787   7.299   7.586 -2.0301 -0.6041  1.6348
   39MOL   H41936975   4.669   7.352   7.474  0.7146 -0.8176 -1.2292
   39MOL   H42036976   4.558   7.322   7.692  0.5803  0.1027 -0.4167
   39MOL   H42136977   4.580   7.486   7.671 -0.2665  0.4067 -0.2206
   39MOL   H42236978   4.760   7.313   0.077 -3.0544 -1.7068  0.1118
   39MOL   H42336979   4.779   7.488   0.047 -1.1643  0.9207 -1.9306
   39MOL   H42436980   4.527   7.371   0.166 -0.1602  0.2232  2.0503
   39MOL   H42536981   4.572   7.537   0.164 -2.1692 -0.5510  3.0122
   39MOL   H42636982   4.808   7.557   0.557  0.0987  0.0089 -0.5659
   39MOL   H42736983   4.703   7.404   0.588  1.9213 -3.4776 -0.9242
   39MOL   H42836984   4.841   7.282   0.462  0.5172  1.3852 -2.1705
   39MOL   H42936985   4.948   7.372   0.571  2.1026  1.3184 -1.2477
   39MOL   H43036986   4.927   7.453   0.281  1.2590  0.7650 -0.3694
   39MOL   H43136987   5.043   7.347   0.352 -0.1540  0.3917  0.9926
   39MOL   H43236988   5.023   7.642   0.422 -0.6599  0.5285 -0.6777
   39MOL   H43336989   5.117   7.572   0.305 -2.5205  0.9211 -1.4983
   39MOL   O43436990   5.138   7.508   0.626 -0.0558  0.2971 -0.2287
   39MOL   C43536991   5.223   7.462   0.719 -0.2633  0.0692 -0.4321
   39MOL   C43636992   5.148   7.475   0.851 -0.1700 -0.5023  0.0266
   39MOL   C43736993   5.114   7.624   0.885  0.2765  0.2448 -0.1024
   39MOL   C43836994   5.230   7.723   0.894  1.2162  0.2179  0.0700
   39MOL   C43936995   5.262   0.029   0.752 -0.8703  0.6520 -0.2608
   39MOL   C44036996   5.346   0.155   0.752  0.2803  0.2321  0.0679
   39MOL   C44136997   5.385   0.198   0.610 -0.5437 -0.2417 -0.6297
   39MOL   C44236998   5.422   0.341   0.606  0.0103  0.0033  0.4651
   39MOL   C44336999   5.490   0.374   0.472 -0.8760  0.3655 -0.0287
   39MOL   C44437000   5.527   0.526   0.473  0.3408 -0.0633 -0.3372
   39MOL   O44537001   5.565   0.560   0.338  0.3371 -0.2953 -0.7918
   39MOL   C44637002   5.642   0.668   0.317 -0.2022 -0.4008  0.2835
   39MOL   O44737003   5.701   0.732   0.408 -0.4688  0.4568  0.5774
   39MOL   C44837004   5.663   0.696   0.177 -0.1448 -0.1121 -0.7007
   39MOL   C44937005   5.728   0.577   0.104  0.4593 -0.2611  0.2718
   39MOL   C45037006   5.858   0.518   0.168  0.0263  0.9398  0.2027
   39MOL   C45137007   5.933   0.416   0.075  0.1698 -0.5177 -0.0255
   39MOL   C45237008   5.852   0.284   0.050 -0.0044  1.2866 -0.0841
   39MOL   O45337009   5.897   0.173   0.087 -0.3581 -0.1917  0.3248
   39MOL   H45437010   5.244   7.356   0.707 -1.0430  0.0712 -2.0294
   39MOL   H45537011   5.316   7.518   0.727 -0.1531 -0.3731  1.6518
   39MOL   H45637012   5.224   7.445   0.923 -0.9700 -0.9139  0.7117
   39MOL   H45737013   5.064   7.406   0.847  2.0303 -3.4096  1.8821
   39MOL   H45837014   5.029   7.665   0.830 -0.1638 -1.7658 -0.9830
   39MOL   H45937015   5.080   7.628   0.988  2.9602  1.8594  0.7603
   39MOL   H46037016   5.320   7.674   0.932  1.0134 -0.3280 -0.1621
   39MOL   H46137017   5.203   0.040   0.961  0.8571  0.4102 -0.3015
   39MOL   H46237018   5.169   0.061   0.706 -2.1078 -2.2006  0.1575
   39MOL   H46337019   5.313   7.734   0.676  0.3484  2.2336 -0.7272
   39MOL   H46437020   5.432   0.133   0.815  1.0594  1.2533 -0.6276
   39MOL   H46537021   5.285   0.232   0.798  0.1261 -0.7578  1.5722
   39MOL   H46637022   5.297   0.187   0.547 -1.3515 -1.1145  0.6178
   39MOL   H46737023   5.456   0.129   0.565  1.1884  2.4495 -2.1111
   39MOL   H46837024   5.493   0.369   0.683  0.3093  1.6274 -0.3791
   39MOL   H46937025   5.333   0.403   0.617 -0.8376 -1.3447  1.3399
   39MOL   H47037026   5.581   0.317   0.451 -2.0860 -2.4645  2.0046
   39MOL   H47137027   5.429   0.351   0.385 -2.4389  2.2888  0.5148
   39MOL   H47237028   5.617   0.547   0.530  1.7880  2.8105 -3.5055
   39MOL   H47337029   5.446   0.587   0.514  0.5431  0.5377 -0.8343
   39MOL   H47437030   5.565   0.716   0.133 -0.4690  0.9935  0.4991
   39MOL   H47537031   5.725   0.786   0.172  1.5439 -1.2427 -0.5680
   39MOL   H47637032   5.745   0.597   7.763  0.6521  1.0957  0.5577
   39MOL   H47737033   5.650   0.500   0.109  1.3179 -1.1070  0.7564
   39MOL   H47837034   5.825   0.460   0.254 -2.4274  0.6843 -0.8693
   39MOL   H47937035   5.936   0.580   0.211  1.7595 -0.4470 -0.8516
   39MOL   H48037036   6.029   0.389   0.118  0.6949  1.1036 -0.1409
   39MOL   H48137037   5.967   0.462   7.746  0.6503  0.7574  0.7684
   39MOL   O48237038   5.747   0.304   7.749  0.5825 -0.0071  0.1914
   39MOL   C48337039   5.649   0.200   7.731 -0.0221 -0.5150  0.0883
   39MOL   C48437040   5.556   0.257   7.619 -0.4794 -0.2422  0.6065
   39MOL   C48537041   5.469   0.374   7.664 -0.1911 -0.6596 -0.5512
   39MOL   C48637042   5.370   0.327   0.005  0.1363  0.2467  0.4155
   39MOL   C48737043   5.298   0.447   0.074 -0.3821  0.4506 -0.3826
   39MOL   C48837044   5.207   0.408   0.189  0.5725  1.0522 -0.2133
   39MOL   C48937045   5.134   0.528   0.260  0.0597  0.6910  0.2657
   39MOL   C49037046   5.042   0.489   0.375  0.3990  0.2888 -0.7629
   39MOL   C49137047   4.958   0.612   0.424 -0.4605  0.4060  0.6815
   39MOL   C49237048   4.872   0.584   0.549 -0.2573 -0.1725 -0.5698
   39MOL   O49337049   4.976   0.569   0.645  0.2343  0.0094 -0.3466
   39MOL   C49437050   4.942   0.563   0.777  0.1255  0.4876 -0.2030
   39MOL   O49537051   4.821   0.553   0.816  0.2624 -0.3884  0.3065
   39MOL   C49637052   5.064   0.543   0.861  0.3114 -0.0389  0.1657
   39MOL   C49737053   5.040   0.571   1.011 -0.1368 -0.5085 -0.4748
   39MOL   C49837054   4.964   0.475   1.093 -0.5232 -0.0018 -0.3450
   39MOL   C49937055   4.933   0.526   1.234 -1.1581  0.2312  0.3502
   39MOL   C50037056   4.788   0.572   1.251 -0.0640  0.1922 -0.2182
   39MOL   O50137057   4.714   0.520   1.336  0.0831  0.3876  0.4910
   39MOL   H50237058   5.688   0.109   7.684 -1.2591 -0.0677 -1.8687
   39MOL   H50337059   5.608   0.167   0.061  1.3971  1.1613  1.3219
   39MOL   H50437060   5.484   0.182   7.586 -0.1354 -1.0067  1.5634
   39MOL   H50537061   5.616   0.297   7.538  0.9271  1.4846  2.4408
   39MOL   H50637062   5.522   0.455   7.715 -1.5773 -1.2303  1.8645
   39MOL   H50737063   5.431   0.420   7.572  0.7282  1.8010  0.2379
   39MOL   H50837064   5.424   0.275   0.084  1.4494  1.4189  0.3139
   39MOL   H50937065   5.295   0.255   7.735 -0.2515 -0.3565  2.4482
   39MOL   H51037066   5.232   0.494   0.000  1.5604  1.9169 -1.2506
   39MOL   H51137067   5.361   0.523   0.120 -2.4266  2.5557 -0.9180
   39MOL   H51237068   5.258   0.350   0.266 -1.3596  0.1294  0.3992
   39MOL   H51337069   5.133   0.340   0.147 -0.1291  1.3816  0.4719
   39MOL   H51437070   5.086   0.592   0.186 -1.3571 -0.0611  0.5127
   39MOL   H51537071   5.205   0.598   0.303  1.6679 -0.2769 -0.7812
   39MOL   H51637072   5.100   0.454   0.460 -1.7063  0.4346  0.7791
   39MOL   H51737073   4.970   0.410   0.357  1.2731 -1.2722  2.2808
   39MOL   H51837074   5.016   0.700   0.450  0.2942 -0.0848  0.6848
   39MOL   H51937075   4.894   0.637   0.339 -0.3548 -0.0549  0.4648
   39MOL   H52037076   4.810   0.494   0.545 -0.0171 -0.3055 -1.3331
   39MOL   H52137077   4.814   0.675   0.564 -2.0330 -1.2045 -0.9569
   39MOL   H52237078   5.106   0.446   0.835 -0.3539 -0.1065 -0.6845
   39MOL   H52337079   5.141   0.611   0.824 -0.6931  1.2669  0.4539
   39MOL   H52437080   4.992   0.669   1.017 -1.1882 -1.1087  1.4746
   39MOL   H52537081   5.135   0.588   1.061 -0.9065  1.3808  0.3756
   39MOL   H52637082   5.028   0.388   1.107  1.5219  1.6806  1.0446
   39MOL   H52737083   4.867   0.448   1.052  0.5091 -1.9144 -1.5737
   39MOL   H52837084   4.993   0.607   1.275 -0.3146  0.1832 -0.7546
   39MOL   H52937085   4.939   0.437   1.297  0.0244 -1.2483 -1.7870
   39MOL   O53037086   4.765   0.672   1.175 -0.8671 -0.1682 -0.0962
   39MOL   C53137087   4.654   0.749   1.168 -0.1800 -0.6198 -0.0281
   39MOL   C53237088   4.665   0.839   1.046  0.3581  0.1487 -0.3928
   39MOL   C53337089   4.760   0.949   1.075 -0.7876 -0.5413  0.6831
   39MOL   C53437090   4.772   1.055   0.963 -0.5007  0.0263 -0.6831
   39MOL   C53537091   4.866   1.173   0.992  0.2656 -0.0959  0.1802
   39MOL   C53637092   4.799   1.286   1.069  0.3371  0.0816 -0.0720
   39MOL   C53737093   4.902   1.398   1.081 -0.5570 -0.6671  0.1456
   39MOL   C53837094   4.840   1.531   1.133 -0.2326  0.0027  0.3226
   39MOL   C53937095   4.944   1.647   1.159  0.4604 -0.2959 -0.3843
   39MOL   C54037096   4.891   1.784   1.205  0.3974 -0.1253  0.0524
   39MOL   O54137097   5.010   1.854   1.247 -0.2120  0.5256  0.0042
   39MOL   C54237098   5.014   1.982   1.259  1.2068  0.6305  0.5878
   39MOL   O54337099   4.916   2.056   1.248  0.1025  0.3803  0.0772
   39MOL   C54437100   5.149   2.041   1.298  0.5467 -0.0236 -0.7973
   39MOL   C54537101   5.202   1.990   1.439  0.1371  0.2650  0.1340
   39MOL   C54637102   5.109   2.017   1.559  0.3388  0.6712  0.0189
   39MOL   C54737103   5.162   1.973   1.700 -1.0778 -0.1853  0.3283
   39MOL   C54837104   5.252   2.076   1.755  0.2261 -0.6449 -0.3117
   39MOL   O54937105   5.278   2.184   1.703  0.5225 -0.2790  0.2750
   39MOL   H55037106   4.570   0.681   1.158  0.0606 -1.4282  3.0722
   39MOL   H55137107   4.640   0.799   1.264  2.2541  0.7604 -0.3463
   39MOL   H55237108   4.567   0.885   1.038 -0.7013 -1.1912  3.9043
   39MOL   H55337109   4.694   0.789   0.953  0.8614  0.6214 -0.4914
   39MOL   H55437110   4.732   0.997   1.169  3.7459  2.3290  0.7501
   39MOL   H55537111   4.861   0.907   1.085 -1.3843 -2.5385 -1.2964
   39MOL   H55637112   4.672   1.091   0.939 -1.5643 -1.6562  1.0855
   39MOL   H55737113   4.803   0.999   0.874 -0.2389 -0.3373 -0.3658
   39MOL   H55837114   4.900   1.215   0.898 -1.0350  0.0563 -0.2310
   39MOL   H55937115   4.961   1.143   1.036 -0.3159 -1.6006  0.4491
   39MOL   H56037116   4.771   1.251   1.169 -0.9624 -1.1769 -0.8543
   39MOL   H56137117   4.713   1.321   1.012 -0.7987 -0.3728  1.3275
   39MOL   H56237118   4.939   1.415   0.980  0.2709 -0.7827  0.4207
   39MOL   H56337119   4.984   1.375   1.149 -2.0097  0.8428  2.4844
   39MOL   H56437120   4.776   1.517   1.221  1.0432 -0.6751  1.1569
   39MOL   H56537121   4.766   1.569   1.062 -0.1825  3.2625  1.8843
   39MOL   H56637122   5.020   1.611   1.228 -0.9179 -1.7382  0.4252
   39MOL   H56737123   5.010   1.662   1.074 -0.2659 -2.6819 -1.4125
   39MOL   H56837124   4.816   1.788   1.284 -0.9698  2.4928 -1.2876
   39MOL   H56937125   4.843   1.834   1.121  0.1814  0.1139  0.3203
   39MOL   H57037126   5.217   2.030   1.214 -1.3249  0.1329 -2.3624
   39MOL   H57137127   5.140   2.150   1.303  0.0259 -0.1234  0.7879
   39MOL   H57237128   5.282   2.060   1.464  0.0814 -0.2764  1.8936
   39MOL   H57337129   5.237   1.887   1.447 -0.9854 -0.3673 -2.5759
   39MOL   H57437130   5.008   1.980   1.547 -0.7526  3.7593 -0.6846
   39MOL   H57537131   5.088   2.123   1.555  0.5088  0.6759 -1.0738
   39MOL   H57637132   5.219   1.883   1.676  0.3238  1.3510 -2.2758
   39MOL   H57737133   5.077   1.942   1.761 -0.5918 -3.2770 -0.4590
   39MOL   O57837134   5.295   2.044   1.886 -0.4032  0.6075  0.4228
   39MOL   C57937135   5.363   2.142   1.961 -0.6922  0.9238 -0.0249
   39MOL   C58037136   5.514   2.148   1.940 -0.4302 -0.1210 -0.3287
   39MOL   C58137137   5.583   2.266   2.007  0.4039  0.1384 -0.8167
   39MOL   C58237138   5.728   2.270   1.971 -0.0528 -0.4404  0.0197
   39MOL   C58337139   5.791   2.400   2.000  0.2677  0.2251  0.2015
   39MOL   C58437140   5.934   2.414   1.952 -0.1647 -0.4493 -0.3183
   39MOL   C58537141   6.006   2.535   2.017  0.0835 -0.3773  0.3667
   39MOL   C58637142   6.165   2.525   2.019 -0.4273  0.2654  0.4307
   39MOL   C58737143   6.212   2.581   1.885  0.1683 -0.3598  0.0709
   39MOL   C58837144   6.362   2.571   1.874 -0.3892 -0.3342  0.0170
   39MOL   O58937145   6.441   2.645   1.967 -0.4351  0.1584  0.4425
   39MOL   C59037146   6.574   2.629   1.968 -0.3835  0.1639  0.1674
   39MOL   O59137147   6.644   2.552   1.896  0.0105 -0.4676 -0.1991
   39MOL   C59237148   6.640   2.693   2.090 -0.5273 -0.7084  0.2563
   39MOL   C59337149   6.636   2.600   2.210  0.9691 -0.6118 -0.3978
   39MOL   C59437150   6.678   2.657   2.351  0.7853 -0.0865 -0.0345
   39MOL   C59537151   6.657   2.568   2.469  0.3382  0.5193  0.5468
   39MOL   C59637152   6.758   2.603   2.576 -0.7457  0.6299 -0.7335
   39MOL   O59737153   6.716   2.639   2.688 -0.1671  0.2428 -0.1462
   39MOL   H59837154   5.313   2.238   1.949 -0.7008  1.2950  2.5808
   39MOL   H59937155   5.337   2.117   2.064 -0.7576  0.2859 -0.1967
   39MOL   H60037156   5.533   2.138   1.833 -1.6075  2.8271 -0.8638
   39MOL   H60137157   5.547   2.054   1.985  0.0110  0.7950  1.3210
   39MOL   H60237158   5.530   2.355   1.972 -1.6005 -0.9576 -0.6841
   39MOL   H60337159   5.568   2.275   2.115 -2.6883  0.7144 -1.2364
   39MOL   H60437160   5.745   2.245   1.867 -0.0110  1.6111 -0.4840
   39MOL   H60537161   5.764   2.190   2.037 -2.1651  0.1969  2.0033
   39MOL   H60637162   5.790   2.424   2.107  0.6992  3.1141 -0.4251
   39MOL   H60737163   5.740   2.476   1.941  1.7274  0.1487 -1.1840
   39MOL   H60837164   5.944   2.423   1.844  0.7621  0.3021 -0.1752
   39MOL   H60937165   5.983   2.324   1.991  0.1503  0.4303  1.3390
   39MOL   H61037166   5.983   2.534   2.124  0.5081  0.4491  0.4639
   39MOL   H61137167   5.969   2.635   1.996 -0.6067 -0.9739 -1.3372
   39MOL   H61237168   6.190   2.419   2.017 -1.0611  0.1151  0.3221
   39MOL   H61337169   6.213   2.565   2.108 -0.2884  2.2519 -0.5159
   39MOL   H61437170   6.170   2.531   1.798  1.8079  3.3259 -2.9887
   39MOL   H61537171   6.174   2.683   1.876 -0.5825 -0.5179  1.3366
   39MOL   H61637172   6.397   2.599   1.775 -0.4054 -0.7016 -0.0901
   39MOL   H61737173   6.389   2.466   1.885  1.1458  0.0769  0.3410
   39MOL   H61837174   6.733   2.733   2.048 -1.5470  0.1455 -1.2115
   39MOL   H61937175   6.573   2.776   2.110 -0.3198 -1.1361  2.8616
   39MOL   H62037176   6.694   2.511   2.186  0.4499 -1.5288  1.5965
   39MOL   H62137177   6.531   2.573   2.222  1.1742 -0.9216  0.8171
   39MOL   H62237178   6.611   2.741   2.365  0.3817 -0.3825 -0.1708
   39MOL   H62337179   6.781   2.693   2.347  1.6136 -2.3329  0.2129
   39MOL   H62437180   6.691   2.466   2.451  2.3717  1.3990 -0.8099
   39MOL   H62537181   6.556   2.584   2.507 -0.5736 -0.3371 -1.4554
   39MOL   O62637182   6.889   2.577   2.547 -0.2237 -0.0333  0.7758
   39MOL   C62737183   6.997   2.605   2.637 -0.1299  0.0926  0.0163
   39MOL   C62837184   7.058   2.746   2.609  0.3767  0.9693 -0.0332
   39MOL   C62937185   7.146   2.743   2.489 -1.4803 -0.2137  0.9706
   39MOL   C63037186   7.242   2.857   2.500  0.5622  0.2639  0.1043
   39MOL   C63137187   7.351   2.873   2.392 -0.1883 -0.2133  0.0511
   39MOL   C63237188   7.466   2.771   2.401  0.0868  0.3855 -0.2677
   39MOL   C63337189   7.555   2.764   2.528 -0.6543 -0.0381 -0.4366
   39MOL   C63437190   7.674   2.679   2.517 -0.0077 -0.5734  0.5005
   39MOL   C63537191   0.019   2.693   2.631  0.0417 -0.4931  0.2723
   39MOL   C63637192   0.100   2.559   2.655 -0.5555 -0.1553 -0.9119
   39MOL   O63737193   0.167   2.540   2.530  0.3170  0.1427  0.7279
   39MOL   C63837194   0.245   2.432   2.513  0.1307 -0.0425 -1.0196
   39MOL   O63937195   0.275   2.346   2.595 -0.2981  0.6333 -0.3075
   39MOL   C64037196   0.281   2.422   2.370  0.8888  0.0522 -0.0610
   39MOL   C64137197   0.424   2.461   2.345  0.0782  0.0658  0.4972
   39MOL   C64237198   0.483   2.428   2.202 -0.2585 -0.1965  0.3225
   39MOL   C64337199   0.632   2.458   2.183 -0.5875  0.3042  0.1320
   39MOL   C64437200   0.667   2.607   2.188  0.1757 -0.1275  0.5739
   39MOL   O64537201   0.748   2.644   2.272 -0.3882 -0.6306 -0.0942
   39MOL   H64637202   6.953   2.605   2.737 -0.7637 -0.5454 -0.2551
   39MOL   H64737203   7.065   2.521   2.623  0.9292  0.6783  1.4706
   39MOL   H64837204   7.127   2.758   2.693  1.7528 -0.2196 -0.9738
   39MOL   H64937205   6.979   2.820   2.622 -1.3291 -0.8130 -0.0227
   39MOL   H65037206   7.199   2.650   2.470  0.0443  0.8420  0.0100
   39MOL   H65137207   7.086   2.747   2.398 -0.3890 -0.7659  0.2245
   39MOL   H65237208   7.296   2.846   2.594 -1.3409  1.8197  1.4346
   39MOL   H65337209   7.183   2.949   2.505  0.8939  0.4728  0.1980
   39MOL   H65437210   7.406   2.966   2.398  0.0049 -0.3567  0.5622
   39MOL   H65537211   7.317   2.884   2.289 -0.8588 -1.3214  0.1360
   39MOL   H65637212   7.532   2.791   2.316 -0.1148 -0.9695 -0.7479
   39MOL   H65737213   7.418   2.675   2.381  2.0546 -0.7356  0.3588
   39MOL   H65837214   7.497   2.737   2.616  1.0298  1.6063  1.2294
   39MOL   H65937215   7.584   2.868   2.548  0.0237  0.2057 -2.5524
   39MOL   H66037216   7.726   2.678   2.421 -3.0259 -4.0346 -1.1908
   39MOL   H66137217   7.637   2.577   2.529  1.4473 -1.4115 -1.8413
   39MOL   H66237218   0.078   2.782   2.610  0.7556 -1.3543 -1.4866
   39MOL   H66337219   7.730   2.716   2.724  1.8169 -0.1882  1.2347
   39MOL   H66437220   0.033   2.476   2.678 -0.6156 -0.1907 -1.2207
   39MOL   H66537221   0.166   2.571   2.741  1.1971 -1.3193 -2.0744
   39MOL   H66637222   0.264   2.316   2.352  1.0329 -0.0004  0.1050
   39MOL   H66737223   0.214   2.475   2.302 -0.5252  1.8715  2.6316
   39MOL   H66837224   0.497   2.444   2.424 -0.3323  2.1665  1.3633
   39MOL   H66937225   0.439   2.569   2.341 -0.0632  0.0844  0.4510
   39MOL   H67037226   0.429   2.488   2.128  2.7231  0.4104 -1.4454
   39MOL   H67137227   0.459   2.324   2.185  0.1618 -0.5210  1.6385
   39MOL   H67237228   0.667   2.413   2.090  0.9163 -2.0701  1.7818
   39MOL   H67337229   0.679   2.411   2.269 -2.1362 -0.8849  0.3481
   39MOL   O67437230   0.604   2.682   2.095 -0.7222  0.4462 -0.2720
   39MOL   C67537231   0.641   2.818   2.079  0.1883 -0.0007 -0.1379
   39MOL   C67637232   0.527   2.908   2.111 -0.2939 -0.1472  0.1571
   39MOL   C67737233   0.555   3.051   2.105  0.5534 -0.4938 -0.0323
   39MOL   C67837234   0.427   3.136   2.115  0.3186 -0.0982  0.0153
   39MOL   C67937235   0.447   3.288   2.107 -0.4732 -0.2357  0.0836
   39MOL   C68037236   0.320   3.377   2.123  0.5760  0.2027  0.3109
   39MOL   C68137237   0.331   3.523   2.155 -0.5322  0.4932 -0.3966
   39MOL   C68237238   0.193   3.587   2.176  0.5244  0.3930  0.2824
   39MOL   C68337239   0.217   3.739   2.181 -0.0269  0.1273 -0.0687
   39MOL   C68437240   0.087   3.810   2.234 -0.7085 -0.4160  0.6830
   39MOL   O68537241   0.095   3.943   2.182 -0.2665  0.2667  0.3732
   39MOL   C68637242   0.003   3.983   2.090  0.1116 -0.1170  0.2218
   39MOL   O68737243   7.669   3.926   2.047 -0.2439  0.1402 -0.1587
   39MOL   C68837244   0.028   4.130   2.041 -0.3656 -0.3862  0.7435
   39MOL   C68937245   7.748   4.235   2.141 -0.3878 -0.3475  0.2741
   39MOL   C69037246   0.074   4.242   2.275 -0.2211  0.2210 -0.4838
   39MOL   C69137247   0.026   4.353   2.367 -0.1716  0.1608  0.3949
   39MOL   C69237248   0.077   4.492   2.341  0.6957  0.2726 -0.3168
   39MOL   O69337249   0.087   4.537   2.228 -0.1451  0.3754  0.1609
   39MOL   H69437250   0.725   2.843   2.144 -0.3783 -1.2814  1.1108
   39MOL   H69537251   0.673   2.838   1.977  1.1694 -0.1948  0.1299
   39MOL   H69637252   0.467   2.882   2.198 -2.4644 -1.8887 -1.8426
   39MOL   H69737253   0.455   2.883   2.034  0.8697 -1.2914 -0.5705
   39MOL   H69837254   0.628   3.082   2.180 -0.1022  0.5989  0.1819
   39MOL   H69937255   0.612   3.072   2.014  0.4207 -1.6220 -0.3821
   39MOL   H70037256   0.375   3.109   2.207 -2.0461 -2.3634 -1.9073
   39MOL   H70137257   0.359   3.099   2.038 -0.6626  3.2622 -0.8037
   39MOL   H70237258   0.497   3.310   2.013 -2.9611 -1.9780 -1.7351
   39MOL   H70337259   0.515   3.314   2.189  1.3774  2.3077 -2.1905
   39MOL   H70437260   0.246   3.325   2.184  0.7019  0.8278  0.9943
   39MOL   H70537261   0.269   3.386   2.027 -0.1261 -0.9502  0.5619
   39MOL   H70637262   0.375   3.568   2.066 -2.7575 -1.5641 -2.6252
   39MOL   H70737263   0.397   3.539   2.240 -0.6693 -0.1021 -0.1772
   39MOL   H70837264   0.140   3.551   2.264 -0.8289  0.4117 -0.5166
   39MOL   H70937265   0.129   3.556   2.094  1.1859 -1.1341  0.3290
   39MOL   H71037266   0.292   3.759   2.257  1.1795  2.8413 -1.9001
   39MOL   H71137267   0.254   3.787   2.090  0.6387  2.6825  1.5157
   39MOL   H71237268   0.094   3.831   2.340  1.6102 -0.2750  0.5191
   39MOL   H71337269   7.757   3.758   2.220 -0.9374  0.6409 -1.9166
   39MOL   H71437270   0.135   4.139   2.023 -0.9592 -0.8222 -3.5524
   39MOL   H71537271   7.739   4.147   1.947  0.4933  0.0244  0.3245
   39MOL   H71637272   7.645   4.211   2.169 -0.8370 -0.6996 -1.6044
   39MOL   H71737273   7.749   4.339   2.106  1.9394 -0.0010  1.2779
   39MOL   H71837274   0.177   4.268   2.255 -0.1944  0.9431  0.5554
   39MOL   H71937275   0.074   4.142   2.317  0.6716  0.0831 -0.8189
   39MOL   H72037276   0.052   4.331   2.471  0.5820 -0.5512  0.0637
   39MOL   H72137277   7.682   4.358   2.366 -0.1004  3.2511 -2.7959
   39MOL   O72237278   0.096   4.565   2.448 -0.1697  0.0567 -0.2504
   39MOL   C72337279   0.143   4.692   2.454  0.9409 -0.5694  0.0940
   39MOL   C72437280   0.091   4.753   2.584  0.7085 -0.5537 -0.4652
   39MOL   C72537281   0.113   4.905   2.603 -0.2549 -0.1096 -0.5056
   39MOL   C72637282   7.755   4.995   2.577 -0.6770  0.2530 -0.3304
   39MOL   C72737283   7.720   5.001   2.437 -0.2623 -0.4437  0.4135
   39MOL   C72837284   7.576   5.062   2.407  0.5050  0.1727 -0.0873
   39MOL   C72937285   7.457   4.961   2.423  0.3258 -0.7404  0.3520
   39MOL   C73037286   7.441   4.866   2.303 -0.0980  1.0572 -0.3216
   39MOL   C73137287   7.382   4.734   2.342  0.5449  0.3082  0.2003
   39MOL   C73237288   7.334   4.643   2.229  0.1713 -0.5754  0.6690
   39MOL   O73337289   7.449   4.609   2.159 -0.7756  0.5851 -0.2472
   39MOL   C73437290   7.441   4.531   2.049 -0.6760  0.0768 -0.1008
   39MOL   O73537291   7.345   4.469   2.011  0.3300 -0.1806 -0.1143
   39MOL   C73637292   7.573   4.528   1.974 -0.2086 -0.1814 -0.3055
   39MOL   C73737293   7.609   4.655   1.898  0.3579 -0.3659 -0.1411
   39MOL   C73837294   7.621   4.786   1.975  0.1812 -0.5890 -0.1242
   39MOL   C73937295   7.727   4.880   1.912  0.5598 -0.8289 -0.0168
   39MOL   C74037296   7.735   5.019   1.979  0.1251  0.1950 -1.5077
   39MOL   O74137297   0.070   5.057   2.042 -0.1300  0.2099 -0.1833
   39MOL   H74237298   0.248   4.712   2.431  0.3852 -2.4435 -4.5846
   39MOL   H74337299   0.088   4.737   2.372  0.9463 -0.7744 -0.0211
   39MOL   H74437300   0.154   4.716   2.665  0.0950  1.0190  0.7484
   39MOL   H74537301   7.754   4.734   2.618  0.3618  1.7978 -0.1085
   39MOL   H74637302   0.131   4.930   2.708  1.2049 -0.0044 -0.7653
   39MOL   H74737303   0.210   4.933   2.561  0.6891  0.2606  1.8287
   39MOL   H74837304   0.029   5.093   2.604  0.0424 -0.5734  1.7213
   39MOL   H74937305   7.666   4.973   2.636 -1.0859  3.8330  0.4383
   39MOL   H75037306   7.727   4.901   2.394 -0.2024 -0.5390  0.6502
   39MOL   H75137307   0.036   5.049   2.380  0.4488 -0.6520  1.2460
   39MOL   H75237308   7.586   5.093   2.303 -1.2336  1.8580  0.2182
   39MOL   H75337309   7.570   5.151   2.470  1.0261 -0.4126  0.7869
   39MOL   H75437310   7.367   5.019   2.445 -0.1112 -1.9757  1.9467
   39MOL   H75537311   7.476   4.910   2.517 -0.2941 -0.4362  0.6484
   39MOL   H75637312   7.542   4.849   2.266 -0.2594 -0.1960 -0.1908
   39MOL   H75737313   7.403   4.924   2.219  0.5189  1.3709 -0.3885
   39MOL   H75837314   7.453   4.676   2.401 -1.1818 -1.3266  0.7235
   39MOL   H75937315   7.288   4.735   2.399  0.3081  1.6115 -0.2081
   39MOL   H76037316   7.261   4.704   2.175 -0.9807 -1.9285  0.6731
   39MOL   H76137317   7.288   4.550   2.262 -0.2267 -0.2972  0.9013
   39MOL   H76237318   7.650   4.515   2.050  0.2721 -0.8865 -0.9109
   39MOL   H76337319   7.578   4.437   1.915 -1.5960  0.1419 -0.9312
   39MOL   H76437320   7.548   4.672   1.809  1.6733  0.0298 -0.9845
   39MOL   H76537321   7.708   4.642   1.854  0.7543 -0.8369  0.8810
   39MOL   H76637322   7.653   4.772   2.079  0.7967 -1.6857 -0.4485
   39MOL   H76737323   7.519   4.823   1.985  0.4775  0.3561 -0.5990
   39MOL   H76837324   7.707   4.896   1.806  2.2277  1.9511  0.0182
   39MOL   H76937325   0.058   4.827   1.908  1.0917  0.2391 -3.0071
   39MOL   O77037326   7.622   5.090   1.970 -0.0896  0.0513  0.1303
   39MOL   C77137327   7.610   5.210   2.029  0.4887  0.0974  0.2890
   39MOL   C77237328   7.662   5.314   1.930  0.4917  0.5636  0.5102
   39MOL   C77337329   7.569   5.433   1.925  0.0639 -0.0911 -0.5835
   39MOL   C77437330   7.565   5.524   2.051  0.9415 -0.3148  0.1968
   39MOL   C77537331   7.479   5.464   2.168 -0.3711 -0.1235  0.4131
   39MOL   C77637332   7.453   5.564   2.282 -0.3622  0.5969  0.3441
   39MOL   C77737333   7.354   5.526   2.389 -0.1406  0.0195  0.5426
   39MOL   C77837334   7.389   5.402   2.465 -0.1572  0.3953  0.1082
   39MOL   C77937335   7.291   5.377   2.577  0.0602  0.4914  0.6743
   39MOL   C78037336   7.341   5.262   2.668 -0.0078  0.0036 -0.2657
   39MOL   O78137337   7.461   5.294   2.738 -0.3140 -0.9519  0.1087
   39MOL   C78237338   7.530   5.197   2.801  0.4187 -0.0502  0.4163
   39MOL   O78337339   7.496   5.074   2.812 -0.0905 -0.1363  0.1258
   39MOL   C78437340   7.656   5.245   2.865  0.1038  0.4550  0.3906
   39MOL   C78537341   7.696   5.390   2.835  0.0248 -0.1039  0.0159
   39MOL   C78637342   7.617   5.486   2.921  0.7224  0.0848  0.5304
   39MOL   C78737343   7.624   5.633   2.905  0.9524 -0.8515  0.5011
   39MOL   C78837344   7.495   5.695   2.960 -0.1566 -0.4910  0.4630
   39MOL   O78937345   7.388   5.682   2.896  0.1447 -0.2436  0.1059
   39MOL   H79037346   7.505   5.224   2.053  0.2424 -0.3052 -0.5437
   39MOL   H79137347   7.657   5.220   2.127  0.8904  2.3620 -0.1055
   39MOL   H79237348   7.668   5.280   1.826 -0.2437 -0.8377  0.9217
   39MOL   H79337349   0.000   5.341   1.956  1.5296 -0.9663 -1.7894
   39MOL   H79437350   7.598   5.492   1.838 -1.7472  0.3809 -0.8893
   39MOL   H79537351   7.467   5.409   1.895  0.0977 -2.1590  0.9019
   39MOL   H79637352   7.530   5.625   2.028 -0.4112 -0.1988  2.5326
   39MOL   H79737353   7.667   5.550   2.079  0.9193  2.7307 -2.3046
   39MOL   H79837354   7.511   5.365   2.199 -0.8095 -0.3253  0.2236
   39MOL   H79937355   7.381   5.439   2.126 -0.5231 -1.2141  1.3672
   39MOL   H80037356   7.420   5.656   2.232 -1.0224  0.6053  0.7797
   39MOL   H80137357   7.553   5.583   2.320  0.0705  1.4115 -1.1858
   39MOL   H80237358   7.254   5.526   2.345 -0.2596 -0.9718  0.8046
   39MOL   H80337359   7.366   5.616   2.450  0.8904 -0.1368  0.5790
   39MOL   H80437360   7.493   5.403   2.499 -0.4739 -2.2117  1.2932
   39MOL   H80537361   7.371   5.311   2.407 -1.9823  0.8073 -0.0204
   39MOL   H80637362   7.288   5.470   2.635 -2.5760  0.7013  0.2623
   39MOL   H80737363   7.192   5.356   2.537  0.6617 -0.6315 -0.2603
   39MOL   H80837364   7.351   5.168   2.615  1.3409  1.0305 -1.8547
   39MOL   H80937365   7.269   5.241   2.748  2.3021 -3.4770  0.9823
   39MOL   H81037366   7.645   5.223   2.971  0.3263  0.2031  0.3599
   39MOL   H81137367   7.740   5.184   2.832  0.5808  1.6887 -0.7513
   39MOL   H81237368   7.687   5.412   2.729 -0.6790  1.2802  0.3633
   39MOL   H81337369   0.039   5.398   2.855 -0.2803 -1.4135  2.3558
   39MOL   H81437370   7.659   5.475   3.021  1.7595 -0.7010  0.0151
   39MOL   H81537371   7.511   5.459   2.922  0.5487  0.7711  0.7353
   39MOL   H81637372   7.636   5.654   2.799  2.7978  0.9493  1.0412
   39MOL   H81737373   7.711   5.682   2.948  0.4031  0.8075 -0.2476
   39MOL   O81837374   7.509   5.729   3.089  0.2009  0.1494 -0.3221
   39MOL   C81937375   7.400   5.759   3.170 -0.1065  0.5177  0.4850
   39MOL   C82037376   7.437   5.718   3.318 -0.1566  0.0716 -0.0738
   39MOL   C82137377   7.330   5.745   3.417 -0.2708  0.4704  0.5317
   39MOL   C82237378   7.377   5.701   3.559  0.0507  0.5014  0.1295
   39MOL   C82337379   7.282   5.754   3.667 -0.1097  0.0105  0.0127
   39MOL   C82437380   7.332   5.897   3.691  0.0602 -0.3104  0.1229
   39MOL   C82537381   7.248   5.963   3.793  0.2958 -0.0045  0.6188
   39MOL   C82637382   7.293   6.115   3.797 -0.3954 -0.6484  0.0453
   39MOL   C82737383   7.213   6.198   3.896  0.2758  0.6955  1.3928
   39MOL   C82837384   7.242   6.176   4.033 -0.3296 -0.0757 -0.8970
   39MOL   O82937385   7.367   6.226   4.069  0.8655  0.4396  0.0697
   39MOL   C83037386   7.395   6.244   4.195 -0.1148  0.1960 -0.3062
   39MOL   O83137387   7.338   6.191   4.289 -0.2345 -0.8848  0.2237
   39MOL   C83237388   7.512   6.341   4.220  0.2464 -0.2166  0.4396
   39MOL   C83337389   7.540   6.375   4.370 -0.2134 -0.4107 -0.0204
   39MOL   C83437390   7.662   6.289   4.424 -0.2717 -0.1285 -0.1380
   39MOL   C83537391   7.690   6.317   4.572 -0.2054  0.1488  0.1346
   39MOL   C83637392   7.751   6.197   4.658 -0.4076 -0.4918  0.5759
   39MOL   O83737393   0.109   6.172   4.655  0.5272  0.2239  0.0357
   39MOL   H83837394   7.377   5.864   3.153 -2.7389 -0.0385  0.4766
   39MOL   H83937395   7.311   5.711   3.128 -0.3759  1.3745  0.0506
   39MOL   H84037396   7.522   5.781   3.343  0.0553 -0.1406 -0.2540
   39MOL   H84137397   7.475   5.617   3.335  0.1188  0.6708  3.2367
   39MOL   H84237398   7.290   5.846   3.417 -0.1558  0.5630 -1.8280
   39MOL   H84337399   7.241   5.685   3.398 -0.2035  0.0889  1.4402
   39MOL   H84437400   7.475   5.748   3.568  0.8529 -0.6605 -2.0212
   39MOL   H84537401   7.385   5.593   3.568  1.2047  0.6366  0.7493
   39MOL   H84637402   7.314   5.701   3.757 -0.5477 -0.0923  0.1062
   39MOL   H84737403   7.178   5.743   3.638  0.3895 -1.7139 -1.1753
   39MOL   H84837404   7.329   5.959   3.601 -0.9996 -0.2456  0.1933
   39MOL   H84937405   7.436   5.902   3.724 -0.4445  1.5479  1.5785
   39MOL   H85037406   7.261   5.920   3.892  1.1792 -1.9507 -0.3132
   39MOL   H85137407   7.141   5.972   3.780  0.2501 -3.3447 -2.0057
   39MOL   H85237408   7.285   6.154   3.695  0.8264 -2.0751 -0.6161
   39MOL   H85337409   7.397   6.114   3.827 -0.4539 -1.6201  0.2445
   39MOL   H85437410   7.234   6.304   3.883 -2.2262  1.1845  1.1213
   39MOL   H85537411   7.109   6.189   3.866  0.5666 -0.1958  0.6124
   39MOL   H85637412   7.235   6.070   4.057 -0.0668  0.0868 -0.0755
   39MOL   H85737413   7.163   6.221   4.094 -0.3529  0.2492 -1.1624
   39MOL   H85837414   7.597   6.299   4.166  0.5820  2.2992 -1.0452
   39MOL   H85937415   7.495   6.436   4.170 -0.5656  0.0404  1.2114
   39MOL   H86037416   7.450   6.379   4.431 -0.2304  1.5733 -0.1372
   39MOL   H86137417   7.569   6.480   4.373 -0.8951 -0.2186 -0.0329
   39MOL   H86237418   7.752   6.301   4.364 -1.5366  0.3985 -1.9752
   39MOL   H86337419   7.644   6.182   4.412 -0.6490 -0.2855  1.5808
   39MOL   H86437420   7.589   6.323   4.613 -0.2414 -0.8749  0.2122
   39MOL   H86537421   7.745   6.411   4.572  0.7443 -0.3766  2.1635
   39MOL   O86637422   7.656   6.115   4.713  0.1981  0.0138  0.2897
   39MOL   C86737423   7.697   5.987   4.764 -0.7444 -0.5564 -0.0062
   39MOL   C86837424   7.595   5.884   4.732 -0.8035  0.6124 -0.3857
   39MOL   C86937425   7.464   5.891   4.820 -0.0858 -0.1209 -0.2056
   39MOL   C87037426   7.359   5.781   4.785  0.7213  0.9013 -0.4748
   39MOL   C87137427   7.291   5.814   4.650  0.4822 -0.3846 -0.6438
   39MOL   C87237428   7.160   5.745   4.642  0.7232 -0.4714 -0.1647
   39MOL   C87337429   7.071   5.781   4.527  0.5622 -0.1664  0.8032
   39MOL   C87437430   7.125   5.740   4.389  0.1689  0.4543 -0.2539
   39MOL   C87537431   7.040   5.790   4.270  0.0467 -0.1738  0.5401
   39MOL   C87637432   7.099   5.737   4.136 -0.2688 -0.2256 -0.1767
   39MOL   O87737433   7.033   5.796   4.029  0.0315 -0.1987  0.3526
   39MOL   C87837434   6.914   5.750   3.981 -0.4393 -0.4153 -0.4997
   39MOL   O87937435   6.835   5.682   4.050  0.1859  0.0620 -0.6002
   39MOL   C88037436   6.884   5.791   3.841  0.0362 -0.0120  0.7446
   39MOL   C88137437   6.854   5.947   3.822  0.2632 -0.2977 -0.2629
   39MOL   C88237438   6.712   5.991   3.874 -0.0453 -0.2971 -0.4667
   39MOL   C88337439   6.698   6.135   3.901  0.3275 -0.1809 -0.0259
   39MOL   C88437440   6.705   6.225   3.778  0.0222  0.1101 -0.8529
   39MOL   O88537441   6.649   6.194   3.671 -0.0070  0.2793 -0.0555
   39MOL   H88637442   0.018   5.940   4.716 -2.0048 -1.8115 -1.0774
   39MOL   H88737443   7.706   5.990   4.872 -1.7290  0.0798  0.0695
   39MOL   H88837444   7.650   5.791   4.749 -2.4766 -0.2583  0.3581
   39MOL   H88937445   7.584   5.889   4.624  1.6851  1.2074 -0.6354
   39MOL   H89037446   7.499   5.863   4.919 -0.9565  0.1680  0.1838
   39MOL   H89137447   7.414   5.988   4.827 -0.6736 -0.4163 -0.3008
   39MOL   H89237448   7.280   5.786   4.860  0.9316  0.9970 -0.2549
   39MOL   H89337449   7.399   5.680   4.788  0.9740  1.0095  3.7959
   39MOL   H89437450   7.359   5.782   4.571 -1.4144 -3.2467 -1.2021
   39MOL   H89537451   7.267   5.920   4.645 -2.0807 -0.9691 -1.4084
   39MOL   H89637452   7.111   5.773   4.735  3.0424 -0.6563  1.1569
   39MOL   H89737453   7.179   5.638   4.633  1.8805 -0.2195 -0.8219
   39MOL   H89837454   7.047   5.887   4.527 -1.1868 -0.5420  1.2122
   39MOL   H89937455   6.969   5.742   4.527 -0.1161  1.4938 -1.3623
   39MOL   H90037456   7.124   5.631   4.399  2.0182  0.5406  0.9726
   39MOL   H90137457   7.230   5.759   4.366  0.6165 -1.4906  0.1101
   39MOL   H90237458   6.937   5.759   4.283 -0.0843 -0.5677 -1.2736
   39MOL   H90337459   7.041   5.899   4.276 -1.2395 -0.1686  0.7096
   39MOL   H90437460   7.100   5.629   4.146 -0.4935 -0.2531 -0.4586
   39MOL   H90537461   7.203   5.772   4.138  0.3691 -2.0788  0.6976
   39MOL   H90637462   6.971   5.764   3.780  0.3132  2.2913  0.0917
   39MOL   H90737463   6.810   5.720   3.805  0.5792  0.3237 -1.0907
   39MOL   H90837464   6.866   5.982   3.719 -1.4893 -3.3330 -1.5744
   39MOL   H90937465   6.922   6.010   3.880 -1.4734  0.8556  0.5352
   39MOL   H91037466   6.683   5.938   3.964 -0.4773  1.9452  0.7366
   39MOL   H91137467   6.648   5.961   3.791 -2.1550  3.4992 -0.3451
   39MOL   H91237468   6.787   6.160   3.960  0.6031  1.3681 -1.0480
   39MOL   H91337469   6.603   6.159   3.949 -1.0199  0.5874 -2.9577
   39MOL   O91437470   6.769   6.338   3.794  0.3094 -0.1922  0.3563
   39MOL   C91537471   6.770   6.426   3.688  0.4452 -0.0435 -0.0599
   39MOL   C91637472   6.866   6.533   3.737 -0.3087  0.0521 -0.3532
   39MOL   C91737473   6.883   6.650   3.645  0.4678 -0.0476 -0.1302
   39MOL   C91837474   6.973   6.763   3.683  0.1452 -0.3474  0.4490
   39MOL   C91937475   6.963   6.888   3.591 -0.6391 -0.0816 -0.3384
   39MOL   C92037476   7.042   7.008   3.640 -0.3753  0.4897  0.6747
   39MOL   C92137477   7.037   7.121   3.540 -0.4555 -0.3890  0.4332
   39MOL   C92237478   7.097   7.254   3.592 -0.3115  0.1314 -0.1656
   39MOL   C92337479   7.110   7.365   3.491  0.2924 -0.0402 -0.2873
   39MOL   C92437480   7.171   7.490   3.568  0.3670  0.3380  0.3626
   39MOL   O92537481   7.092   7.602   3.529 -0.2549 -0.5251 -0.6519
   39MOL   C92637482   6.981   7.646   3.597  0.6799  0.7716  0.1390
   39MOL   O92737483   6.940   7.593   3.696  0.1511  0.3626 -0.5272
   39MOL   C92837484   6.913   0.006   3.542 -0.3778 -0.4210  0.9256
   39MOL   C92937485   6.803   0.063   3.618 -0.8254  0.1768  0.0466
   39MOL   C93037486   6.663   0.002   3.592  0.4082  0.5505  0.7900
   39MOL   C93137487   6.597   0.036   3.459  0.1931  0.0564 -0.3937
   39MOL   C93237488   6.460   7.733   3.456 -0.5138  0.4437  0.4429
   39MOL   O93337489   6.390   7.698   3.550  0.4777 -0.4328  0.2573
   39MOL   H93437490   6.794   6.395   3.587  2.3616  2.2029 -0.3576
   39MOL   H93537491   6.674   6.477   3.680  1.0380  0.8044 -1.8909
   39MOL   H93637492   6.960   6.496   3.778 -0.7257  1.4934  1.9570
   39MOL   H93737493   6.817   6.591   3.815  0.5129 -0.4034  0.5079
   39MOL   H93837494   6.915   6.614   3.547  0.3440 -0.1070 -0.1491
   39MOL   H93937495   6.786   6.697   3.635  0.5704  0.3224  0.6412
   39MOL   H94037496   7.072   6.720   3.693  0.4121  0.3337  0.8191
   39MOL   H94137497   6.935   6.796   3.780 -1.2212 -3.3091  0.9816
   39MOL   H94237498   6.858   6.915   3.581 -0.0769  1.8904 -1.0818
   39MOL   H94337499   7.000   6.852   3.495 -0.4640 -0.0730 -0.2748
   39MOL   H94437500   7.142   6.969   3.661 -0.4262 -0.5086 -0.9065
   39MOL   H94537501   7.018   7.046   3.739 -1.4114  0.4426  0.4456
   39MOL   H94637502   6.933   7.146   3.518  0.0812 -0.2181 -2.0509
   39MOL   H94737503   7.088   7.084   3.451 -2.5727  3.0611 -2.3531
   39MOL   H94837504   7.194   7.234   3.638 -0.8324  1.6144  1.6354
   39MOL   H94937505   7.037   7.291   3.674 -0.2071 -0.5765  0.2328
   39MOL   H95037506   7.166   7.336   3.402 -1.9906  0.7646 -2.0580
   39MOL   H95137507   7.011   7.394   3.456  1.2295  1.2789 -1.9497
   39MOL   H95237508   7.275   7.510   3.545 -0.0861  1.7680 -0.5811
   39MOL   H95337509   7.160   7.474   3.675 -1.1254 -1.5141 -0.0449
   39MOL   H95437510   6.989   0.077   3.511 -0.2187 -0.2898  1.6099
   39MOL   H95537511   6.876   7.741   3.444  1.7998  1.0012 -0.3721
   39MOL   H95637512   6.805   0.169   3.595 -2.0425  0.7553  2.4011
   39MOL   H95737513   6.820   0.049   3.725  1.4863  0.4928 -0.2682
   39MOL   H95837514   6.605   0.039   3.676  1.7754  1.6540  1.2745
   39MOL   H95937515   6.675   7.659   3.605 -0.7524  0.2019 -0.7842
   39MOL   H96037516   6.666   0.001   3.383  1.2850 -0.4219  0.8149
   39MOL   H96137517   6.587   0.144   3.445  1.6758  0.7324  3.1964
   39MOL   H96237518   6.426   7.705   3.356 -0.9661  0.9021  0.4678
   40MOL     O137519   3.999   5.370   1.176  0.2406  0.0955 -0.3408
   40MOL     C237520   4.068   5.317   1.281  0.2549  0.3860 -0.1939
   40MOL     C337521   4.030   5.370   1.419  0.0015 -0.3206 -1.1339
   40MOL     C437522   4.070   5.267   1.531 -0.6423 -0.1261  0.4083
   40MOL     C537523   4.216   5.275   1.579 -0.0515  0.1236  0.7018
   40MOL     C637524   4.257   5.181   1.688  0.6944  0.0259  0.1971
   40MOL     C737525   4.404   5.197   1.718  0.2942 -0.0699 -0.1759
   40MOL     C837526   4.436   5.329   1.790  0.6951  0.0152  0.0354
   40MOL     C937527   4.574   5.339   1.850 -0.4020  0.1840 -0.3131
   40MOL    C1037528   4.610   5.470   1.922 -0.0399 -0.4522  0.7288
   40MOL    C1137529   4.729   5.463   2.016 -0.1137 -0.5645 -0.3943
   40MOL    O1237530   4.758   5.588   2.067  0.3408 -0.0607 -0.8883
   40MOL    C1337531   4.895   5.616   2.081  0.7133 -0.3657  0.3378
   40MOL    O1437532   4.992   5.535   2.081  0.4916 -0.1341  0.2720
   40MOL    C1537533   4.919   5.766   2.106  0.4116  0.1611 -0.3846
   40MOL    C1637534   4.910   5.803   2.253  0.5978 -0.0076 -0.3812
   40MOL    C1737535   4.772   5.817   2.322  1.2581 -0.7269 -0.0448
   40MOL    C1837536   4.781   5.840   2.473  0.8837 -0.0285  0.3346
   40MOL    C1937537   4.653   5.843   2.546  0.2727 -0.8434 -0.5018
   40MOL    O2037538   4.545   5.823   2.495  0.8918  0.5243  0.3222
   40MOL    H2137539   4.044   5.211   1.285 -1.7333  0.8240 -0.2297
   40MOL    H2237540   4.173   5.331   1.253 -0.5126  2.1848 -2.3276
   40MOL    H2337541   3.922   5.357   1.426 -0.0641  0.4583 -0.6208
   40MOL    H2437542   4.061   5.474   1.429 -0.8597 -0.0430 -1.3275
   40MOL    H2537543   4.006   5.291   1.616 -0.4693  2.0753 -0.0394
   40MOL    H2637544   4.046   5.167   1.496 -1.3165 -0.5722  2.0892
   40MOL    H2737545   4.248   5.376   1.605  1.3153 -0.1846  0.2867
   40MOL    H2837546   4.280   5.261   1.492 -1.2782  2.3440 -0.5847
   40MOL    H2937547   4.226   5.085   1.647  1.3842 -0.2273  0.2783
   40MOL    H3037548   4.200   5.197   1.780 -2.7560 -1.8256 -1.5105
   40MOL    H3137549   4.466   5.195   1.628  1.0758  3.2467  0.2513
   40MOL    H3237550   4.440   5.118   1.783 -1.6801  0.0746  1.1458
   40MOL    H3337551   4.360   5.340   1.866  1.3977 -1.2901  0.9450
   40MOL    H3437552   4.420   5.418   1.729 -0.6548  0.0295  0.3963
   40MOL    H3537553   4.650   5.334   1.772 -0.8259  1.1779 -0.7989
   40MOL    H3637554   4.588   5.249   1.908 -0.8216 -0.7097 -1.5704
   40MOL    H3737555   4.622   5.553   1.852 -0.6752 -1.4420 -0.5910
   40MOL    H3837556   4.534   5.495   1.997 -0.7381  0.3459 -0.2336
   40MOL    H3937557   4.813   5.409   1.972  0.4374 -0.5719  0.6490
   40MOL    H4037558   4.713   5.403   2.106 -1.6800  0.7749  0.2473
   40MOL    H4137559   5.021   5.780   2.072 -0.0666  0.1502 -1.8706
   40MOL    H4237560   4.852   5.824   2.042  1.5549 -0.9188 -2.5903
   40MOL    H4337561   4.967   5.895   2.266  1.3339 -0.4753 -0.2482
   40MOL    H4437562   4.967   5.729   2.310 -0.6541 -1.5784 -1.1092
   40MOL    H4537563   4.711   5.728   2.311  0.7178 -0.3406 -0.1841
   40MOL    H4637564   4.716   5.896   2.272 -0.0780 -0.9528  1.0688
   40MOL    H4737565   4.842   5.927   2.500 -1.6724  1.8945  0.0706
   40MOL    H4837566   4.844   5.758   2.505  1.1845  0.0147 -0.1327
   40MOL    H4937567   3.908   5.377   1.200  0.0838  0.7037 -1.0982
   40MOL    O5037568   4.673   5.857   2.685 -0.3123 -0.0085  0.3277
   40MOL    C5137569   4.564   5.866   2.778  0.3265  0.6656  0.3717
   40MOL    C5237570   4.584   5.742   2.864 -0.6101 -1.0090  0.1951
   40MOL    C5337571   4.467   5.708   2.959  0.0815 -0.6596  0.8651
   40MOL    C5437572   4.472   5.578   3.033 -0.0768 -0.3545  0.6424
   40MOL    C5537573   4.347   5.542   3.107  0.3894  0.6826 -0.3191
   40MOL    C5637574   4.376   5.423   3.201  0.0755  0.3998  0.0619
   40MOL    C5737575   4.242   5.378   3.265 -0.0616 -0.0671 -0.0624
   40MOL    C5837576   4.260   5.271   3.371  0.0065 -0.1817  0.5437
   40MOL    C5937577   4.127   5.222   3.435  0.5393 -0.6922 -1.1439
   40MOL    C6037578   4.136   5.120   3.545  0.6187  0.7479  0.2069
   40MOL    O6137579   4.147   5.177   3.674  0.0167  0.5353  0.0748
   40MOL    C6237580   4.262   5.186   3.741 -0.0371  0.5577  0.7880
   40MOL    O6337581   4.371   5.173   3.692  0.1902 -0.4485  0.8730
   40MOL    C6437582   4.242   5.225   3.890 -0.3122  0.5359 -0.0112
   40MOL    C6537583   4.139   5.138   3.965  0.6569 -0.6234 -0.0070
   40MOL    C6637584   4.156   4.981   3.945  0.1794  0.8898 -0.1320
   40MOL    C6737585   4.061   4.892   4.037  0.0590  0.5285 -0.5193
   40MOL    C6837586   3.915   4.931   4.019 -0.9112 -0.4885  0.4670
   40MOL    O6937587   3.847   4.979   4.108  0.2751 -0.2504  0.1850
   40MOL    H7037588   4.572   5.948   2.849  0.7839  0.2187  0.8448
   40MOL    H7137589   4.461   5.874   2.744  1.2964 -1.4333 -3.4052
   40MOL    H7237590   4.677   5.761   2.918 -1.8470 -0.9243  2.3397
   40MOL    H7337591   4.587   5.660   2.792 -1.8153 -1.1957  0.3529
   40MOL    H7437592   4.455   5.784   3.036  1.0818  1.2020 -0.7482
   40MOL    H7537593   4.377   5.714   2.897  1.2795  1.9142 -0.7500
   40MOL    H7637594   4.558   5.586   3.100  1.3965 -0.4951 -1.1788
   40MOL    H7737595   4.513   5.496   2.974 -2.2223  1.0357 -2.9301
   40MOL    H7837596   4.260   5.512   3.048  2.2633 -0.5478 -2.4953
   40MOL    H7937597   4.302   5.617   3.172 -0.4155  0.2410 -0.3652
   40MOL    H8037598   4.452   5.455   3.273  0.9245 -0.3310 -0.5048
   40MOL    H8137599   4.411   5.345   3.134 -1.6368  1.1844 -1.8057
   40MOL    H8237600   4.178   5.346   3.183 -0.2904 -0.6679  0.3485
   40MOL    H8337601   4.187   5.464   3.302 -2.2448 -0.8515 -1.4237
   40MOL    H8437602   4.318   5.320   3.449  0.0654 -1.2895  1.2147
   40MOL    H8537603   4.314   5.187   3.327  0.1910  1.5439 -2.7124
   40MOL    H8637604   4.076   5.311   3.471 -1.2126 -1.1953 -2.3381
   40MOL    H8737605   4.063   5.177   3.359 -3.8967  2.3313  0.6252
   40MOL    H8837606   4.229   5.066   3.529  0.1254  0.0154 -0.2222
   40MOL    H8937607   4.045   5.061   3.549  1.0643 -0.0231 -0.9162
   40MOL    H9037608   4.336   5.234   3.945 -0.6748 -0.1794  0.7330
   40MOL    H9137609   4.209   5.328   3.884 -0.5952  0.6293  2.7861
   40MOL    H9237610   4.039   5.165   3.932  0.9630  2.4019  1.3714
   40MOL    H9337611   4.147   5.161   4.071 -0.2463 -0.3077 -0.0058
   40MOL    H9437612   4.264   4.970   3.951  0.0917 -0.0018 -0.0419
   40MOL    H9537613   4.133   4.940   3.846 -0.1684  1.2005 -0.1783
   40MOL    H9637614   4.091   4.917   4.139 -0.1925 -0.8689 -0.0803
   40MOL    H9737615   4.090   4.787   4.025  1.3944  0.8599 -0.2998
   40MOL    O9837616   3.871   4.907   3.893  0.1566 -0.0211  0.9267
   40MOL    C9937617   3.755   4.966   3.843  0.2781  0.3667 -0.9976
   40MOL   C10037618   3.634   4.871   3.850 -0.0030  0.6105  0.1149
   40MOL   C10137619   3.652   4.727   3.790  1.3960 -0.1305  0.3079
   40MOL   C10237620   3.514   4.659   3.759  1.1813 -0.8568  0.1184
   40MOL   C10337621   3.515   4.513   3.716 -0.1273 -0.0658  0.3212
   40MOL   C10437622   3.382   4.458   3.665 -0.2636 -0.5659  0.0358
   40MOL   C10537623   3.394   4.310   3.622  0.3023 -0.1456 -0.1880
   40MOL   C10637624   3.251   4.267   3.588 -0.1442  0.5042 -0.2733
   40MOL   C10737625   3.250   4.140   3.513  0.0982  0.3912  0.7424
   40MOL   C10837626   3.114   4.077   3.491 -0.2773  0.5115  0.4247
   40MOL   O10937627   3.027   4.162   3.415  0.2982 -0.5590 -0.7592
   40MOL   C11037628   2.900   4.135   3.395 -0.3477  0.2758  0.2756
   40MOL   O11137629   2.837   4.029   3.418 -0.3908 -0.1933 -0.0692
   40MOL   C11237630   2.820   4.255   3.353 -0.2568  0.8702 -0.1359
   40MOL   C11337631   2.782   4.357   3.466  0.3634 -0.7980 -0.2571
   40MOL   C11437632   2.907   4.413   3.543 -0.2766 -0.0293 -0.6429
   40MOL   C11537633   2.876   4.527   3.643  0.0918 -0.2504  0.3205
   40MOL   C11637634   2.991   4.617   3.681 -0.3602 -0.6703 -0.1687
   40MOL   O11737635   3.047   4.689   3.598  0.1547 -0.2102 -1.1866
   40MOL   H11837636   3.732   5.058   3.896 -3.0908 -1.8332  1.6498
   40MOL   H11937637   3.762   4.987   3.737  3.6902 -1.0163 -1.1019
   40MOL   H12037638   3.548   4.920   3.805 -0.0316  2.0054  1.6511
   40MOL   H12137639   3.602   4.856   3.953  0.7844 -2.1042  0.0096
   40MOL   H12237640   3.705   4.751   3.697  1.2890 -1.7834 -0.1845
   40MOL   H12337641   3.716   4.664   3.851  1.2720 -1.4175 -0.8614
   40MOL   H12437642   3.469   4.714   3.676  1.4916  3.9178  2.8942
   40MOL   H12537643   3.443   4.679   3.839 -0.1288 -1.3767 -0.8853
   40MOL   H12637644   3.549   4.445   3.794  0.6398 -0.5170 -0.4027
   40MOL   H12737645   3.588   4.505   3.636 -0.2284  0.7759  0.1409
   40MOL   H12837646   3.337   4.515   3.584  1.3752  0.6586 -0.0380
   40MOL   H12937647   3.313   4.449   3.749 -1.4013 -0.5616 -0.8874
   40MOL   H13037648   3.441   4.251   3.701 -1.6881 -1.2393  0.2260
   40MOL   H13137649   3.464   4.302   3.539  0.6952  0.3377  0.0970
   40MOL   H13237650   3.187   4.341   3.540 -0.3007  0.0588 -0.7555
   40MOL   H13337651   3.204   4.255   3.686 -1.0777  1.9622 -0.5267
   40MOL   H13437652   3.310   4.146   3.423 -1.3443  1.7279 -0.1490
   40MOL   H13537653   3.306   4.065   3.570 -1.4569 -1.7183 -0.4732
   40MOL   H13637654   3.061   4.065   3.586  1.1582  4.9446  1.9092
   40MOL   H13737655   3.113   3.985   3.433  0.1434  0.3220  0.7178
   40MOL   H13837656   2.874   4.304   3.272  1.8805  1.8788  1.8083
   40MOL   H13937657   2.739   4.204   3.302  2.1374 -1.1233 -2.0722
   40MOL   H14037658   2.720   4.295   3.530  1.0159 -2.5683 -1.3145
   40MOL   H14137659   2.725   4.437   3.419  1.3394 -0.2406 -0.5103
   40MOL   H14237660   2.974   4.463   3.473  1.2779 -0.2594  0.6452
   40MOL   H14337661   2.960   4.332   3.593 -3.2752 -2.4255 -1.2206
   40MOL   H14437662   2.835   4.495   3.739  3.2332 -0.4980  1.6189
   40MOL   H14537663   2.794   4.579   3.594 -0.1515 -1.7215 -0.8922
   40MOL   O14637664   3.022   4.619   3.807 -0.7628 -0.0449 -0.1168
   40MOL   C14737665   3.135   4.694   3.855  0.4378  0.0127  0.2805
   40MOL   C14837666   3.152   4.686   4.006  0.5293 -0.6717  0.0317
   40MOL   C14937667   3.188   4.545   4.056 -0.4058 -0.5521 -0.3970
   40MOL   C15037668   3.216   4.541   4.207  0.0468  0.2547  0.3737
   40MOL   C15137669   3.295   4.418   4.255  0.8516 -0.1105 -0.3347
   40MOL   C15237670   3.342   4.430   4.398 -0.0460  0.2085  0.2032
   40MOL   C15337671   3.395   4.292   4.443  0.2914  0.1095  0.4923
   40MOL   C15437672   3.494   4.314   4.561 -0.3007 -0.1975  0.5773
   40MOL   C15537673   3.597   4.204   4.570  0.3613 -0.9053  0.8643
   40MOL   C15637674   3.720   4.248   4.644 -0.0872 -0.7086  0.0346
   40MOL   O15737675   3.810   4.131   4.635  0.2799  0.0807 -0.3192
   40MOL   C15837676   3.900   4.118   4.539 -0.0231  0.1731  0.3157
   40MOL   O15937677   3.922   4.190   4.443 -0.7244  0.8076  0.3390
   40MOL   C16037678   3.991   3.994   4.565 -0.2900  0.7624  0.8244
   40MOL   C16137679   4.117   4.000   4.474  0.2948  0.1912  0.1589
   40MOL   C16237680   4.196   3.865   4.488 -0.0300 -0.6294 -0.0808
   40MOL   C16337681   4.322   3.857   4.401  0.6832  0.2858  0.3533
   40MOL   C16437682   4.301   3.813   4.253 -0.3663  0.4130  0.5538
   40MOL   O16537683   4.306   3.695   4.221  0.6411  0.4596 -0.1164
   40MOL   H16637684   3.229   4.656   3.814  0.3847  0.3677 -0.1817
   40MOL   H16737685   3.122   4.798   3.823  1.6986  0.6407  1.7583
   40MOL   H16837686   3.060   4.719   4.053  0.2895  0.5509 -1.2398
   40MOL   H16937687   3.233   4.755   4.028  0.3151 -0.0382 -1.0915
   40MOL   H17037688   3.112   4.477   4.016 -1.2934  0.8709 -1.1933
   40MOL   H17137689   3.278   4.507   4.008  1.5702  1.7707  1.4183
   40MOL   H17237690   3.125   4.569   4.261 -0.7076 -2.1355  0.4165
   40MOL   H17337691   3.273   4.632   4.225 -0.4679  0.5255  0.6767
   40MOL   H17437692   3.379   4.409   4.186  2.8640 -2.2740  2.2808
   40MOL   H17537693   3.228   4.333   4.237 -0.5459  0.7052  0.9157
   40MOL   H17637694   3.265   4.462   4.468  0.0304  1.4850 -0.2822
   40MOL   H17737695   3.408   4.516   4.403 -1.9337  1.8445 -1.9270
   40MOL   H17837696   3.460   4.262   4.361  0.5651 -0.1387  0.8014
   40MOL   H17937697   3.328   4.208   4.460  1.7588 -0.9365  1.0950
   40MOL   H18037698   3.440   4.332   4.654 -1.0046  0.4196  0.0532
   40MOL   H18137699   3.548   4.405   4.537  0.4656 -1.2428 -1.6952
   40MOL   H18237700   3.546   4.127   4.629  0.1242  0.7893  2.8951
   40MOL   H18337701   3.621   4.162   4.472 -0.5373 -1.2918  0.7989
   40MOL   H18437702   3.701   4.261   4.751  0.9568 -0.3746  0.1938
   40MOL   H18537703   3.778   4.337   4.617 -2.2184  0.5172 -0.5575
   40MOL   H18637704   4.021   3.981   4.669 -0.5729 -0.8989  0.7183
   40MOL   H18737705   3.946   3.898   4.537  0.6119  0.6662 -0.3467
   40MOL   H18837706   4.175   4.085   4.512  1.7573 -1.1584  0.9683
   40MOL   H18937707   4.083   4.018   4.372 -5.2353  2.4548  2.1707
   40MOL   H19037708   4.128   3.783   4.464 -0.4856 -0.7706  1.6032
   40MOL   H19137709   4.225   3.840   4.591 -0.8683  1.0644  0.5880
   40MOL   H19237710   4.392   3.787   4.447  0.8412  0.6500  0.6753
   40MOL   H19337711   4.374   3.953   4.403  1.2605 -0.0125 -0.1445
   40MOL   O19437712   4.282   3.912   4.168 -0.1808 -0.2795 -0.2852
   40MOL   C19537713   4.253   3.872   4.032  0.1371  0.0237 -0.4178
   40MOL   C19637714   4.377   3.841   3.947 -0.2400  0.2657 -0.1681
   40MOL   C19737715   4.449   3.970   3.918  0.0350 -0.7575 -0.0002
   40MOL   C19837716   4.559   3.967   3.814 -0.2835  0.5669  0.2560
   40MOL   C19937717   4.519   3.988   3.669  0.6473 -0.0302  0.1778
   40MOL   C20037718   4.633   3.946   3.572 -0.1258 -0.2321 -0.2482
   40MOL   C20137719   4.599   3.947   3.424 -0.2903 -0.9039  0.0196
   40MOL   C20237720   4.726   3.894   3.341  0.1376 -0.0754 -0.1023
   40MOL   C20337721   4.828   4.011   3.304 -0.6859 -0.2085  0.0093
   40MOL   C20437722   4.961   3.958   3.253 -0.4487  0.3082 -0.5235
   40MOL   O20537723   5.054   4.056   3.219 -0.2163 -0.0300  0.6871
   40MOL   C20637724   5.078   4.085   3.089  0.1984 -0.7443  0.7925
   40MOL   O20737725   5.030   4.026   2.992 -0.2860 -0.6153  0.2487
   40MOL   C20837726   5.178   4.197   3.069  0.2394 -0.2145 -0.8969
   40MOL   C20937727   5.267   4.191   2.942 -0.5814  0.7184  0.5357
   40MOL   C21037728   5.366   4.072   2.935 -0.2180  0.0004  0.6908
   40MOL   C21137729   5.462   4.073   2.816 -0.0427  0.5705  0.4623
   40MOL   C21237730   5.400   4.063   2.674 -0.3509 -0.3856 -0.2121
   40MOL   O21337731   5.369   3.955   2.623 -0.3383  0.1539  0.0008
   40MOL   H21437732   4.193   3.781   4.027 -1.4213  0.9904  0.1760
   40MOL   H21537733   4.194   3.948   3.981  0.4087 -0.0343 -0.8171
   40MOL   H21637734   4.356   3.798   3.849 -2.0515  0.0472  0.3031
   40MOL   H21737735   4.446   3.770   3.994  0.4105  1.3029  0.4658
   40MOL   H21837736   4.385   4.054   3.889  0.8893 -0.3363 -0.6813
   40MOL   H21937737   4.498   4.015   4.004 -0.2026 -0.5331  0.0185
   40MOL   H22037738   4.625   3.881   3.824  1.1459  1.6520  0.3636
   40MOL   H22137739   4.619   4.054   3.841 -1.1759  1.2295  0.1297
   40MOL   H22237740   4.490   4.088   3.636  0.8343 -0.0356 -0.0042
   40MOL   H22337741   4.437   3.922   3.642  0.0417  1.1700 -1.0314
   40MOL   H22437742   4.665   3.849   3.609 -3.4094 -1.1488  0.3389
   40MOL   H22537743   4.715   4.014   3.593 -0.8935  0.8161 -0.5809
   40MOL   H22637744   4.579   4.051   3.397 -4.3322 -1.7235 -0.4608
   40MOL   H22737745   4.511   3.885   3.406  0.0175 -2.0557  2.3064
   40MOL   H22837746   4.693   3.834   3.256 -1.3707  1.7385 -0.8219
   40MOL   H22937747   4.776   3.816   3.399 -1.4293 -0.5011  0.7111
   40MOL   H23037748   4.783   4.076   3.229 -3.4372 -1.4300  0.5079
   40MOL   H23137749   4.859   4.062   3.395 -1.3131 -0.6184  0.4585
   40MOL   H23237750   4.940   3.877   3.182 -1.6598 -0.2344  0.4367
   40MOL   H23337751   5.013   3.902   3.331  0.9017 -0.2214 -1.7733
   40MOL   H23437752   5.134   4.296   3.086 -0.1217  0.0646 -3.2601
   40MOL   H23537753   5.258   4.180   3.141  0.8595 -2.1009 -1.9948
   40MOL   H23637754   5.320   4.285   2.928  0.1124  0.6652  2.5744
   40MOL   H23737755   5.200   4.174   2.858 -0.5315  0.3008  0.5803
   40MOL   H23837756   5.295   3.990   2.920  1.0024 -0.9390 -0.0666
   40MOL   H23937757   5.429   4.058   3.023  1.1944  2.1753  0.0724
   40MOL   H24037758   5.530   3.989   2.832  0.0925  0.6853  0.4943
   40MOL   H24137759   5.519   4.166   2.810  0.0809  0.5676  1.4296
   40MOL   O24237760   5.378   4.185   2.624 -0.5557 -0.1983  0.1106
   40MOL   C24337761   5.319   4.200   2.493  0.2738 -0.2953  0.2433
   40MOL   C24437762   5.175   4.243   2.502  0.2678 -0.3655  0.5880
   40MOL   C24537763   5.080   4.125   2.528  0.3980 -0.0326 -0.1014
   40MOL   C24637764   5.063   4.020   2.414  0.0633 -0.1027 -0.2808
   40MOL   C24737765   4.953   3.921   2.441 -0.3837 -0.1196 -0.4693
   40MOL   C24837766   4.925   3.836   2.316 -0.2917 -0.8649 -1.1214
   40MOL   C24937767   4.804   3.742   2.341  0.2720  0.4623 -0.4304
   40MOL   C25037768   4.784   3.667   2.213  0.2966  0.1662  0.8892
   40MOL   C25137769   4.660   3.576   2.212 -0.1861 -0.1667 -0.0696
   40MOL   C25237770   4.610   3.559   2.070  0.1466  0.4762 -0.4513
   40MOL   O25337771   4.540   3.444   2.053  0.5703  0.3978 -0.0288
   40MOL   C25437772   4.464   3.432   1.941  0.4138 -0.0525 -0.5714
   40MOL   O25537773   4.432   3.523   1.868 -0.2342 -0.4193 -0.4860
   40MOL   C25637774   4.417   3.291   1.923  0.3505 -0.0072 -0.3583
   40MOL   C25737775   4.421   3.249   1.770 -0.2399  0.1103 -0.5913
   40MOL   C25837776   4.369   3.105   1.735 -0.3415 -0.1133 -0.6206
   40MOL   C25937777   4.407   3.056   1.592  0.2088 -0.6265 -0.5565
   40MOL   C26037778   4.356   3.135   1.470  0.0873  0.5862 -0.2894
   40MOL   O26137779   4.380   3.107   1.354  0.0991  0.9280 -0.3432
   40MOL   H26237780   5.386   4.274   2.450  2.1261 -0.2741  3.0387
   40MOL   H26337781   5.330   4.107   2.437  0.4019 -1.7787  2.6609
   40MOL   H26437782   5.143   4.284   2.406 -0.1405 -1.7491  0.1267
   40MOL   H26537783   5.175   4.322   2.577  0.2433 -0.3765  0.5987
   40MOL   H26637784   5.116   4.077   2.619  0.8872 -1.1396 -0.8604
   40MOL   H26737785   4.982   4.164   2.556 -0.8329 -1.6694 -1.9500
   40MOL   H26837786   5.159   3.970   2.402  0.2191 -0.4866  2.3407
   40MOL   H26937787   5.047   4.077   2.323  1.1312 -1.6130 -1.4335
   40MOL   H27037788   4.859   3.965   2.474  0.1671 -0.7457  2.0361
   40MOL   H27137789   4.983   3.861   2.527  0.5161  2.1727  0.8861
   40MOL   H27237790   5.020   3.792   2.285  0.5691 -0.3000  0.6852
   40MOL   H27337791   4.892   3.904   2.238  1.3862 -0.2545 -1.3147
   40MOL   H27437792   4.713   3.799   2.364  0.0706 -0.7104  1.8073
   40MOL   H27537793   4.822   3.690   2.435 -1.3369  1.2524  0.3401
   40MOL   H27637794   4.871   3.608   2.184 -0.1251 -0.2165  0.3809
   40MOL   H27737795   4.770   3.742   2.135  1.8821  0.8275  1.2132
   40MOL   H27837796   4.670   3.477   2.256  1.1235  1.0812  2.5178
   40MOL   H27937797   4.581   3.628   2.266 -2.2146 -0.5109 -2.5987
   40MOL   H28037798   4.690   3.566   1.996 -0.3874 -0.4224 -1.1207
   40MOL   H28137799   4.555   3.649   2.042 -0.9206 -0.0622 -0.0832
   40MOL   H28237800   4.482   3.222   1.977  1.1975  1.5419  0.6209
   40MOL   H28337801   4.315   3.269   1.955 -0.6073 -1.1038 -3.8641
   40MOL   H28437802   4.528   3.244   1.749  0.3742  1.6146  1.9896
   40MOL   H28537803   4.374   3.327   1.709 -0.0896  0.4745 -0.2455
   40MOL   H28637804   4.262   3.110   1.758  0.1911  3.5573  1.5185
   40MOL   H28737805   4.390   3.029   1.809 -3.3530 -0.5854 -0.1933
   40MOL   H28837806   4.376   2.952   1.579 -1.5778 -0.2088  0.2405
   40MOL   H28937807   4.516   3.059   1.594  0.1833  1.6840 -0.5874
   40MOL   O29037808   4.274   3.243   1.500  0.1544  0.9654 -0.1282
   40MOL   C29137809   4.191   3.299   1.395  0.4108 -0.0204  0.3572
   40MOL   C29237810   4.079   3.378   1.457 -0.5036  0.2223  0.5232
   40MOL   C29337811   3.970   3.429   1.354 -0.1560 -0.2319 -0.3938
   40MOL   C29437812   3.869   3.518   1.419 -0.6469  0.0120 -0.3180
   40MOL   C29537813   3.746   3.549   1.337  0.6619  0.1583  0.7208
   40MOL   C29637814   3.632   3.600   1.422  1.0837 -0.3477  0.3184
   40MOL   C29737815   3.508   3.648   1.340  0.3930 -0.0760  0.4626
   40MOL   C29837816   3.371   3.668   1.415 -0.6517  0.5073 -0.4428
   40MOL   C29937817   3.363   3.794   1.505 -0.1223  0.3450  0.1017
   40MOL   C30037818   3.349   3.927   1.435 -0.2703  0.1391  0.0929
   40MOL   O30137819   3.332   4.038   1.526 -0.0730 -0.2978  0.0353
   40MOL   C30237820   3.401   4.149   1.519  0.3616 -0.5960  0.7838
   40MOL   O30337821   3.486   4.172   1.432  0.4398  0.2362  0.3159
   40MOL   C30437822   3.375   4.255   1.626 -0.2491 -0.6490 -0.5729
   40MOL   C30537823   3.485   4.248   1.738  0.1298  0.2377 -0.1959
   40MOL   C30637824   3.512   4.381   1.812 -0.3061  0.6124 -0.0572
   40MOL   C30737825   3.386   4.454   1.856  0.3190  0.2387 -0.1102
   40MOL   C30837826   3.415   4.572   1.933  0.2891 -0.8774 -0.0946
   40MOL   O30937827   3.399   4.574   2.058  0.3433  0.3333 -0.7182
   40MOL   H31037828   4.239   3.374   1.331  0.9519 -0.9579 -0.3528
   40MOL   H31137829   4.142   3.216   1.343 -0.4792  0.2848  0.6929
   40MOL   H31237830   4.129   3.469   1.490  1.4690  0.3385 -2.5204
   40MOL   H31337831   4.030   3.324   1.538 -1.0747 -1.0066 -0.6262
   40MOL   H31437832   4.012   3.480   1.267  1.2775 -1.8935 -0.7143
   40MOL   H31537833   3.911   3.339   1.334  0.4234 -1.1931  2.0918
   40MOL   H31637834   3.910   3.613   1.455 -0.9284  0.1396 -0.3323
   40MOL   H31737835   3.841   3.466   1.511 -0.2268  1.8712  0.8968
   40MOL   H31837836   3.722   3.455   1.286 -2.5295  0.4303  1.6154
   40MOL   H31937837   3.773   3.623   1.261 -1.9258 -2.6988 -3.2123
   40MOL   H32037838   3.658   3.681   1.490  0.8880  0.8053 -0.9722
   40MOL   H32137839   3.603   3.520   1.490 -0.9626  0.0465 -0.0419
   40MOL   H32237840   3.492   3.584   1.253 -0.7923  0.2350  0.4449
   40MOL   H32337841   3.538   3.742   1.295 -1.8038  0.1134 -0.7033
   40MOL   H32437842   3.344   3.573   1.460 -1.7101  1.0680  0.1099
   40MOL   H32537843   3.290   3.679   1.343  0.1593  2.1111 -1.1353
   40MOL   H32637844   3.289   3.788   1.585 -1.0707 -0.6224 -0.8428
   40MOL   H32737845   3.462   3.804   1.551  2.0458 -0.0557 -4.2598
   40MOL   H32837846   3.256   3.927   1.379 -0.2256 -2.0574 -0.0016
   40MOL   H32937847   3.431   3.940   1.364  1.0265  0.7401  1.6747
   40MOL   H33037848   3.378   4.354   1.580 -0.6011 -0.8291 -0.9989
   40MOL   H33137849   3.277   4.247   1.674  0.1749 -1.0736  0.2237
   40MOL   H33237850   3.585   4.216   1.709  0.6184 -0.1347  1.8249
   40MOL   H33337851   3.440   4.181   1.811  0.1870  1.9141  1.4219
   40MOL   H33437852   3.570   4.448   1.748  0.7993 -0.1887  0.0844
   40MOL   H33537853   3.576   4.365   1.899  1.2554  0.7356 -1.1579
   40MOL   H33637854   3.317   4.393   1.914 -1.3706  2.2235  0.0383
   40MOL   H33737855   3.344   4.502   1.768 -0.8529  0.7920  0.7470
   40MOL   O33837856   3.463   4.675   1.863  0.5574 -0.0652 -0.0919
   40MOL   C33937857   3.478   4.797   1.922 -0.0300 -0.1287 -0.1965
   40MOL   C34037858   3.608   4.793   1.994 -0.5229  0.2297  0.3931
   40MOL   C34137859   3.736   4.750   1.910 -0.1952  0.3009 -0.2571
   40MOL   C34237860   3.765   4.830   1.786 -0.4191  0.5627 -0.1818
   40MOL   C34337861   3.911   4.830   1.734  0.2102 -0.4608 -0.7292
   40MOL   C34437862   3.934   4.918   1.609 -0.2613 -0.5245  0.3562
   40MOL   C34537863   3.860   4.869   1.479  0.5410 -0.3972 -0.9286
   40MOL   C34637864   3.911   4.956   1.359  0.1068 -0.1122  0.2096
   40MOL   C34737865   3.855   4.915   1.217 -0.3376  0.1278  0.0069
   40MOL   C34837866   3.895   5.008   1.108  0.2333 -0.5845 -0.4615
   40MOL   O34937867   3.854   4.958   0.982  0.2099  0.3829  0.2346
   40MOL   C35037868   3.880   5.039   0.874  0.3187 -0.1326 -1.2273
   40MOL   O35137869   3.968   5.129   0.865 -0.4672 -0.5318  0.0543
   40MOL   C35237870   3.788   5.014   0.757  0.3272  0.0566 -0.1766
   40MOL   C35337871   3.845   5.074   0.622 -0.1460  0.5062  0.0896
   40MOL   C35437872   3.976   4.994   0.583 -0.2624 -0.1150 -0.1113
   40MOL   C35537873   4.039   5.053   0.456 -0.0311  0.1592  0.2578
   40MOL   C35637874   4.157   4.977   0.405 -0.2477 -0.9333  0.6029
   40MOL   O35737875   4.269   5.022   0.427 -0.0200 -0.2798  0.9999
   40MOL   H35837876   3.468   4.877   1.849  0.6194 -0.9351 -1.1705
   40MOL   H35937877   3.402   4.831   1.993  0.3030 -1.1991  0.6761
   40MOL   H36037878   3.602   4.715   2.069  0.8270 -0.5851 -0.3254
   40MOL   H36137879   3.627   4.891   2.037 -0.9205  0.0376  1.0098
   40MOL   H36237880   3.820   4.764   1.978  0.6328 -0.4616 -1.0982
   40MOL   H36337881   3.736   4.643   1.886  1.8900  0.0220  0.8561
   40MOL   H36437882   3.737   4.935   1.796  0.0347  0.8441 -1.7577
   40MOL   H36537883   3.687   4.809   1.712 -0.8289  1.7093 -0.0848
   40MOL   H36637884   3.926   4.725   1.709  0.6406 -0.7997  0.9023
   40MOL   H36737885   3.989   4.848   1.808 -1.6367  0.9253  0.9344
   40MOL   H36837886   4.042   4.928   1.596 -0.7237  1.6560 -2.2334
   40MOL   H36937887   3.908   5.020   1.638 -0.6969 -0.6895  0.5398
   40MOL   H37037888   3.752   4.863   1.493  0.6218  1.2061  0.4621
   40MOL   H37137889   3.896   4.769   1.453 -0.1102 -1.3279  1.5427
   40MOL   H37237890   4.019   4.969   1.363  0.0947  1.6356 -3.1067
   40MOL   H37337891   3.868   5.054   1.382  1.7360  0.6706  0.0084
   40MOL   H37437892   3.897   4.815   1.204  2.1847  0.9494  1.5606
   40MOL   H37537893   3.747   4.897   1.218 -0.3553  0.2380  0.0369
   40MOL   H37637894   4.002   5.026   1.116 -0.0822  1.6203 -1.1025
   40MOL   H37737895   3.845   5.101   1.134  1.5960  0.7095 -2.3239
   40MOL   H37837896   3.772   4.909   0.730  0.3910  0.0685 -0.2632
   40MOL   H37937897   3.690   5.059   0.771  0.0811 -0.4985 -0.1256
   40MOL   H38037898   3.872   5.179   0.624  0.0125  0.5404 -2.1493
   40MOL   H38137899   3.761   5.065   0.553 -0.9795 -1.1591  1.2779
   40MOL   H38237900   3.962   4.887   0.564 -0.5365  0.3285 -2.5749
   40MOL   H38337901   4.045   4.995   0.667 -0.7360  3.3626  0.2718
   40MOL   H38437902   4.066   5.153   0.490  0.1610 -0.1101  0.8996
   40MOL   H38537903   3.967   5.056   0.375 -0.7779 -0.8817  0.8714
   40MOL   O38637904   4.131   4.864   0.345  0.2893 -0.3041 -0.0550
   40MOL   C38737905   4.234   4.776   0.305  0.4083  0.0979 -0.4704
   40MOL   C38837906   4.168   4.632   0.282 -0.2131  0.2771 -0.1261
   40MOL   C38937907   4.268   4.519   0.245 -0.1053 -0.3720 -0.2473
   40MOL   C39037908   4.204   4.382   0.239  0.3774 -0.6980  0.4911
   40MOL   C39137909   4.176   4.318   0.370 -0.7292 -0.5632 -0.2397
   40MOL   C39237910   4.071   4.216   0.368  0.5069 -0.2865  0.0343
   40MOL   C39337911   4.011   4.172   0.504  0.1955  0.0672  0.2041
   40MOL   C39437912   3.925   4.042   0.489 -0.6029 -0.1639  0.1496
   40MOL   C39537913   3.911   3.974   0.626 -0.8300 -0.4226 -0.0916
   40MOL   C39637914   3.859   3.831   0.615 -0.6831 -0.0553  0.6098
   40MOL   O39737915   3.934   3.765   0.514  0.2315 -0.0776  0.7375
   40MOL   C39837916   3.884   3.643   0.474 -0.4232  0.1546  0.2519
   40MOL   O39937917   3.784   3.588   0.523 -0.6269 -0.4006  0.0718
   40MOL   C40037918   3.970   3.571   0.367  0.1830  0.0128  0.9241
   40MOL   C40137919   4.031   3.663   0.263  0.6073 -0.0198 -0.2221
   40MOL   C40237920   4.158   3.729   0.304  0.1100  0.2393  0.8936
   40MOL   C40337921   4.192   3.851   0.215 -0.4493  0.1387 -0.4567
   40MOL   C40437922   4.331   3.905   0.247  0.2414  0.0800 -0.1709
   40MOL   O40537923   4.390   3.885   0.353  0.0932  0.1677 -0.1303
   40MOL   H40637924   4.269   4.811   0.208 -0.3103 -1.5636 -1.3644
   40MOL   H40737925   4.306   4.769   0.386 -0.1258 -0.1216 -0.0073
   40MOL   H40837926   4.089   4.645   0.207 -0.5315 -0.1790  0.1276
   40MOL   H40937927   4.112   4.608   0.372  0.6157  1.0327  0.6056
   40MOL   H41037928   4.304   4.555   0.149  2.1046 -0.1947  0.5954
   40MOL   H41137929   4.351   4.524   0.316 -0.7904 -2.8805  0.7781
   40MOL   H41237930   4.266   4.308   0.190  2.2111  0.2698  1.2785
   40MOL   H41337931   4.113   4.391   0.180  1.4251  0.9432 -0.9177
   40MOL   H41437932   4.131   4.394   0.434  0.1638  0.9091 -1.3128
   40MOL   H41537933   4.267   4.291   0.424  0.1626  1.9123 -0.4132
   40MOL   H41637934   4.110   4.134   0.308  1.9676 -1.8019  2.9216
   40MOL   H41737935   3.991   4.261   0.308 -0.0296 -0.4871  0.5878
   40MOL   H41837936   3.959   4.245   0.566 -1.2008 -0.6914 -0.0589
   40MOL   H41937937   4.100   4.150   0.562 -0.6638 -1.1246  1.0792
   40MOL   H42037938   3.966   3.976   0.413  0.4864  1.5485 -0.7642
   40MOL   H42137939   3.826   4.064   0.449 -0.3698 -0.5200 -0.6345
   40MOL   H42237940   4.009   3.959   0.670  0.1132  2.3551 -1.1647
   40MOL   H42337941   3.850   4.039   0.689  0.2149  2.0720 -1.5652
   40MOL   H42437942   3.754   3.839   0.587 -0.4889 -0.7486 -0.3483
   40MOL   H42537943   3.877   3.776   0.708 -1.3004 -2.5186 -0.6955
   40MOL   H42637944   4.038   3.494   0.404  0.6817  0.3650  0.7565
   40MOL   H42737945   3.894   3.523   0.306  2.9761 -2.3484 -0.8575
   40MOL   H42837946   3.958   3.743   0.248  1.7975  1.5859  2.1220
   40MOL   H42937947   4.043   3.607   0.171  2.0857 -1.1173  0.6145
   40MOL   H43037948   4.238   3.655   0.310  0.1062  0.3373  2.2386
   40MOL   H43137949   4.136   3.769   0.402 -0.7514  0.1466  0.7431
   40MOL   H43237950   4.126   3.938   0.220  0.5408  1.0838 -3.1842
   40MOL   H43337951   4.185   3.813   0.113 -0.2370 -0.5503 -0.2197
   40MOL   O43437952   4.379   3.987   0.149  0.0362 -0.5162  0.7518
   40MOL   C43537953   4.507   4.041   0.151  0.4128  0.1640  0.2955
   40MOL   C43637954   4.537   4.142   0.266 -0.0574  0.0416  0.3686
   40MOL   C43737955   4.647   4.233   0.228 -0.0854 -0.2311 -0.0157
   40MOL   C43837956   4.677   4.326   0.346  0.8591  0.6607  0.6987
   40MOL   C43937957   4.765   4.435   0.283 -0.2769 -0.4764  0.1118
   40MOL   C44037958   4.767   4.559   0.375 -0.9298  0.2590  0.0374
   40MOL   C44137959   4.629   4.639   0.377  0.0352  0.5490  0.7495
   40MOL   C44237960   4.622   4.782   0.444  0.1247 -0.1996 -0.0314
   40MOL   C44337961   4.719   4.883   0.390 -0.6888 -0.4829 -0.6256
   40MOL   C44437962   4.702   5.023   0.455  0.2087 -0.4148  0.7763
   40MOL   O44537963   4.812   5.102   0.419  0.5255  0.3497  0.6087
   40MOL   C44637964   4.830   5.226   0.464  0.2228 -0.3450 -0.4237
   40MOL   O44737965   4.741   5.292   0.516  0.5106  0.3503  0.1434
   40MOL   C44837966   4.970   5.288   0.463  0.2720 -0.5124  0.0231
   40MOL   C44937967   5.024   5.291   0.321 -0.2391 -0.0903 -0.2154
   40MOL   C45037968   4.988   5.427   0.248 -0.4700 -0.1896  0.1980
   40MOL   C45137969   4.844   5.466   0.239  0.1400  0.7122  0.7221
   40MOL   C45237970   4.819   5.567   0.126  0.5394 -0.1240  0.3559
   40MOL   O45337971   4.910   5.641   0.080  0.1532 -0.2661 -0.4244
   40MOL   H45437972   4.575   3.958   0.173  0.7936  0.1281 -0.9729
   40MOL   H45537973   4.522   4.084   0.053  0.6217 -1.3559 -0.3595
   40MOL   H45637974   4.570   4.091   0.357  1.7492  0.6705  0.0976
   40MOL   H45737975   4.449   4.203   0.289 -0.1875 -0.8897  2.4316
   40MOL   H45837976   4.734   4.175   0.199  1.4667  2.2489 -0.4166
   40MOL   H45937977   4.618   4.296   0.144 -0.6437  0.8907  1.0073
   40MOL   H46037978   4.726   4.266   0.422 -0.3975 -0.2595  0.7977
   40MOL   H46137979   4.584   4.369   0.381  0.5046  1.6111 -1.3494
   40MOL   H46237980   4.729   4.482   0.192  0.6071  0.7429  0.3755
   40MOL   H46337981   4.867   4.398   0.270 -0.0441  0.6860 -1.4093
   40MOL   H46437982   4.841   4.623   0.328 -0.6422 -0.9250 -1.1524
   40MOL   H46537983   4.802   4.532   0.475 -0.7630 -1.3894 -0.4460
   40MOL   H46637984   4.540   4.597   0.424  0.9745 -0.9897  1.1815
   40MOL   H46737985   4.597   4.650   0.273 -2.6716  1.1582  1.5890
   40MOL   H46837986   4.640   4.766   0.550 -0.2272 -2.5621 -0.3117
   40MOL   H46937987   4.526   4.827   0.420 -1.1224 -1.2348  2.8748
   40MOL   H47037988   4.824   4.856   0.399 -0.5017  1.0699  2.8257
   40MOL   H47137989   4.696   4.893   0.284  0.1342 -1.0786 -0.8572
   40MOL   H47237990   4.686   5.021   0.563 -0.9250  0.0883  0.6315
   40MOL   H47337991   4.608   5.064   0.418 -0.3964 -1.0442  1.5987
   40MOL   H47437992   4.953   5.391   0.493 -0.0080  0.0288 -1.8864
   40MOL   H47537993   5.039   5.246   0.536  2.8199  2.2867 -0.6891
   40MOL   H47637994   5.001   5.202   0.263  1.0378 -1.5547  1.4842
   40MOL   H47737995   5.133   5.291   0.320 -0.2291 -1.4420  0.4590
   40MOL   H47837996   5.041   5.437   0.154  0.4665  2.3569  0.9536
   40MOL   H47937997   5.023   5.505   0.317  0.6701 -1.0313  0.5979
   40MOL   H48037998   4.806   5.507   0.332  1.9487  1.5810  1.1015
   40MOL   H48137999   4.797   5.371   0.211  1.0521  0.9699 -1.8549
   40MOL   O48238000   4.685   5.583   0.091  0.1686 -0.2478  0.0948
   40MOL   C48338001   4.656   5.687   7.760  0.2369 -0.1155  0.4822
   40MOL   C48438002   4.523   5.672   7.697  0.1580  0.9367 -0.2645
   40MOL   C48538003   4.396   5.700   0.022 -0.0091  0.5589  0.0031
   40MOL   C48638004   4.269   5.697   7.699 -0.2257 -0.3766 -0.5678
   40MOL   C48738005   4.146   5.755   0.002 -0.8667 -0.2346 -0.5893
   40MOL   C48838006   4.031   5.760   7.673 -0.1052 -0.4268  0.3028
   40MOL   C48938007   3.891   5.763   7.733 -0.0182  0.3323 -0.1405
   40MOL   C49038008   3.848   5.895   0.042 -0.0396 -1.0197  0.2290
   40MOL   C49138009   3.700   5.906   0.032  0.2509 -0.5916  0.7398
   40MOL   C49238010   3.653   6.024   0.125  0.1247  0.0440  0.6046
   40MOL   O49338011   3.690   6.150   0.074  0.0836  0.0813  0.5423
   40MOL   C49438012   3.601   6.251   0.084 -0.2259 -0.3164  0.0533
   40MOL   O49538013   3.513   6.271   0.168  0.2072 -0.5112 -0.3496
   40MOL   C49638014   3.618   6.352   7.739 -0.0791  0.2528  1.5829
   40MOL   C49738015   3.703   6.474   0.014  0.0076 -0.2746  0.3246
   40MOL   C49838016   3.742   6.568   7.659  0.1603  0.5173  0.2066
   40MOL   C49938017   3.736   6.714   7.695 -0.3986 -0.3358 -0.5809
   40MOL   C50038018   3.750   6.802   7.576  0.3935 -0.5727 -0.1978
   40MOL   O50138019   3.656   6.875   7.542  0.7446  0.1034  0.9717
   40MOL   H50238020   4.671   5.785   0.041  0.4879  1.7662 -3.3962
   40MOL   H50338021   4.727   5.679   7.677 -0.7284 -0.2820 -0.3376
   40MOL   H50438022   4.523   5.572   7.654 -2.1659  1.4000 -1.4047
   40MOL   H50538023   4.513   5.731   7.606 -1.9015  0.3154 -0.4432
   40MOL   H50638024   4.401   5.629   0.105 -0.7094  0.9531  0.3907
   40MOL   H50738025   4.394   5.801   0.063 -3.2202  1.6621 -2.6972
   40MOL   H50838026   4.251   5.592   7.675 -0.4001 -0.6947  0.9265
   40MOL   H50938027   4.280   5.743   7.601  0.3339  0.1397 -0.2607
   40MOL   H51038028   4.164   5.859   0.030  0.0911 -0.3199 -0.8585
   40MOL   H51138029   4.124   5.703   0.095 -1.6187  0.8152 -0.1645
   40MOL   H51238030   4.040   5.676   7.604  0.5461 -3.2923  3.7171
   40MOL   H51338031   4.029   5.855   7.619  1.1920 -0.3292  0.4260
   40MOL   H51438032   3.875   5.683   0.042  0.5059  0.9593  0.6634
   40MOL   H51538033   3.823   5.749   7.649 -1.3140  0.2324  0.8919
   40MOL   H51638034   3.890   5.986   7.763 -0.6241  0.0107  1.7625
   40MOL   H51738035   3.882   5.883   0.145 -0.0850 -2.3412  0.0940
   40MOL   H51838036   3.668   5.940   7.699 -0.1489  0.9697  1.3884
   40MOL   H51938037   3.647   5.813   0.052 -0.6690 -0.0297  0.9265
   40MOL   H52038038   3.695   6.012   0.225 -0.1125 -1.8308  0.5042
   40MOL   H52138039   3.546   6.031   0.140  0.0275 -1.4954  0.7646
   40MOL   H52238040   3.660   6.295   7.657 -1.6061  0.0735  0.9126
   40MOL   H52338041   3.526   6.403   7.711  0.5418  0.3081 -0.3944
   40MOL   H52438042   3.787   6.447   0.079 -1.0020 -1.5412  1.1343
   40MOL   H52538043   3.638   6.537   0.074  0.0750  1.0787 -0.9977
   40MOL   H52638044   3.657   6.561   7.591  0.0964 -3.3012  0.6149
   40MOL   H52738045   3.822   6.531   7.595  0.9571 -1.2650  2.1992
   40MOL   H52838046   3.812   6.748   0.001  0.2809 -2.1763 -0.4039
   40MOL   H52938047   3.638   6.731   7.740 -0.1869 -0.9676  0.1418
   40MOL   O53038048   3.862   6.787   7.502  0.9869 -0.7142 -0.1963
   40MOL   C53138049   3.865   6.829   7.365  0.3756 -0.3958 -0.3462
   40MOL   C53238050   3.927   6.720   7.280 -0.0737 -0.1746  0.4336
   40MOL   C53338051   4.074   6.679   7.305 -0.0257  0.1704 -0.2620
   40MOL   C53438052   4.178   6.775   7.242 -0.1633  0.0781 -0.2131
   40MOL   C53538053   4.316   6.759   7.296 -0.4380 -0.1857  0.3395
   40MOL   C53638054   4.338   6.823   7.436  0.2175 -0.2519  0.0413
   40MOL   C53738055   4.303   6.977   7.443 -0.2631  0.1618 -0.2788
   40MOL   C53838056   4.326   7.028   7.587 -0.2702  0.4264 -0.1726
   40MOL   C53938057   4.214   6.970   7.684 -0.1068 -0.2299  0.6647
   40MOL   C54038058   4.199   7.035   0.052  0.1162  0.3825 -0.9344
   40MOL   O54138059   4.091   6.971   0.124  0.4542 -0.5641  0.2159
   40MOL   C54238060   3.975   7.030   0.144 -0.2462 -0.3318 -0.8746
   40MOL   O54338061   3.941   7.144   0.104 -0.0118  1.0297 -0.3846
   40MOL   C54438062   3.863   6.940   0.208  0.3013 -0.0083 -0.1996
   40MOL   C54538063   3.825   6.973   0.353  0.2195 -0.0893  0.1220
   40MOL   C54638064   3.794   7.118   0.390 -0.1138  0.8308  0.6752
   40MOL   C54738065   3.758   7.143   0.533 -0.1244 -0.4884 -1.0564
   40MOL   C54838066   3.615   7.164   0.540  0.6974  0.0877 -0.4524
   40MOL   O54938067   3.565   7.274   0.505 -0.7155 -0.2287  0.1153
   40MOL   H55038068   3.765   6.861   7.334 -0.8805 -0.6595  3.1759
   40MOL   H55138069   3.929   6.918   7.364 -1.5395  1.0679  1.6304
   40MOL   H55238070   3.907   6.748   7.176 -1.7847  0.1318  0.8225
   40MOL   H55338071   3.869   6.628   7.294 -0.3005 -0.2760 -1.1003
   40MOL   H55438072   4.073   6.662   7.412 -2.1507 -0.1243 -0.3098
   40MOL   H55538073   4.096   6.581   7.262 -1.7757 -1.4583  2.4052
   40MOL   H55638074   4.156   6.882   7.238  0.9515  0.3189  0.0381
   40MOL   H55738075   4.184   6.745   7.137  0.4314 -0.0010 -0.1576
   40MOL   H55838076   4.389   6.805   7.230 -1.4264  0.2813 -0.4425
   40MOL   H55938077   4.344   6.654   7.283 -2.0354 -0.6622  0.6439
   40MOL   H56038078   4.442   6.794   7.450 -0.0740 -1.4365 -0.1590
   40MOL   H56138079   4.280   6.769   7.510  2.3733 -0.3806  1.6761
   40MOL   H56238080   4.202   7.001   7.409 -0.9999 -1.4441  0.6909
   40MOL   H56338081   4.362   7.038   7.375 -0.5561 -0.5516 -1.1794
   40MOL   H56438082   4.319   7.137   7.595 -0.6094  0.2748  1.9202
   40MOL   H56538083   4.427   7.001   7.618 -0.4892 -0.2784 -0.0635
   40MOL   H56638084   4.118   6.979   7.634 -0.2373  1.5268  1.2022
   40MOL   H56738085   4.232   6.864   7.702 -1.3441 -0.1337  2.6053
   40MOL   H56838086   4.191   7.142   0.039  1.7670  0.3690 -2.1378
   40MOL   H56938087   4.289   7.023   0.113  0.1740  0.9012 -0.9197
   40MOL   H57038088   3.774   6.951   0.146 -0.0682  0.1575  0.3596
   40MOL   H57138089   3.896   6.836   0.199  1.8356  0.3909  0.6034
   40MOL   H57238090   3.905   6.934   0.416 -1.6219 -1.9717  1.3919
   40MOL   H57338091   3.731   6.920   0.371  0.5046 -0.2140  1.3146
   40MOL   H57438092   3.717   7.159   0.325  0.1773 -0.7101 -0.6919
   40MOL   H57538093   3.884   7.175   0.365  1.0255 -1.6409 -1.1134
   40MOL   H57638094   3.800   7.238   0.564 -1.9041  0.5421 -1.6945
   40MOL   H57738095   3.783   7.064   0.603 -1.9873  0.5519  0.8487
   40MOL   O57838096   3.552   7.066   0.599 -0.3075 -0.5229  0.4084
   40MOL   C57938097   3.414   7.078   0.607 -0.9792 -0.3755 -0.2888
   40MOL   C58038098   3.349   6.946   0.663 -0.4916  0.2753 -0.1804
   40MOL   C58138099   3.337   6.847   0.550  0.1620 -0.4580  0.5498
   40MOL   C58238100   3.268   6.714   0.581 -0.4812 -0.1543  0.3445
   40MOL   C58338101   3.135   6.732   0.666  0.0717  0.4460  0.0036
   40MOL   C58438102   3.068   6.595   0.700 -0.3958  0.4505 -0.1110
   40MOL   C58538103   2.936   6.605   0.774  0.5464  0.0213 -0.0004
   40MOL   C58638104   2.821   6.682   0.705 -1.1363 -0.3778  1.0785
   40MOL   C58738105   2.697   6.679   0.780  1.1462  1.2813 -0.1290
   40MOL   C58838106   2.570   6.695   0.694 -0.1397  0.1411  0.7252
   40MOL   O58938107   2.572   6.817   0.637 -0.4029  0.0516 -0.2308
   40MOL   C59038108   2.456   6.882   0.628  0.2100  0.0876 -0.7403
   40MOL   O59138109   2.350   6.845   0.675  0.1344  0.0330 -0.5383
   40MOL   C59238110   2.469   7.023   0.561  0.4094 -0.1076 -0.2526
   40MOL   C59338111   2.498   7.023   0.403  0.5644 -0.1212 -0.0065
   40MOL   C59438112   2.377   6.991   0.317  0.1763 -0.0948  0.5975
   40MOL   C59538113   2.415   6.961   0.171  0.9590 -0.3326  0.5479
   40MOL   C59638114   2.404   6.820   0.116  0.4235  0.0681 -0.4518
   40MOL   O59738115   2.340   6.794   0.018  0.3698  0.4483 -0.0194
   40MOL   H59838116   3.396   7.160   0.676  0.4861 -0.2125 -0.0793
   40MOL   H59938117   3.373   7.087   0.506  3.8129 -1.1382 -2.4565
   40MOL   H60038118   3.256   6.973   0.714 -0.5738  1.3536 -0.8822
   40MOL   H60138119   3.407   6.905   0.745 -0.9798 -1.7702 -0.8185
   40MOL   H60238120   3.269   6.893   0.478 -1.1626  0.2694  2.2350
   40MOL   H60338121   3.428   6.820   0.497 -1.6011 -1.0764 -2.2857
   40MOL   H60438122   3.346   6.655   0.629 -1.7561 -0.5294  2.0196
   40MOL   H60538123   3.251   6.656   0.491 -1.2385  1.5834 -0.6441
   40MOL   H60638124   3.054   6.794   0.626 -0.8428 -1.5916 -1.3752
   40MOL   H60738125   3.159   6.778   0.762  0.8953  0.9219 -0.4309
   40MOL   H60838126   3.143   6.530   0.745 -1.6335  0.9943  2.8624
   40MOL   H60938127   3.041   6.541   0.610  0.1151  1.4032 -0.8517
   40MOL   H61038128   2.959   6.656   0.868  0.2714 -2.2256  1.3222
   40MOL   H61138129   2.901   6.504   0.796  2.0752 -0.6206 -0.5115
   40MOL   H61238130   2.800   6.633   0.610  1.0779 -2.2228  1.4797
   40MOL   H61338131   2.852   6.785   0.686 -2.9948 -0.0095  0.0062
   40MOL   H61438132   2.682   6.582   0.828  0.9073  0.4062 -1.9385
   40MOL   H61538133   2.701   6.733   0.875 -1.4933 -0.7787  1.2151
   40MOL   H61638134   2.488   6.671   0.761 -0.5695  1.6048  0.7307
   40MOL   H61738135   2.579   6.620   0.615 -0.1578  0.5434  0.3439
   40MOL   H61838136   2.381   7.087   0.567  2.1120  2.0769  2.4307
   40MOL   H61938137   2.551   7.074   0.611  1.0704 -0.6894 -0.7410
   40MOL   H62038138   2.577   6.950   0.385  1.3412  1.1852 -2.0301
   40MOL   H62138139   2.543   7.117   0.371  0.4963 -0.4595 -1.0883
   40MOL   H62238140   2.307   7.074   0.306  0.4934 -0.1543 -2.3680
   40MOL   H62338141   2.319   6.906   0.355  0.7139 -0.2936  0.9830
   40MOL   H62438142   2.512   7.002   0.143 -0.2216  1.0211 -1.7377
   40MOL   H62538143   2.350   7.026   0.112 -0.2349 -0.5571  1.5951
   40MOL   O62638144   2.483   6.735   0.181  0.3548  0.0909  0.2718
   40MOL   C62738145   2.487   6.604   0.136 -0.1052 -0.6196  0.0144
   40MOL   C62838146   2.556   6.522   0.240  0.3549 -0.0945  0.0045
   40MOL   C62938147   2.710   6.548   0.231 -0.5702  0.4021  0.1643
   40MOL   C63038148   2.786   6.461   0.329 -0.5762 -0.0555 -0.4808
   40MOL   C63138149   2.938   6.458   0.318 -0.2559 -0.0293 -0.2666
   40MOL   C63238150   2.989   6.346   0.212  1.0048  0.2087  0.1205
   40MOL   C63338151   3.144   6.312   0.226 -0.1209 -0.5432 -0.7028
   40MOL   C63438152   3.202   6.186   0.154  0.4888  0.2514  0.1033
   40MOL   C63538153   3.194   6.201   0.003 -0.6170 -0.4574  0.5264
   40MOL   C63638154   3.267   6.093   7.678  0.6816 -0.0695 -0.0077
   40MOL   O63738155   3.202   5.966   7.700 -0.2581  0.0541 -0.1362
   40MOL   C63838156   3.116   5.915   7.607  0.3484 -0.6141 -0.0348
   40MOL   O63938157   3.073   5.975   7.510 -0.1058 -0.0956 -0.1658
   40MOL   C64038158   3.066   5.780   7.640  0.0519 -0.6409  0.4313
   40MOL   C64138159   3.159   5.665   7.590 -0.8506  1.1223 -0.8597
   40MOL   C64238160   3.301   5.660   7.657  0.2615 -0.3548  0.6718
   40MOL   C64338161   3.404   5.576   7.579  0.0899 -0.1172 -0.3639
   40MOL   C64438162   3.543   5.574   7.647  0.5210 -0.1014  0.0993
   40MOL   O64538163   3.652   5.592   7.587 -0.0510  0.3007  0.2087
   40MOL   H64638164   2.389   6.555   0.137  0.0137 -0.9405 -1.7420
   40MOL   H64738165   2.536   6.582   0.041 -0.7372 -0.6846 -0.3025
   40MOL   H64838166   2.525   6.419   0.225 -0.4001  0.1848 -0.4009
   40MOL   H64938167   2.513   6.542   0.338 -1.0631 -1.8899 -0.2045
   40MOL   H65038168   2.747   6.531   0.130 -2.8965 -3.1415 -0.1658
   40MOL   H65138169   2.721   6.651   0.266 -0.9485  0.4321  0.1986
   40MOL   H65238170   2.758   6.356   0.326 -0.7166 -0.0245 -0.2635
   40MOL   H65338171   2.763   6.493   0.431 -0.3177 -0.5359 -0.2717
   40MOL   H65438172   2.988   6.438   0.412  1.3903  1.1093 -0.8752
   40MOL   H65538173   2.979   6.556   0.295 -2.3258  0.5410 -1.7206
   40MOL   H65638174   2.967   6.391   0.116 -1.7295  0.2365  0.6928
   40MOL   H65738175   2.938   6.250   0.226 -1.1937  1.1534 -1.0614
   40MOL   H65838176   3.160   6.291   0.332  0.6614 -0.7816 -0.8724
   40MOL   H65938177   3.199   6.406   0.213 -3.0307  1.3741  0.1956
   40MOL   H66038178   3.128   6.110   0.180  1.0121 -0.2391  0.1748
   40MOL   H66138179   3.303   6.161   0.189 -0.2284 -3.3537 -0.1722
   40MOL   H66238180   3.090   6.212   7.737  0.3868  1.0928 -2.5979
   40MOL   H66338181   3.231   6.300   7.738  0.2641 -0.4116  1.7512
   40MOL   H66438182   3.375   6.084   7.695  0.3755 -3.1962  0.7271
   40MOL   H66538183   3.253   6.123   7.575  0.9146 -2.6751 -0.8373
   40MOL   H66638184   3.052   5.773   7.748  2.0352 -1.8089  0.6479
   40MOL   H66738185   2.968   5.755   7.600 -0.5150 -0.0677  1.4316
   40MOL   H66838186   3.156   5.679   7.482  0.5221  1.3250 -0.8803
   40MOL   H66938187   3.124   5.565   7.612  2.7432  0.0457  0.2503
   40MOL   H67038188   3.294   5.627   7.760 -0.2886  0.5876  0.9440
   40MOL   H67138189   3.336   5.763   7.656 -0.1932 -0.1972  0.9907
   40MOL   H67238190   3.414   5.607   7.475  2.2782  0.5159  0.0161
   40MOL   H67338191   3.375   5.472   7.566 -0.2518 -0.1786  0.7771
   40MOL   O67438192   3.528   5.554   0.010  0.4007  0.0221 -0.3381
   40MOL   C67538193   3.640   5.537   0.095  0.2190  0.0509  0.1501
   40MOL   C67638194   3.611   5.424   0.193 -0.3814 -0.1185 -0.4158
   40MOL   C67738195   3.501   5.458   0.302  0.1445  0.0961  0.1935
   40MOL   C67838196   3.468   5.338   0.393 -0.1636  0.2194 -0.4516
   40MOL   C67938197   3.382   5.382   0.509  0.0013  0.3983  0.1875
   40MOL   C68038198   3.328   5.269   0.592  0.7657 -0.0678  0.1330
   40MOL   C68138199   3.230   5.311   0.706  0.5095 -0.3548 -0.1852
   40MOL   C68238200   3.178   5.204   0.796 -0.4012  0.4979 -0.5049
   40MOL   C68338201   3.105   5.260   0.923 -0.4484 -0.6629 -0.0815
   40MOL   C68438202   3.024   5.163   1.006 -0.5644  0.5832 -0.4643
   40MOL   O68538203   2.897   5.158   0.945  0.1755 -0.1947  0.1646
   40MOL   C68638204   2.849   5.042   0.887 -0.8096  0.0279  0.4509
   40MOL   O68738205   2.904   4.929   0.884 -0.4210  0.2807 -0.0382
   40MOL   C68838206   2.707   5.060   0.823  0.1818 -0.6176 -0.3731
   40MOL   C68938207   2.717   5.090   0.671  0.8437 -0.5604 -0.5437
   40MOL   C69038208   2.581   5.143   0.620  0.1188 -0.1877 -0.3303
   40MOL   C69138209   2.592   5.186   0.465 -0.0675  0.2487  0.3989
   40MOL   C69238210   2.623   5.336   0.442 -0.0732  0.5958 -0.3724
   40MOL   O69338211   2.550   5.412   0.493  0.4460  0.1734 -0.0944
   40MOL   H69438212   3.724   5.506   0.033  0.2230 -1.8576  1.1099
   40MOL   H69538213   3.656   5.636   0.137  0.0497  0.6188 -1.0734
   40MOL   H69638214   3.705   5.384   0.232 -0.2982 -0.2366 -0.7415
   40MOL   H69738215   3.581   5.338   0.133  1.1730 -1.3317  0.5107
   40MOL   H69838216   3.546   5.536   0.363  4.8882 -2.0754 -0.3377
   40MOL   H69938217   3.414   5.500   0.252  0.9075 -0.5488 -1.7584
   40MOL   H70038218   3.563   5.308   0.437 -1.4271 -1.2476  1.3704
   40MOL   H70138219   3.426   5.258   0.332  0.1196 -0.8097  0.6863
   40MOL   H70238220   3.299   5.444   0.475 -0.1094  1.3587  2.1351
   40MOL   H70338221   3.438   5.454   0.569 -0.0675  1.6957 -1.2679
   40MOL   H70438222   3.408   5.200   0.618  0.8697 -0.1202 -0.3157
   40MOL   H70538223   3.280   5.205   0.517 -1.7129  0.2572  1.4126
   40MOL   H70638224   3.160   5.377   0.656  1.0539  1.0284  0.8274
   40MOL   H70738225   3.290   5.374   0.773 -0.3015  0.6471 -0.4048
   40MOL   H70838226   3.263   5.144   0.827  1.1666  2.6253 -0.5859
   40MOL   H70938227   3.115   5.143   0.731  0.7397 -1.7443  0.4518
   40MOL   H71038228   3.185   5.297   0.987 -0.7719  1.3264 -0.8108
   40MOL   H71138229   3.054   5.354   0.902 -1.9237 -1.7724 -1.6242
   40MOL   H71238230   3.017   5.209   1.105  2.3150 -0.5243  0.2998
   40MOL   H71338231   3.066   5.064   1.023  0.3420  0.8857 -0.9620
   40MOL   H71438232   2.655   4.965   0.835  1.7959 -1.5906 -0.8184
   40MOL   H71538233   2.644   5.136   0.869  1.3818  0.0382  0.2217
   40MOL   H71638234   2.721   4.992   0.623  1.1659 -0.7433 -0.1408
   40MOL   H71738235   2.802   5.152   0.641 -1.2359  2.1019 -1.1604
   40MOL   H71838236   2.555   5.225   0.688 -1.2785  0.0689 -1.1604
   40MOL   H71938237   2.499   5.072   0.633  0.1454 -0.0016  0.9548
   40MOL   H72038238   2.496   5.175   0.415  0.0533 -2.2908  0.6549
   40MOL   H72138239   2.657   5.120   0.407  0.4410  0.8017  0.3412
   40MOL   O72238240   2.727   5.356   0.369  0.7581  0.5592 -0.5775
   40MOL   C72338241   2.769   5.486   0.345  0.0397  0.5813  0.7840
   40MOL   C72438242   2.701   5.565   0.229  0.1633  0.5090  0.2415
   40MOL   C72538243   2.737   5.711   0.222  0.3608 -0.6249 -0.4170
   40MOL   C72638244   2.635   5.781   0.134  0.1297 -0.7815 -0.2948
   40MOL   C72738245   2.671   5.928   0.116  0.3909  0.4426 -0.1705
   40MOL   C72838246   2.562   5.996   0.025  0.1836 -0.2243 -0.5713
   40MOL   C72938247   2.577   6.143   0.007 -0.1421 -0.1500  0.3484
   40MOL   C73038248   2.691   6.154   7.659 -0.8539 -0.7540  0.6654
   40MOL   C73138249   2.753   6.291   7.673 -0.5142  0.1237 -0.0941
   40MOL   C73238250   2.862   6.303   7.567 -0.1166 -0.3847  0.0997
   40MOL   O73338251   2.928   6.427   7.585 -0.6365  0.0812  0.2106
   40MOL   C73438252   3.002   6.480   7.487 -0.0327  0.4010  0.7442
   40MOL   O73538253   3.014   6.441   7.375 -0.2938  0.1981 -0.3323
   40MOL   C73638254   3.070   6.607   7.531 -0.0350  0.4239 -0.2019
   40MOL   C73738255   3.128   6.592   7.680  0.7412  0.0504  1.0715
   40MOL   C73838256   3.232   6.699   7.720  0.1426 -0.5380 -0.2644
   40MOL   C73938257   3.289   6.679   0.097  0.0444  0.1743 -0.1046
   40MOL   C74038258   3.396   6.779   0.152  0.4030  0.2909  0.6003
   40MOL   O74138259   3.467   6.745   0.242  0.2180 -0.1481  0.1804
   40MOL   H74238260   2.756   5.545   0.436  0.0095  2.3826 -0.3641
   40MOL   H74338261   2.877   5.487   0.327 -0.3096 -1.4131 -1.6719
   40MOL   H74438262   2.592   5.558   0.226  0.2977 -2.3485  1.1418
   40MOL   H74538263   2.741   5.520   0.138 -0.4653 -2.4114  1.3541
   40MOL   H74638264   2.740   5.750   0.324  1.8676  1.4163 -1.1794
   40MOL   H74738265   2.840   5.719   0.187  0.0126  0.5149 -1.2007
   40MOL   H74838266   2.540   5.771   0.188  0.8325 -3.4888  0.5134
   40MOL   H74938267   2.638   5.724   0.041  1.9610  1.3679 -1.6116
   40MOL   H75038268   2.769   5.942   0.071 -0.0520  0.3912 -1.1620
   40MOL   H75138269   2.664   5.978   0.213  0.0656 -0.7045  0.4119
   40MOL   H75238270   2.470   5.982   0.081 -0.1184  1.6083 -0.6026
   40MOL   H75338271   2.557   5.948   7.692 -0.9296 -0.0013 -0.6264
   40MOL   H75438272   2.602   6.184   0.105 -1.0862  1.7701 -0.1880
   40MOL   H75538273   2.486   6.191   7.735  0.0125 -0.3136 -0.2506
   40MOL   H75638274   2.647   6.148   7.559 -0.4952  0.4574  0.4287
   40MOL   H75738275   2.768   6.077   7.661 -1.9542 -1.9743 -1.7945
   40MOL   H75838276   2.672   6.365   7.669 -0.9416 -0.0899  2.9811
   40MOL   H75938277   2.784   6.302   0.012 -2.3947 -2.8091  0.8662
   40MOL   H76038278   2.812   6.291   7.471 -0.4567 -4.8088  0.7339
   40MOL   H76138279   2.937   6.226   7.581 -2.5388 -3.0432 -1.0141
   40MOL   H76238280   3.147   6.623   7.457  0.3915  0.3319  0.2192
   40MOL   H76338281   3.002   6.692   7.528  1.4330  1.6520  0.6279
   40MOL   H76438282   3.186   6.499   7.681  1.1092  0.2767  0.8758
   40MOL   H76538283   3.044   6.584   7.749  0.5443  0.8313  0.9241
   40MOL   H76638284   3.193   6.800   7.707 -0.1506 -0.8079 -1.6484
   40MOL   H76738285   3.314   6.701   7.648  0.1602  0.3267 -0.2348
   40MOL   H76838286   3.328   6.578   0.104 -0.4920  0.1148  2.6081
   40MOL   H76938287   3.207   6.696   0.166  0.1708  0.3957 -0.0061
   40MOL   O77038288   3.394   6.897   0.094 -0.2537  0.0216  0.3819
   40MOL   C77138289   3.475   7.007   0.140  0.2762 -0.3125 -0.3586
   40MOL   C77238290   3.387   7.114   0.219 -0.4076  0.2531 -0.0037
   40MOL   C77338291   3.306   7.211   0.120 -0.0980  0.0191 -0.0120
   40MOL   C77438292   3.204   7.304   0.189 -0.0090 -0.1806 -0.3554
   40MOL   C77538293   3.147   7.404   0.077  0.1439  0.1980  0.0626
   40MOL   C77638294   3.046   7.335   7.742 -0.0792 -0.0331 -0.4444
   40MOL   C77738295   3.038   7.427   7.616 -0.4194 -0.6266 -0.1706
   40MOL   C77838296   2.957   7.367   7.507 -0.3660  0.8866  0.4387
   40MOL   C77938297   2.941   7.447   7.381  0.3187  0.1126  0.2615
   40MOL   C78038298   2.860   7.366   7.273 -0.9309 -0.1143  0.2571
   40MOL   O78138299   2.721   7.376   7.294 -0.5951 -0.0004  0.1270
   40MOL   C78238300   2.648   7.275   7.344 -0.3704  0.3345  0.3994
   40MOL   O78338301   2.687   7.174   7.404 -0.2440 -0.2756 -0.3214
   40MOL   C78438302   2.499   7.305   7.336 -0.7691 -0.7661  0.2112
   40MOL   C78538303   2.469   7.368   7.201  0.3100 -0.1276 -0.3877
   40MOL   C78638304   2.318   7.412   7.200 -0.3682  0.2727 -0.2856
   40MOL   C78738305   2.276   7.486   7.070 -0.5270  0.2271  0.0287
   40MOL   C78838306   2.141   7.560   7.082 -0.3573  1.0121 -0.5432
   40MOL   O78938307   2.040   7.510   7.040 -0.0281  0.0366 -0.1359
   40MOL   H79038308   3.553   6.972   0.207 -0.1327 -2.2550 -0.8403
   40MOL   H79138309   3.516   7.067   0.059 -1.2557  1.6544  0.3004
   40MOL   H79238310   3.455   7.160   0.290  0.9997 -1.2542 -0.3499
   40MOL   H79338311   3.311   7.062   0.276 -0.0471  0.6665  0.8610
   40MOL   H79438312   3.370   7.264   0.048 -1.3100  0.9831 -0.3937
   40MOL   H79538313   3.247   7.141   0.061  1.9163 -2.1662  0.5040
   40MOL   H79638314   3.242   7.363   0.273 -0.9960  0.8750 -0.6330
   40MOL   H79738315   3.121   7.244   0.227 -0.3449  1.2860  1.2801
   40MOL   H79838316   3.233   7.441   0.021  0.4859  1.0063  1.1079
   40MOL   H79938317   3.093   7.483   0.129 -0.4967 -0.0149 -0.2622
   40MOL   H80038318   2.951   7.321   0.029 -0.5683  2.2833 -0.6526
   40MOL   H80138319   3.080   7.235   7.715  1.8463  0.1877  1.1407
   40MOL   H80238320   3.137   7.445   7.574 -0.0435 -1.1322  0.4850
   40MOL   H80338321   3.004   7.528   7.639  2.9297 -0.1234  3.1014
   40MOL   H80438322   2.863   7.332   7.548  0.5995 -0.0485  1.9172
   40MOL   H80538323   3.007   7.272   7.488 -1.4491  0.2917  0.5627
   40MOL   H80638324   2.884   7.537   7.404 -1.3002 -0.6204 -0.8251
   40MOL   H80738325   3.040   7.484   7.352  0.5600  2.2067  3.4689
   40MOL   H80838326   2.892   7.262   7.266 -0.7058  0.0437 -1.2787
   40MOL   H80938327   2.883   7.400   7.172 -0.5699 -2.0181 -0.3221
   40MOL   H81038328   2.439   7.215   7.351  2.8268 -3.7901 -2.4218
   40MOL   H81138329   2.470   7.380   7.410 -1.2850 -0.0665 -0.6995
   40MOL   H81238330   2.492   7.289   7.129 -1.5162 -0.7355 -0.3254
   40MOL   H81338331   2.534   7.454   7.185  3.4168 -2.4950 -0.9451
   40MOL   H81438332   2.314   7.484   7.281 -0.5912 -0.2523  0.1664
   40MOL   H81538333   2.252   7.328   7.219 -2.5080  0.8669 -4.4886
   40MOL   H81638334   2.254   7.423   6.983 -0.3077  0.2342 -0.0298
   40MOL   H81738335   2.359   7.554   7.054  0.5610 -1.0933 -0.0705
   40MOL   O81838336   2.152   7.678   7.154 -0.5159 -0.0420 -0.4446
   40MOL   C81938337   2.034   7.758   7.187  0.8759  0.1881  0.1639
   40MOL   C82038338   2.069   0.078   7.310  0.4043  0.1294  0.1241
   40MOL   C82138339   2.073   7.763   7.442 -0.2181  0.2029 -0.3673
   40MOL   C82238340   2.146   0.071   7.552 -0.0806 -0.5979 -0.0945
   40MOL   C82338341   2.138   7.759   7.678  0.1729 -0.1028  0.6178
   40MOL   C82438342   2.188   0.060   0.039 -1.0903 -0.0254 -0.3270
   40MOL   C82538343   2.230   7.723   0.146  0.5893  0.5779  0.4316
   40MOL   C82638344   2.278   0.012   0.281 -0.0137 -0.3220  0.0295
   40MOL   C82738345   2.395   0.108   0.279  0.4158  0.3484  0.2682
   40MOL   C82838346   2.443   0.142   0.429 -0.7142 -0.2654  0.4958
   40MOL   O82938347   2.341   0.209   0.505 -0.0522  0.0446  0.3561
   40MOL   C83038348   2.373   0.256   0.630 -0.3019  0.6637  0.2037
   40MOL   O83138349   2.476   0.229   0.689 -0.2020  0.2149  0.4470
   40MOL   C83238350   2.278   0.343   0.705  0.3773 -0.5501  0.1729
   40MOL   C83338351   2.131   0.306   0.689  0.0465 -0.0814 -0.2011
   40MOL   C83438352   2.072   0.213   0.786 -0.3740 -0.0578  0.8287
   40MOL   C83538353   2.043   0.287   0.915  0.1011  0.3009 -0.3008
   40MOL   C83638354   1.955   0.205   1.006  0.5280 -0.3285  0.2314
   40MOL   O83738355   1.846   0.249   1.034  0.0077  0.3741 -0.0005
   40MOL   H83838356   1.993   0.055   7.106  0.8084  2.5464  1.9571
   40MOL   H83938357   1.954   7.690   7.212  2.5381 -1.5711  0.8136
   40MOL   H84038358   1.998   0.160   7.323  0.9917  0.3560  2.0654
   40MOL   H84138359   2.164   0.126   7.284  0.2249  1.5401  1.9875
   40MOL   H84238360   1.973   7.732   7.473 -0.3487  0.5605 -0.4264
   40MOL   H84338361   2.126   7.669   7.426  2.2167  1.5992 -0.7699
   40MOL   H84438362   2.101   0.168   7.573 -0.9444 -1.0964  0.3987
   40MOL   H84538363   2.250   0.091   7.526  0.4284 -4.5805 -1.4243
   40MOL   H84638364   2.185   7.663   7.659  1.1498  0.2017  1.4413
   40MOL   H84738365   2.033   7.745   7.704 -0.0017  0.2975  0.1360
   40MOL   H84838366   2.112   0.120   0.089 -0.9491  0.6777 -0.9402
   40MOL   H84938367   2.276   0.122   0.029 -0.3147 -1.0266  0.2190
   40MOL   H85038368   2.305   7.658   0.100 -1.9730 -1.9748 -0.2672
   40MOL   H85138369   2.153   7.648   0.164  0.9829  0.3093  0.9978
   40MOL   H85238370   2.298   7.694   0.349 -2.5557 -1.0249 -0.0367
   40MOL   H85338371   2.196   0.071   0.321 -0.6011 -1.1988  0.1307
   40MOL   H85438372   2.482   0.066   0.228 -0.6867 -2.4256  0.5843
   40MOL   H85538373   2.386   0.208   0.237  1.7277  1.1723  1.9293
   40MOL   H85638374   2.532   0.205   0.428 -1.3001  0.5824 -2.0037
   40MOL   H85738375   2.465   0.053   0.487  0.6036 -0.2679  0.0012
   40MOL   H85838376   2.299   0.334   0.812 -0.2257  0.7773  0.4252
   40MOL   H85938377   2.293   0.446   0.672 -1.9211  0.2359  1.4235
   40MOL   H86038378   2.116   0.253   0.595 -2.3810  0.2153 -0.0178
   40MOL   H86138379   2.072   0.397   0.678  0.8640  0.4412 -0.2882
   40MOL   H86238380   2.148   0.135   0.797  0.7851  0.9538  0.1848
   40MOL   H86338381   1.978   0.169   0.753 -2.1889  2.5275  2.3600
   40MOL   H86438382   1.988   0.377   0.888 -0.1646 -0.3616 -2.0825
   40MOL   H86538383   2.132   0.323   0.967 -0.5825 -0.1686  1.2239
   40MOL   O86638384   1.998   0.092   1.048  0.6874 -0.3819 -0.6421
   40MOL   C86738385   1.905   0.006   1.117 -0.7197 -0.2242 -0.2861
   40MOL   C86838386   1.963   7.629   1.144  0.5649 -0.5637  0.7924
   40MOL   C86938387   1.996   7.549   1.014 -0.8940  0.1721  0.4132
   40MOL   C87038388   2.040   7.399   1.031  0.2871 -0.3906  0.2711
   40MOL   C87138389   2.186   7.387   1.070  0.0224  0.8538 -0.0895
   40MOL   C87238390   2.238   7.248   1.095 -0.4047  0.0955 -0.0388
   40MOL   C87338391   2.254   7.167   0.962  0.6164 -0.3755  0.1475
   40MOL   C87438392   2.288   7.018   1.001 -0.3907 -0.0625  0.1389
   40MOL   C87538393   2.422   7.002   1.083 -0.3643 -0.0606 -0.0723
   40MOL   C87638394   2.490   6.865   1.056  0.6392  0.1227 -0.3758
   40MOL   O87738395   2.457   6.760   1.148 -0.4458  0.1448  0.0991
   40MOL   C87838396   2.525   6.749   1.263  0.1461  0.6649  0.2452
   40MOL   O87938397   2.619   6.816   1.307  0.1885  0.5190 -0.0660
   40MOL   C88038398   2.462   6.649   1.358 -0.0005  0.5335 -0.2430
   40MOL   C88138399   2.555   6.533   1.399  1.0405  0.6783 -0.3195
   40MOL   C88238400   2.547   6.403   1.311 -0.0043  0.0784  0.5260
   40MOL   C88338401   2.641   6.301   1.358 -0.3694 -0.0208  0.1863
   40MOL   C88438402   2.604   6.229   1.487 -0.5073  0.6301  0.2867
   40MOL   O88538403   2.524   6.277   1.569 -0.1936  0.3820  0.2148
   40MOL   H88638404   1.877   0.064   1.205 -0.3248 -0.5972  0.0903
   40MOL   H88738405   1.809   0.000   1.065 -0.3053  1.0220 -1.2004
   40MOL   H88838406   1.885   7.575   1.199 -1.1631  0.1422 -0.9245
   40MOL   H88938407   2.048   7.628   1.213  2.6773 -0.9386 -1.7487
   40MOL   H89038408   1.895   7.552   0.972 -1.6604  0.3358  2.2141
   40MOL   H89138409   2.061   7.606   0.948 -0.0500 -2.0357 -0.7252
   40MOL   H89238410   2.029   7.357   0.931  1.3162  1.9143 -0.8443
   40MOL   H89338411   1.987   7.345   1.110 -0.6934 -1.9332 -1.4120
   40MOL   H89438412   2.208   7.451   1.156 -0.4705  0.0544  0.6381
   40MOL   H89538413   2.249   7.437   0.997  1.0864 -0.1835  0.1049
   40MOL   H89638414   2.168   7.198   1.161 -0.2561  0.2952  0.2695
   40MOL   H89738415   2.335   7.265   1.140 -0.5171  0.4650  0.0640
   40MOL   H89838416   2.319   7.215   0.889 -1.9094  0.9530 -1.2810
   40MOL   H89938417   2.155   7.161   0.917  0.7201  0.9715 -0.2948
   40MOL   H90038418   2.275   6.960   0.910 -3.5327  0.1042  0.4171
   40MOL   H90138419   2.205   6.988   1.065  0.0106 -2.0240 -0.2314
   40MOL   H90238420   2.482   7.084   1.043  1.0226 -0.9465  0.1497
   40MOL   H90338421   2.412   7.032   1.187  1.9687  1.1827 -0.1864
   40MOL   H90438422   2.598   6.876   1.063  0.6966 -1.7535  2.3147
   40MOL   H90538423   2.467   6.833   0.954 -0.0418  1.8258 -0.7907
   40MOL   H90638424   2.436   6.708   1.446 -1.1032  0.9276 -0.8220
   40MOL   H90738425   2.377   6.600   1.309  0.1556  0.8900 -0.8891
   40MOL   H90838426   2.538   6.510   1.504 -2.0295  0.5592 -0.7948
   40MOL   H90938427   2.657   6.573   1.403  2.0351 -1.8124  0.6472
   40MOL   H91038428   2.559   6.426   1.205 -1.3113  0.8429  0.5250
   40MOL   H91138429   2.443   6.372   1.326 -0.1857  1.0787  1.3905
   40MOL   H91238430   2.740   6.345   1.366  0.9236 -2.2767 -2.3719
   40MOL   H91338431   2.664   6.224   1.284 -3.6844 -0.4992 -0.4345
   40MOL   O91438432   2.664   6.108   1.493  0.6111  0.1736 -0.3339
   40MOL   C91538433   2.664   6.050   1.618 -0.1950 -0.4361 -0.0951
   40MOL   C91638434   2.748   5.921   1.610  0.1757 -0.3302  0.1256
   40MOL   C91738435   2.905   5.947   1.621 -0.2582 -0.9571 -0.1771
   40MOL   C91838436   2.996   5.827   1.641 -0.0838 -0.5943 -0.6636
   40MOL   C91938437   3.009   5.795   1.791 -0.5601 -0.6831  0.5515
   40MOL   C92038438   3.053   5.652   1.826 -0.2654 -0.2744 -0.4042
   40MOL   C92138439   3.058   5.637   1.973  0.2367  0.4390 -1.1889
   40MOL   C92238440   3.125   5.505   2.018 -0.3507 -0.5411 -0.2203
   40MOL   C92338441   3.108   5.482   2.167 -0.6818  0.1639 -0.7211
   40MOL   C92438442   3.189   5.358   2.215 -0.6127 -0.8230 -0.5307
   40MOL   O92538443   3.326   5.376   2.182 -0.2802  0.0805 -0.1468
   40MOL   C92638444   3.403   5.264   2.180 -0.5405  0.0710 -0.6951
   40MOL   O92738445   3.363   5.154   2.205  0.5181 -0.0058 -0.3328
   40MOL   C92838446   3.549   5.294   2.138 -0.2772 -0.1303 -0.3454
   40MOL   C92938447   3.601   5.179   2.045  0.1978  0.8011 -0.2729
   40MOL   C93038448   3.724   5.228   1.958  0.1658 -0.4134  0.1812
   40MOL   C93138449   3.672   5.293   1.832  0.3787  0.1935  0.0259
   40MOL   C93238450   3.616   5.196   1.722  0.0634 -1.1078 -0.6514
   40MOL   O93338451   3.685   5.144   1.636 -0.0816  0.0254  0.0042
   40MOL   H93438452   2.715   6.125   1.678  1.1145 -2.0565  0.8846
   40MOL   H93538453   2.562   6.031   1.651 -0.5742  1.3548 -0.2306
   40MOL   H93638454   2.731   5.853   1.526 -0.0921 -1.4988  1.1170
   40MOL   H93738455   2.714   5.856   1.690 -0.7562  0.1754  0.1473
   40MOL   H93838456   2.945   5.994   1.531 -0.9820 -1.5737 -0.8304
   40MOL   H93938457   2.927   6.010   1.707 -1.4448  0.4693 -0.8970
   40MOL   H94038458   3.098   5.841   1.606  1.2226  0.5308  3.3250
   40MOL   H94138459   2.957   5.739   1.591  0.5487 -1.3616  0.1748
   40MOL   H94238460   2.921   5.807   1.853  0.7800  3.6032  1.7921
   40MOL   H94338461   3.084   5.863   1.832 -0.1407 -0.7304 -0.1278
   40MOL   H94438462   3.157   5.660   1.797 -0.1221 -1.1331 -0.1243
   40MOL   H94538463   3.004   5.571   1.772  0.5566 -1.2875  0.3558
   40MOL   H94638464   2.958   5.646   2.016  1.4996  1.4069  1.7074
   40MOL   H94738465   3.105   5.722   2.024 -1.7945  0.2987  1.0477
   40MOL   H94838466   3.229   5.511   1.987 -0.7150 -1.8031 -1.7889
   40MOL   H94938467   3.091   5.420   1.959 -2.5199  0.0811  0.0795
   40MOL   H95038468   3.159   5.564   2.217 -1.1223  0.3192 -0.5204
   40MOL   H95138469   3.004   5.484   2.202 -0.6609 -0.4405 -0.6128
   40MOL   H95238470   3.138   5.275   2.166 -0.1969 -1.9855  0.9657
   40MOL   H95338471   3.170   5.334   2.320 -0.1525 -1.6384 -0.6232
   40MOL   H95438472   3.553   5.391   2.088 -0.4552 -0.5357 -1.1470
   40MOL   H95538473   3.607   5.320   2.226 -2.5355  0.0498  1.1424
   40MOL   H95638474   3.528   5.123   1.987  1.2495  1.2752 -2.1170
   40MOL   H95738475   3.650   5.115   2.118 -0.1862 -0.8742 -1.4549
   40MOL   H95838476   3.786   5.140   1.940  0.0945 -0.3770 -0.2531
   40MOL   H95938477   3.796   5.287   2.013  0.1369  0.3993 -0.6437
   40MOL   H96038478   3.744   5.359   1.783 -2.4305  1.4315 -2.6209
   40MOL   H96138479   3.589   5.359   1.855  0.2234 -0.8698  2.6406
   40MOL   H96238480   3.510   5.172   1.729 -0.0095 -0.8863 -0.9719
   41MOL     O138481   1.675   4.581   4.957 -0.0310  0.3034 -0.0809
   41MOL     C238482   1.777   4.486   4.988 -0.4390 -0.1274 -0.0268
   41MOL     C338483   1.728   4.361   5.062  0.7096 -0.1310 -0.1421
   41MOL     C438484   1.622   4.282   5.000 -0.2733 -0.7995 -0.2607
   41MOL     C538485   1.571   4.167   5.089 -0.3902  0.7063  0.7505
   41MOL     C638486   1.544   4.195   5.236 -0.2126 -0.0626 -0.2702
   41MOL     C738487   1.412   4.282   5.244  0.0962  0.2811 -0.4138
   41MOL     C838488   1.287   4.194   5.238  0.0190  0.3222  0.0432
   41MOL     C938489   1.165   4.277   5.243  0.0465  0.3547 -0.0874
   41MOL    C1038490   1.034   4.192   5.253 -0.2252 -0.4581  0.4726
   41MOL    C1138491   0.902   4.267   5.277  0.3171 -0.3120 -0.5505
   41MOL    O1238492   0.796   4.175   5.285 -0.1723 -0.9578 -0.3484
   41MOL    C1338493   0.673   4.218   5.273  0.8391  0.7755  0.3893
   41MOL    O1438494   0.638   4.334   5.254  0.3158 -0.0970 -0.1639
   41MOL    C1538495   0.566   4.109   5.286 -0.4623  0.1257 -0.0730
   41MOL    C1638496   0.420   4.159   5.327  0.2460  0.4332 -0.0293
   41MOL    C1738497   0.407   4.244   5.453 -0.1753 -0.0375 -0.5252
   41MOL    C1838498   0.270   4.243   5.518 -0.0332 -0.4229  0.2470
   41MOL    C1938499   0.265   4.302   5.652  0.6646 -0.4385 -0.1967
   41MOL    O2038500   0.220   4.240   5.749  0.1963 -0.0167 -0.2787
   41MOL    H2138501   1.819   4.459   4.891  2.1766  0.9109  0.7743
   41MOL    H2238502   1.855   4.533   5.049 -1.6950  0.1994  1.3402
   41MOL    H2338503   1.691   4.397   5.159 -1.2543  0.8837 -1.2450
   41MOL    H2438504   1.812   4.297   5.090  0.4211  0.5486  2.4456
   41MOL    H2538505   1.532   4.341   4.987 -1.1651 -2.0818  0.0382
   41MOL    H2638506   1.651   4.253   4.899 -1.1098 -0.5741 -0.5662
   41MOL    H2738507   1.646   4.089   5.094 -0.0300  0.9861 -0.2132
   41MOL    H2838508   1.483   4.122   5.044 -0.3452 -0.4097  1.7470
   41MOL    H2938509   1.629   4.244   5.283 -0.1186  1.2707 -1.7848
   41MOL    H3038510   1.528   4.106   5.296 -0.2842  1.0553  1.4186
   41MOL    H3138511   1.422   4.365   5.175  0.4417 -0.2798 -1.0404
   41MOL    H3238512   1.414   4.333   5.341  0.1995 -0.9922  0.2638
   41MOL    H3338513   1.293   4.121   5.319 -0.5556  1.5919  1.2533
   41MOL    H3438514   1.296   4.132   5.149 -0.4225  2.3946 -1.4830
   41MOL    H3538515   1.156   4.344   5.158  1.1792  2.5664  1.4713
   41MOL    H3638516   1.160   4.341   5.331  0.4841  0.0238  0.1788
   41MOL    H3738517   1.022   4.132   5.163  1.3859 -0.7336  0.4349
   41MOL    H3838518   1.052   4.122   5.334  2.5904  0.4705  0.6901
   41MOL    H3938519   0.894   4.337   5.195  1.3183 -0.5587 -0.8722
   41MOL    H4038520   0.906   4.323   5.371  1.2231  1.9304 -1.8975
   41MOL    H4138521   0.558   4.044   5.199  1.3965 -1.8420  1.2001
   41MOL    H4238522   0.607   4.042   5.361 -0.8843 -0.2683 -0.1882
   41MOL    H4338523   0.347   4.077   5.332  0.3577  0.1815 -2.0607
   41MOL    H4438524   0.391   4.223   5.243 -0.7917  2.4087  1.8018
   41MOL    H4538525   0.446   4.342   5.427  0.6538 -0.3151 -0.3318
   41MOL    H4638526   0.487   4.223   5.524  2.0281  1.8149 -2.3666
   41MOL    H4738527   0.240   4.139   5.533 -0.2741 -0.4125 -0.1664
   41MOL    H4838528   0.195   4.290   5.455 -2.7399 -1.1977  2.8113
   41MOL    H4938529   1.610   4.557   4.893  1.5197 -1.1692 -1.1287
   41MOL    O5038530   0.307   4.427   5.650 -0.3250 -0.4638 -0.1097
   41MOL    C5138531   0.345   4.487   5.774  0.5515  0.0828 -0.1145
   41MOL    C5238532   0.228   4.552   5.846 -0.0227 -0.3881 -0.2457
   41MOL    C5338533   0.148   4.646   5.751 -0.3143  0.1691  0.2013
   41MOL    C5438534   0.039   4.728   5.823  0.2533 -0.0078  1.1264
   41MOL    C5538535   7.762   4.852   5.735 -0.1864  0.4882  0.2013
   41MOL    C5638536   7.637   4.928   5.777 -0.3061 -0.0484  0.3993
   41MOL    C5738537   7.638   4.974   5.931 -0.5867  0.6286 -0.5173
   41MOL    C5838538   7.544   5.090   5.961  0.4534  0.7925  0.2323
   41MOL    C5938539   7.577   5.184   6.079  0.5396  0.3317  0.7042
   41MOL    C6038540   7.503   5.320   6.075 -0.5594 -0.2280 -0.6836
   41MOL    O6138541   7.535   5.387   5.953  0.3139  0.0865 -0.2867
   41MOL    C6238542   7.656   5.459   5.948  0.0858 -0.4751  0.1526
   41MOL    O6338543   7.736   5.465   6.041  0.2566  0.0755  0.2301
   41MOL    C6438544   7.676   5.513   5.808 -0.3161 -0.2695  0.1549
   41MOL    C6538545   7.674   5.670   5.820  0.0142  0.2319  0.3772
   41MOL    C6638546   7.529   5.721   5.837  0.6317  0.0052 -0.4850
   41MOL    C6738547   7.423   5.683   5.729 -0.0465  0.0753 -0.4122
   41MOL    C6838548   7.466   5.730   5.589  0.5182 -0.1102 -0.2494
   41MOL    O6938549   7.495   5.646   5.504 -0.1019 -0.1504  0.4643
   41MOL    H7038550   0.384   4.408   5.839  3.9168  0.0791 -2.0350
   41MOL    H7138551   0.426   4.558   5.755 -0.5557  2.3450  3.3009
   41MOL    H7238552   0.258   4.612   5.933 -0.2603  1.5218 -1.4555
   41MOL    H7338553   0.164   4.473   5.883 -0.6437  0.3988  0.3841
   41MOL    H7438554   0.222   4.714   5.709  0.2293 -0.8622 -0.5275
   41MOL    H7538555   0.106   4.587   5.669 -0.1188  1.1710 -0.6378
   41MOL    H7638556   0.080   4.770   5.915 -4.1439  3.8660  1.5018
   41MOL    H7738557   7.722   4.658   5.845  1.7705 -1.2034  3.1275
   41MOL    H7838558   7.752   4.835   5.627  1.0751  0.0458  0.1423
   41MOL    H7938559   0.081   4.922   5.739  1.6163 -1.5673 -0.4265
   41MOL    H8038560   7.552   4.866   5.751 -0.9745  0.6829  0.8289
   41MOL    H8138561   7.639   5.021   5.720  1.0134 -0.3142 -0.0261
   41MOL    H8238562   7.740   5.011   5.932 -0.0435 -0.6429 -3.5947
   41MOL    H8338563   7.625   4.894   6.004 -1.7731 -0.0317 -1.4302
   41MOL    H8438564   7.442   5.051   5.967  1.4664 -2.4961 -2.4040
   41MOL    H8538565   7.531   5.143   5.867 -1.6954 -0.8286 -0.4455
   41MOL    H8638566   7.558   5.130   6.172  1.5027 -0.1364  0.6343
   41MOL    H8738567   7.683   5.206   6.087  0.7573  0.1886 -1.6528
   41MOL    H8838568   7.537   5.382   6.158 -0.0610 -0.8783 -0.3958
   41MOL    H8938569   7.396   5.311   6.088 -0.4677 -0.9453 -0.3992
   41MOL    H9038570   0.014   5.490   5.783 -0.8355 -1.3234 -0.9970
   41MOL    H9138571   7.621   5.468   5.726 -1.4449  3.0788 -1.0063
   41MOL    H9238572   7.732   5.725   5.745 -0.8757 -0.2393 -0.6746
   41MOL    H9338573   7.733   5.705   5.905 -1.1398  0.9766  0.8829
   41MOL    H9438574   7.535   5.829   5.846 -0.0728  0.1091 -1.1318
   41MOL    H9538575   7.482   5.688   5.929  2.2352  0.3828  0.4881
   41MOL    H9638576   7.329   5.734   5.747  1.4257  2.4966  0.7203
   41MOL    H9738577   7.410   5.575   5.733  0.7323 -0.0510 -1.0905
   41MOL    O9838578   7.456   5.861   5.576 -0.0578  0.3852 -0.4314
   41MOL    C9938579   7.486   5.920   5.457  0.4512 -0.0060  0.1797
   41MOL   C10038580   7.625   5.978   5.475 -0.3982 -0.2877 -0.0603
   41MOL   C10138581   7.677   6.058   5.353 -0.3489 -0.6054 -0.4790
   41MOL   C10238582   0.059   6.115   5.377 -0.5187  0.1212  1.1250
   41MOL   C10338583   0.095   6.213   5.256  0.0891 -0.2024  0.6010
   41MOL   C10438584   0.247   6.243   5.243  0.0142 -0.3885 -0.1202
   41MOL   C10538585   0.271   6.356   5.137  0.4493  0.0016  0.0535
   41MOL   C10638586   0.417   6.365   5.093 -0.2481  0.4233 -0.1065
   41MOL   C10738587   0.443   6.442   4.966 -0.2769  0.1395  0.2293
   41MOL   C10838588   0.587   6.442   4.923  0.2002  0.2695  0.2404
   41MOL   O10938589   0.665   6.518   5.015 -0.1036  0.0620  0.1709
   41MOL   C11038590   0.686   6.649   4.997 -0.1091 -0.2320 -0.4745
   41MOL   O11138591   0.619   6.711   4.914 -0.0646 -0.2618  0.3413
   41MOL   C11238592   0.800   6.706   5.079 -0.9136  0.1809 -0.1473
   41MOL   C11338593   0.863   6.826   5.005 -0.1830  0.3792  0.2132
   41MOL   C11438594   1.000   6.846   5.065  0.7391 -0.4487 -0.1345
   41MOL   C11538595   1.084   6.971   5.020  0.3650  0.2382 -0.3705
   41MOL   C11638596   1.034   7.106   5.074 -0.3830 -0.4696 -0.6938
   41MOL   O11738597   1.018   7.197   4.998  0.1312 -0.5064  0.1868
   41MOL   H11838598   7.486   5.852   5.371  0.1370  0.0824  0.1073
   41MOL   H11938599   7.412   5.997   5.434 -0.0373  0.1850  2.3029
   41MOL   H12038600   7.702   5.906   5.505 -0.0970  0.4567  0.9708
   41MOL   H12138601   7.615   6.048   5.558 -1.3493  0.4911 -0.8214
   41MOL   H12238602   7.688   5.985   5.272  0.7148 -0.2628 -0.6526
   41MOL   H12338603   7.610   6.135   5.317 -0.2568 -0.8779 -1.2509
   41MOL   H12438604   0.131   6.033   5.375  0.7692  1.2454 -3.2897
   41MOL   H12538605   0.062   6.165   5.474 -1.7873  0.3078  1.0781
   41MOL   H12638606   0.057   6.314   5.266 -0.0565 -0.2094  0.1129
   41MOL   H12738607   0.050   6.177   5.164 -2.0924  0.9038  1.2139
   41MOL   H12838608   0.301   6.149   5.230 -1.2414 -1.0376 -0.6603
   41MOL   H12938609   0.278   6.292   5.335  0.3468  0.2130 -0.5458
   41MOL   H13038610   0.250   6.452   5.183 -1.4967 -0.0292 -0.7083
   41MOL   H13138611   0.199   6.347   5.055  1.0965  2.2071 -0.7838
   41MOL   H13238612   0.453   6.264   5.073 -2.7813 -0.8923  1.5882
   41MOL   H13338613   0.479   6.417   5.166  0.8105 -0.8074 -0.1108
   41MOL   H13438614   0.378   6.402   4.888 -0.7823  1.3879 -0.0000
   41MOL   H13538615   0.409   6.545   4.961 -0.3433  0.1275  0.4294
   41MOL   H13638616   0.602   6.482   4.823 -1.3755  3.3461  1.1616
   41MOL   H13738617   0.621   6.339   4.917  2.9715  1.1144  0.9203
   41MOL   H13838618   0.761   6.736   5.176 -0.0707 -0.1727  0.3097
   41MOL   H13938619   0.872   6.626   5.096  0.7224  1.8169  0.7968
   41MOL   H14038620   0.802   6.914   5.025 -0.8469 -0.0407  0.0488
   41MOL   H14138621   0.860   6.814   4.897  2.1087  0.9898  0.0557
   41MOL   H14238622   1.066   6.761   5.049  1.2959  0.0182 -0.3629
   41MOL   H14338623   0.990   6.859   5.173  2.2695 -1.7610  0.1887
   41MOL   H14438624   1.080   6.971   4.911  0.8278  1.7608 -0.3910
   41MOL   H14538625   1.185   6.957   5.058 -0.3252  0.8604  1.7244
   41MOL   O14638626   1.014   7.111   5.208  0.3218 -0.2686 -0.2851
   41MOL   C14738627   0.983   7.230   5.269  0.4200  0.3034  0.2524
   41MOL   C14838628   0.829   7.227   5.286 -0.1842 -0.2009 -0.4101
   41MOL   C14938629   0.776   7.364   5.338  0.0821  0.3074  0.3884
   41MOL   C15038630   0.634   7.412   5.292  0.4030 -0.3640  0.0244
   41MOL   C15138631   0.596   7.559   5.325 -0.4090  0.6557  0.8318
   41MOL   C15238632   0.468   7.602   5.257  0.4287  0.2926 -0.1078
   41MOL   C15338633   0.434   7.751   5.275  0.2383  0.2801 -0.1239
   41MOL   C15438634   0.309   0.034   5.194 -0.1749  0.1013 -0.2646
   41MOL   C15538635   0.276   0.180   5.235  0.0484  0.4566 -0.1766
   41MOL   C15638636   0.139   0.225   5.188  0.0531  0.2382 -0.1856
   41MOL   O15738637   0.114   0.357   5.232  0.1654 -0.1115  0.9565
   41MOL   C15838638   7.748   0.392   5.245  0.0547  0.0843  0.2180
   41MOL   O15938639   7.651   0.327   5.204 -0.0032 -0.2709 -0.1855
   41MOL   C16038640   7.729   0.522   5.324 -0.3986 -0.2241 -0.2975
   41MOL   C16138641   0.013   0.521   5.464 -0.8628 -0.1364 -0.2815
   41MOL   C16238642   7.665   0.492   5.565 -0.5944  0.4119 -0.3281
   41MOL   C16338643   7.723   0.483   5.712  0.1154  0.3091  0.8382
   41MOL   C16438644   7.618   0.426   5.815 -0.3107  0.4759 -0.1812
   41MOL   O16538645   7.554   0.503   5.885  0.0873 -0.0189  0.0317
   41MOL   H16638646   1.036   7.233   5.364 -1.3285  1.9117  1.2223
   41MOL   H16738647   1.011   7.318   5.210  1.3641 -0.3197 -0.2339
   41MOL   H16838648   0.808   7.144   5.353  3.0277  0.9003  2.0859
   41MOL   H16938649   0.789   7.202   5.188  0.8749 -0.6257 -0.7446
   41MOL   H17038650   0.793   7.380   5.445  0.6997 -1.0163  0.4970
   41MOL   H17138651   0.843   7.442   5.301 -0.4865  1.0153  0.8183
   41MOL   H17238652   0.556   7.341   5.321 -1.0507  1.6704  1.2190
   41MOL   H17338653   0.638   7.403   5.183 -1.5021 -0.2373 -0.0785
   41MOL   H17438654   0.677   7.621   5.286  0.1746  1.1841  2.8178
   41MOL   H17538655   0.595   7.575   5.433 -0.9469  0.5969  0.8357
   41MOL   H17638656   0.391   7.534   5.293  2.1525 -2.1444 -0.8434
   41MOL   H17738657   0.475   7.570   5.153 -1.0081  0.9795 -0.4202
   41MOL   H17838658   0.514   0.051   5.239  1.1717  0.7218  2.6135
   41MOL   H17938659   0.428   7.757   5.383  0.3682  0.4909 -0.1289
   41MOL   H18038660   0.231   7.725   5.212  0.5210 -0.1456  1.8335
   41MOL   H18138661   0.331   0.032   5.087 -2.6028 -0.2163 -0.7992
   41MOL   H18238662   0.309   0.190   5.338  0.2845  2.8149 -0.4629
   41MOL   H18338663   0.358   0.235   5.190  1.2822  0.7255  2.3007
   41MOL   H18438664   0.069   0.143   5.198  1.2643 -1.0050 -1.5723
   41MOL   H18538665   0.148   0.233   5.079 -2.0909 -1.6240 -0.5291
   41MOL   H18638666   0.022   0.593   5.264  1.3530 -0.5639  0.9291
   41MOL   H18738667   7.623   0.548   5.326 -0.2281  0.4846 -0.3252
   41MOL   H18838668   0.057   0.621   5.464 -0.1129 -0.4501 -1.1898
   41MOL   H18938669   0.091   0.445   5.476 -1.5212 -0.3361  3.0390
   41MOL   H19038670   7.614   0.399   5.541  0.8256 -0.8926  1.5119
   41MOL   H19138671   7.596   0.576   5.560 -2.3767 -1.0084 -0.3223
   41MOL   H19238672   7.760   0.582   5.740  0.0464  0.9446 -1.2298
   41MOL   H19338673   0.043   0.414   5.709  0.9098  1.3449 -1.3268
   41MOL   O19438674   7.605   0.291   5.835  0.6043  0.5721  0.3031
   41MOL   C19538675   7.522   0.244   5.939 -0.2557 -0.3417  0.3078
   41MOL   C19638676   7.501   0.098   5.904  0.3231  0.2412 -0.3554
   41MOL   C19738677   7.431   0.078   5.769 -0.3339 -0.4301  0.7850
   41MOL   C19838678   7.427   7.691   5.743  0.3027  0.5989  1.4546
   41MOL   C19938679   7.369   7.660   5.596 -0.0758 -0.4188 -0.4508
   41MOL   C20038680   7.384   7.508   5.555  0.0700  0.6689  1.0044
   41MOL   C20138681   7.346   7.470   5.415  0.0073  0.0138 -0.5872
   41MOL   C20238682   7.442   7.520   5.306 -0.0870 -0.4752 -0.3452
   41MOL   C20338683   7.371   7.520   5.170 -0.4271 -0.4591  0.7760
   41MOL   C20438684   7.428   7.598   5.043 -0.2236  0.3228 -1.0399
   41MOL   O20538685   7.564   7.565   5.014 -0.0381 -0.2646  0.1144
   41MOL   C20638686   7.667   7.635   5.063 -0.5314 -0.7407 -1.1628
   41MOL   O20738687   7.672   7.722   5.146  0.1340 -0.2188 -0.3083
   41MOL   C20838688   0.032   7.587   4.997 -0.6141 -0.6203  0.0307
   41MOL   C20938689   0.080   7.686   4.889 -0.8000  0.4637 -0.3965
   41MOL   C21038690   0.012   7.659   4.753  0.1585  0.4138 -0.2128
   41MOL   C21138691   0.036   0.014   4.655 -0.3532 -0.0514 -0.2749
   41MOL   C21238692   0.153   7.752   4.563  0.5280  0.5460  0.1177
   41MOL   O21338693   0.135   7.746   4.440  0.3498 -0.3086  0.7463
   41MOL   H21438694   7.569   0.251   6.037 -1.6562 -2.7704  1.1797
   41MOL   H21538695   7.431   0.305   5.947  0.5639  0.9047  0.2567
   41MOL   H21638696   7.453   0.050   5.989  1.8594 -1.1054 -0.2241
   41MOL   H21738697   7.599   0.050   5.902 -0.2165 -0.9483  1.1227
   41MOL   H21838698   7.333   0.124   5.760  0.3573  0.5199 -2.3224
   41MOL   H21938699   7.483   0.128   5.688  1.4753 -0.3768  1.9645
   41MOL   H22038700   7.367   7.633   5.813 -1.4591  0.1177 -0.4026
   41MOL   H22138701   7.525   7.644   5.743  0.9461  1.9052  0.1269
   41MOL   H22238702   7.413   7.733   5.530 -0.3284 -0.9276 -1.1916
   41MOL   H22338703   7.262   7.682   5.596  0.2688  1.7440  3.6150
   41MOL   H22438704   7.333   7.433   5.616 -1.5726 -0.6272 -1.8608
   41MOL   H22538705   7.487   7.474   5.562 -0.5820 -1.3072  1.3553
   41MOL   H22638706   7.252   7.522   5.402 -0.7394 -1.3282 -0.6466
   41MOL   H22738707   7.335   7.362   5.406 -0.9622  0.2499 -2.5418
   41MOL   H22838708   7.542   7.476   5.311  0.7098  1.5510  2.6761
   41MOL   H22938709   7.461   7.626   5.322  1.5634 -0.8579  0.3824
   41MOL   H23038710   7.356   7.419   5.130  0.9707 -0.4075  0.0704
   41MOL   H23138711   7.268   7.553   5.183 -0.3784 -0.3545  0.8968
   41MOL   H23238712   7.415   7.707   5.046 -3.7908 -0.0335 -1.4613
   41MOL   H23338713   7.378   7.567   4.951 -2.5836  0.2588  0.2356
   41MOL   H23438714   0.116   7.574   5.065  0.1450 -0.3887 -0.8599
   41MOL   H23538715   0.031   7.486   4.957  1.7105 -0.1948 -1.1634
   41MOL   H23638716   0.187   7.670   4.877 -0.8138 -1.8580  2.0748
   41MOL   H23738717   0.062   0.027   4.912 -0.7646  1.1544 -3.3764
   41MOL   H23838718   7.668   7.657   4.761  0.1592 -1.2838 -0.4426
   41MOL   H23938719   0.053   7.570   4.704  0.3842  0.4211 -0.0351
   41MOL   H24038720   0.042   0.107   4.711  0.5752 -1.2812  1.7573
   41MOL   H24138721   7.708   0.022   4.599 -0.7309 -1.3991  0.1351
   41MOL   O24238722   0.266   7.757   4.625  0.5346  0.5918  0.6127
   41MOL   C24338723   0.386   7.762   4.555 -0.5117 -0.2547  0.5239
   41MOL   C24438724   0.463   0.109   4.632  0.4574  0.5308 -0.1059
   41MOL   C24538725   0.408   0.246   4.611  0.5002  0.3607  0.1542
   41MOL   C24638726   0.482   0.344   4.703 -0.1356  0.2110 -0.1846
   41MOL   C24738727   0.424   0.346   4.849 -0.0851 -0.4903 -0.5924
   41MOL   C24838728   0.470   0.480   4.918  0.3507  0.3823  0.1986
   41MOL   C24938729   0.418   0.498   5.062  0.3104  0.4442 -0.0940
   41MOL   C25038730   0.441   0.642   5.108 -0.6097 -0.1174  0.3260
   41MOL   C25138731   0.372   0.668   5.246  0.9556 -0.2472 -0.0774
   41MOL   C25238732   0.397   0.809   5.311 -0.5733 -0.2640 -0.6474
   41MOL   O25338733   0.373   0.813   5.449  0.1293  0.1983 -0.6326
   41MOL   C25438734   0.313   0.914   5.504 -0.3096 -0.4876  0.3574
   41MOL   O25538735   0.247   0.997   5.444  0.3371 -0.4898  0.6223
   41MOL   C25638736   0.346   0.916   5.650 -0.6371  0.3445  0.1094
   41MOL   C25738737   0.290   0.802   5.740  0.3046  0.0149  0.5841
   41MOL   C25838738   0.348   0.796   5.883  0.1847  0.0625  0.4178
   41MOL   C25938739   0.491   0.756   5.880  0.5525 -0.0218  0.1713
   41MOL   C26038740   0.511   0.605   5.896  0.2576 -1.1113  0.2358
   41MOL   O26138741   0.585   0.560   5.982  0.0452 -0.4840  0.4561
   41MOL   H26238742   0.437   7.667   4.568 -1.0488 -0.5033  0.7796
   41MOL   H26338743   0.369   0.027   4.452  0.4389  2.8207  1.1764
   41MOL   H26438744   0.568   0.118   4.601  0.0921  0.9048 -1.2787
   41MOL   H26538745   0.470   0.073   4.734  1.2119 -0.6804 -0.5675
   41MOL   H26638746   0.417   0.285   4.510  1.2436  1.0217  0.4726
   41MOL   H26738747   0.300   0.243   4.631  0.7311 -1.2611  1.2729
   41MOL   H26838748   0.471   0.444   4.661 -1.6163 -0.0505 -0.4451
   41MOL   H26938749   0.590   0.327   4.707 -0.4397 -1.2978  1.7628
   41MOL   H27038750   0.448   0.260   4.912 -3.5701  0.5454  2.2641
   41MOL   H27138751   0.317   0.351   4.831 -0.6206 -0.1170  2.4360
   41MOL   H27238752   0.458   0.565   4.851 -0.1187 -1.0002 -1.5213
   41MOL   H27338753   0.579   0.483   4.920  0.3993  0.4690 -1.5867
   41MOL   H27438754   0.467   0.429   5.131  0.3566 -0.3573 -0.9113
   41MOL   H27538755   0.317   0.456   5.061  0.4887  0.0398 -2.5047
   41MOL   H27638756   0.385   0.704   5.039  0.4669  0.7656  0.2299
   41MOL   H27738757   0.547   0.666   5.116 -0.6283 -0.4981  1.9651
   41MOL   H27838758   0.266   0.644   5.238  0.0713  3.4260 -0.3237
   41MOL   H27938759   0.413   0.593   5.314  1.0925  2.9015  3.5351
   41MOL   H28038760   0.337   0.878   5.253 -2.7936 -0.2840  1.5404
   41MOL   H28138761   0.500   0.831   5.282 -0.5126  0.8442  0.3676
   41MOL   H28238762   0.454   0.931   5.646 -0.8588  2.6138  1.7204
   41MOL   H28338763   0.306   1.003   5.702  2.1400  1.4322  0.5582
   41MOL   H28438764   0.296   0.707   5.688 -2.5790  0.4245 -0.5912
   41MOL   H28538765   0.183   0.825   5.739  0.2207 -0.4253 -0.1015
   41MOL   H28638766   0.296   0.721   5.942 -4.4075  0.1360 -3.2816
   41MOL   H28738767   0.327   0.889   5.936 -0.6699 -0.8638  1.7133
   41MOL   H28838768   0.546   0.798   5.964  2.2366 -2.2164  0.2173
   41MOL   H28938769   0.535   0.789   5.786  0.6974 -2.8729 -0.8297
   41MOL   O29038770   0.443   0.537   5.801 -0.1782  0.0275 -0.0790
   41MOL   C29138771   0.470   0.395   5.798 -0.1276  0.0849  0.4289
   41MOL   C29238772   0.412   0.338   5.671 -0.4400  0.5749 -0.7341
   41MOL   C29338773   0.456   0.196   5.628  0.0997  0.2188  0.0058
   41MOL   C29438774   0.586   0.184   5.553 -0.3947  0.8973  0.1953
   41MOL   C29538775   0.715   0.215   5.631  0.0822  0.7803  0.1553
   41MOL   C29638776   0.847   0.182   5.553 -0.1566  0.3998  0.7403
   41MOL   C29738777   0.972   0.227   5.627 -0.3266 -0.5308 -0.4275
   41MOL   C29838778   1.097   0.245   5.536 -0.0519 -0.1379  0.2276
   41MOL   C29938779   1.100   0.357   5.431  0.4655 -0.5119  1.3775
   41MOL   C30038780   1.225   0.351   5.337  0.0813  0.0575 -0.7462
   41MOL   O30138781   1.225   0.466   5.260 -0.0573  0.0914 -0.3705
   41MOL   C30238782   1.280   0.458   5.140 -1.0352  0.4797  0.1102
   41MOL   O30338783   1.317   0.357   5.077 -0.3498 -0.0351 -0.0427
   41MOL   C30438784   1.276   0.598   5.072 -0.1023 -0.7371 -0.8394
   41MOL   C30538785   1.230   0.588   4.923 -0.1962 -0.2846 -0.4310
   41MOL   C30638786   1.111   0.501   4.895  0.3073 -0.3040  0.0722
   41MOL   C30738787   1.086   0.490   4.742 -0.3721 -0.4455  0.1106
   41MOL   C30838788   0.952   0.429   4.702  1.1631  0.1484 -0.0070
   41MOL   O30938789   0.874   0.387   4.790 -0.1761  0.1852 -0.3001
   41MOL   H31038790   0.578   0.379   5.793  0.0111  1.1049 -0.1334
   41MOL   H31138791   0.423   0.337   5.877 -0.3985  0.5371  0.6066
   41MOL   H31238792   0.432   0.409   5.590 -0.2165 -0.4988 -1.6312
   41MOL   H31338793   0.306   0.317   5.685 -0.0311 -1.1332 -0.0734
   41MOL   H31438794   0.449   0.128   5.713  0.5019 -0.0066 -0.1418
   41MOL   H31538795   0.384   0.155   5.557 -0.7800 -0.3194  1.1911
   41MOL   H31638796   0.587   0.239   5.459  1.9536  2.0644  0.8627
   41MOL   H31738797   0.594   0.082   5.514 -0.6692  1.0160 -0.1796
   41MOL   H31838798   0.708   0.167   5.729  0.8482  2.4214  1.0186
   41MOL   H31938799   0.717   0.320   5.656 -2.5659  0.7679  0.6127
   41MOL   H32038800   0.849   0.234   5.458  1.2532  1.2338  1.2158
   41MOL   H32138801   0.855   0.075   5.538  1.5398  0.7020 -0.6267
   41MOL   H32238802   0.992   0.157   5.709 -0.8592  0.2634  0.3944
   41MOL   H32338803   0.951   0.321   5.679 -1.0298  0.0566 -1.7622
   41MOL   H32438804   1.104   0.149   5.485 -1.7792  0.4814 -1.1737
   41MOL   H32538805   1.182   0.264   5.603 -2.5869 -0.2275  3.6069
   41MOL   H32638806   1.006   0.362   5.375  0.9225  1.9291  0.7334
   41MOL   H32738807   1.116   0.458   5.470  1.2647  1.2228 -3.1319
   41MOL   H32838808   1.227   0.266   5.270  2.1749  1.8301 -3.0383
   41MOL   H32938809   1.315   0.358   5.397 -1.6634  2.5366  1.7371
   41MOL   H33038810   1.203   0.657   5.127  0.8220  0.3081 -0.7380
   41MOL   H33138811   1.369   0.653   5.080  0.8685 -1.9701 -3.1379
   41MOL   H33238812   1.312   0.552   4.860 -0.6503 -0.6126 -0.8470
   41MOL   H33338813   1.205   0.685   4.881  1.9329  0.4098 -0.1608
   41MOL   H33438814   1.021   0.547   4.937 -0.8969 -0.8764 -1.8278
   41MOL   H33538815   1.122   0.399   4.933  0.3270  0.1586  1.3440
   41MOL   H33638816   1.166   0.440   4.686  0.6064  2.0704 -0.8354
   41MOL   H33738817   1.085   0.589   4.696  0.4722 -0.7329 -0.5499
   41MOL   O33838818   0.939   0.444   4.568 -0.4420  0.5991 -0.1472
   41MOL   C33938819   0.824   0.405   4.511 -0.2002  0.0179  0.5106
   41MOL   C34038820   0.794   0.486   4.383  0.0096  0.4368 -0.6952
   41MOL   C34138821   0.653   0.447   4.347  0.5482  0.1314  0.5830
   41MOL   C34238822   0.604   0.498   4.215 -0.1755 -0.7910 -0.0692
   41MOL   C34338823   0.457   0.463   4.183  0.4278 -0.2765 -0.5459
   41MOL   C34438824   0.410   0.532   4.052 -0.0629  0.6971 -0.0110
   41MOL   C34538825   0.384   0.681   4.073  0.1608 -0.1342  0.3726
   41MOL   C34638826   0.263   0.731   3.989 -0.1838 -0.1077  0.1680
   41MOL   C34738827   0.285   0.720   3.835  0.5090 -0.2646  0.9103
   41MOL   C34838828   0.167   0.774   3.760 -0.1831  0.4714  0.0255
   41MOL   O34938829   0.069   0.673   3.725  0.4635  0.0455  0.0461
   41MOL   C35038830   7.715   0.708   3.680 -0.3295  0.9175  0.1628
   41MOL   O35138831   7.671   0.823   3.662  0.7634 -0.3841  0.3228
   41MOL   C35238832   7.627   0.586   3.644 -0.3448 -0.0218  0.0511
   41MOL   C35338833   7.518   0.621   3.548  0.0711  0.5486  0.0191
   41MOL   C35438834   7.448   0.485   3.509  0.5024  0.3151  0.1359
   41MOL   C35538835   7.359   0.502   3.386 -0.2823 -0.3167 -0.4332
   41MOL   C35638836   7.218   0.560   3.420 -0.0945 -0.3124 -0.1653
   41MOL   O35738837   7.183   0.678   3.425 -0.1748  0.2879  0.5164
   41MOL   H35838838   0.842   0.299   4.490 -0.9163 -0.2045  1.0233
   41MOL   H35938839   0.739   0.422   4.577 -1.6825 -0.3499 -1.2709
   41MOL   H36038840   0.863   0.436   4.315  3.1477  2.7552  0.6613
   41MOL   H36138841   0.833   0.588   4.380  1.6139 -0.0794  1.6633
   41MOL   H36238842   0.646   0.339   4.357 -2.1575  0.0857 -1.3712
   41MOL   H36338843   0.589   0.489   4.425 -0.1036 -1.0589  0.6992
   41MOL   H36438844   0.664   0.452   4.137 -1.2165 -0.8657 -0.8225
   41MOL   H36538845   0.638   0.601   4.203  4.7224 -2.3593 -0.8479
   41MOL   H36638846   0.399   0.502   4.267  1.4630  1.4399 -0.6137
   41MOL   H36738847   0.446   0.355   4.180 -1.2748 -0.1203 -0.1276
   41MOL   H36838848   0.322   0.480   4.015 -1.4654  0.3738  3.5011
   41MOL   H36938849   0.493   0.516   3.983  0.4630 -2.1511  1.1971
   41MOL   H37038850   0.473   0.738   4.044 -0.0522  1.8509  3.4303
   41MOL   H37138851   0.355   0.702   4.175 -3.2166 -1.3513 -0.2804
   41MOL   H37238852   0.248   0.838   4.007 -4.7034 -0.6010 -0.1911
   41MOL   H37338853   0.168   0.682   4.009  0.1536 -1.0134 -0.4113
   41MOL   H37438854   0.368   0.787   3.814 -1.7107  1.2898 -3.3981
   41MOL   H37538855   0.304   0.619   3.798  0.0785  0.5269 -1.5106
   41MOL   H37638856   0.200   0.809   3.662  0.7080 -0.3679  0.0228
   41MOL   H37738857   0.120   0.861   3.805  0.6982  1.5877 -1.1726
   41MOL   H37838858   7.686   0.504   3.603  1.5583  1.0264  0.6141
   41MOL   H37938859   7.593   0.544   3.739  1.0732 -0.5630  0.3330
   41MOL   H38038860   7.559   0.674   3.463  0.7076  1.3151  0.7891
   41MOL   H38138861   7.442   0.691   3.584  1.2220  1.9320 -0.2171
   41MOL   H38238862   7.385   0.458   3.593 -0.1973  0.0979 -0.4512
   41MOL   H38338863   7.515   0.401   3.493 -1.5516 -1.2640 -0.3853
   41MOL   H38438864   7.357   0.412   3.325 -3.6910 -0.3001 -0.4443
   41MOL   H38538865   7.405   0.568   3.312 -1.7821 -0.2090 -1.2964
   41MOL   O38638866   7.135   0.456   3.450  0.3127  0.3283 -0.0428
   41MOL   C38738867   7.009   0.483   3.495  0.1161  0.1917 -0.0481
   41MOL   C38838868   6.922   0.529   3.372  0.1543 -0.5306 -0.7190
   41MOL   C38938869   6.771   0.523   3.409 -0.1171  0.5361 -0.0866
   41MOL   C39038870   6.672   0.572   3.303  0.1520 -0.3390  0.0246
   41MOL   C39138871   6.526   0.583   3.355 -0.1132  0.1969  0.5307
   41MOL   C39238872   6.432   0.590   3.239 -0.3041 -0.9257  0.0529
   41MOL   C39338873   6.296   0.641   3.292 -0.3949 -0.6245 -0.0109
   41MOL   C39438874   6.193   0.634   3.184 -0.0429 -0.3487  0.8287
   41MOL   C39538875   6.054   0.661   3.241  0.8944 -0.1687  0.3040
   41MOL   C39638876   5.937   0.659   3.146  0.1629  0.5969 -0.8677
   41MOL   O39738877   5.915   0.530   3.088 -0.0963 -0.5490  0.5693
   41MOL   C39838878   5.829   0.443   3.130  0.6367  0.4002 -0.6401
   41MOL   O39938879   5.776   0.454   3.237 -0.0159 -0.1030  0.0004
   41MOL   C40038880   5.800   0.334   3.030  0.3274  0.3604  0.3083
   41MOL   C40138881   5.682   0.237   3.062 -0.2304  0.2685 -0.4316
   41MOL   C40238882   5.532   0.295   3.066 -0.0903 -0.8619 -0.4660
   41MOL   C40338883   5.487   0.336   2.928 -0.0568  0.0330  0.5912
   41MOL   C40438884   5.539   0.478   2.893  0.3072  0.3409  0.7761
   41MOL   O40538885   5.557   0.558   2.983 -0.3181 -0.4975 -0.2986
   41MOL   H40638886   6.962   0.391   3.530  2.5749 -1.9777 -2.1966
   41MOL   H40738887   7.009   0.550   3.581 -1.4258  1.9345 -1.4000
   41MOL   H40838888   6.960   0.466   3.291  2.7631 -2.2877  1.7754
   41MOL   H40938889   6.954   0.630   3.347 -1.4757  0.8491  2.4891
   41MOL   H41038890   6.749   0.419   3.431  2.9900 -0.5199 -1.5989
   41MOL   H41138891   6.766   0.579   3.503  1.2322 -2.2386  1.7064
   41MOL   H41238892   6.678   0.507   3.215  1.8282 -0.8432  0.4882
   41MOL   H41338893   6.692   0.675   3.271 -2.1718 -0.8963 -3.5641
   41MOL   H41438894   6.532   0.660   3.431  0.9039  1.7127 -1.0547
   41MOL   H41538895   6.502   0.492   3.411  0.9560 -0.0189  0.6528
   41MOL   H41638896   6.423   0.496   3.184  2.3986 -2.9021  2.8262
   41MOL   H41738897   6.469   0.665   3.169 -1.7655 -0.0267  0.2175
   41MOL   H41838898   6.309   0.746   3.318  0.9788 -0.5592 -0.9103
   41MOL   H41938899   6.252   0.600   3.383  0.1309  1.0989  1.0389
   41MOL   H42038900   6.191   0.539   3.130 -0.2843  0.2767 -0.2644
   41MOL   H42138901   6.221   0.709   3.110  3.7915 -0.7884  1.7470
   41MOL   H42238902   6.028   0.596   3.324  1.7850  0.4577  1.0798
   41MOL   H42338903   6.063   0.756   3.292  0.5799  0.5078 -0.8761
   41MOL   H42438904   5.958   0.737   3.072 -0.2351  0.5998 -0.9782
   41MOL   H42538905   5.848   0.691   3.200  0.6498  0.1834  0.1953
   41MOL   H42638906   5.799   0.372   2.928  1.3912 -0.2674  0.0581
   41MOL   H42738907   5.891   0.274   3.028 -1.5139 -2.5076 -0.2175
   41MOL   H42838908   5.708   0.197   3.160 -0.7032  1.4769  0.1994
   41MOL   H42938909   5.692   0.159   2.987  1.5552  1.6648 -1.7251
   41MOL   H43038910   5.522   0.368   3.146 -0.1848  0.4329 -1.6414
   41MOL   H43138911   5.471   0.210   3.097 -1.7961  0.0976 -1.1563
   41MOL   H43238912   5.379   0.348   2.933 -0.0324 -0.0713  1.4798
   41MOL   H43338913   5.517   0.259   2.857  0.9028  0.4880  0.4940
   41MOL   O43438914   5.574   0.493   2.766  0.5025  0.1787  0.0095
   41MOL   C43538915   5.642   0.615   2.721 -0.0297  0.5340 -0.9047
   41MOL   C43638916   5.792   0.612   2.752  0.1738 -0.2994  0.5897
   41MOL   C43738917   5.880   0.732   2.718 -0.0957  0.1359 -0.9518
   41MOL   C43838918   6.029   0.706   2.764 -0.6581 -0.8743  0.0243
   41MOL   C43938919   6.104   0.838   2.811 -0.2021  0.7206  0.2478
   41MOL   C44038920   6.258   0.822   2.817  0.7666  0.0060 -0.0910
   41MOL   C44138921   6.333   0.936   2.894 -0.1950  0.2155  0.0208
   41MOL   C44238922   6.482   0.906   2.903  0.1033  0.3119 -0.1673
   41MOL   C44338923   6.564   1.025   2.954 -0.2452  0.3103  0.3829
   41MOL   C44438924   6.711   1.021   2.928 -0.1003  1.0007 -0.3746
   41MOL   O44538925   6.773   0.917   3.007  0.3798  0.2125 -0.5206
   41MOL   C44638926   6.820   0.801   2.951  0.0441  0.2846 -0.1815
   41MOL   O44738927   6.800   0.760   2.834  0.1088 -0.2076 -0.0790
   41MOL   C44838928   6.900   0.720   3.054 -0.0259  0.7026 -0.1849
   41MOL   C44938929   7.036   0.771   3.073 -0.7854  0.0300  0.1196
   41MOL   C45038930   7.125   0.733   2.946 -0.1340 -0.0453 -0.2607
   41MOL   C45138931   7.264   0.796   2.944 -0.4544 -0.2006  0.3498
   41MOL   C45238932   7.358   0.772   3.063  0.3047 -0.2779  0.1511
   41MOL   O45338933   7.419   0.669   3.090  0.1058  0.2499 -0.3855
   41MOL   H45438934   5.608   0.631   2.619  0.0828  1.5003 -0.7934
   41MOL   H45538935   5.592   0.699   2.770  0.3603  0.4542 -0.3577
   41MOL   H45638936   5.831   0.533   2.688 -0.6042  1.6052 -2.3758
   41MOL   H45738937   5.800   0.590   2.858  0.1278  1.7606  1.0433
   41MOL   H45838938   5.884   0.750   2.610  1.7242  1.0456 -0.7491
   41MOL   H45938939   5.847   0.826   2.762  0.3798  0.3338 -1.0092
   41MOL   H46038940   6.085   0.656   2.685 -0.4391  0.4871 -0.6835
   41MOL   H46138941   6.030   0.638   2.850  0.3885 -0.8626  0.0339
   41MOL   H46238942   6.059   0.869   2.906  1.3138 -0.2818  1.3344
   41MOL   H46338943   6.102   0.921   2.741  0.6360  1.8492  1.5418
   41MOL   H46438944   6.308   0.808   2.722  0.4583  0.7082 -0.3558
   41MOL   H46538945   6.280   0.736   2.881 -0.2528  0.1374  0.4507
   41MOL   H46638946   6.301   0.953   2.997 -4.6314  1.9445 -1.5121
   41MOL   H46738947   6.320   1.036   2.853 -3.0248 -1.0865 -2.4483
   41MOL   H46838948   6.525   0.860   2.814  0.5545  0.2899  0.0569
   41MOL   H46938949   6.483   0.821   2.973  0.2467 -0.2797 -0.8799
   41MOL   H47038950   6.530   1.114   2.902  0.9839 -0.6574 -2.1890
   41MOL   H47138951   6.541   1.041   3.059 -0.1918 -0.5233  0.5275
   41MOL   H47238952   6.754   1.118   2.953  1.2496  0.4532 -0.5448
   41MOL   H47338953   6.726   1.009   2.820 -0.3887  1.3318 -0.4512
   41MOL   H47438954   6.843   0.731   3.146  0.0623  2.0607 -0.2736
   41MOL   H47538955   6.902   0.612   3.039  0.8161  0.6089  0.5786
   41MOL   H47638956   7.077   0.720   3.160 -1.4311 -0.5127  0.1088
   41MOL   H47738957   7.030   0.879   3.081  0.6575  0.2412 -1.3541
   41MOL   H47838958   7.084   0.760   2.849 -3.6180  2.2486  1.7045
   41MOL   H47938959   7.133   0.624   2.946  0.3317 -0.0100 -1.7543
   41MOL   H48038960   7.250   0.903   2.925  0.2383 -0.5391 -2.2049
   41MOL   H48138961   7.314   0.761   2.854  0.0554 -2.7954  1.5915
   41MOL   O48238962   7.370   0.888   3.128  0.0770  0.1282 -0.2450
   41MOL   C48338963   7.411   0.903   3.258  0.2109 -0.0293 -0.2181
   41MOL   C48438964   7.332   1.016   3.336 -0.4305  0.3834  0.2905
   41MOL   C48538965   7.369   1.033   3.490  0.5555  1.1992  0.0057
   41MOL   C48638966   7.317   1.162   3.554  0.3096 -0.2813  0.4102
   41MOL   C48738967   7.337   1.172   3.706  0.3810  0.0031 -0.7036
   41MOL   C48838968   7.283   1.312   3.758 -0.8079 -0.4963 -0.6661
   41MOL   C48938969   7.256   1.332   3.911  0.2813 -0.0452  0.4153
   41MOL   C49038970   7.276   1.473   3.965 -0.0827  0.3492 -0.1984
   41MOL   C49138971   7.266   1.472   4.123  0.1214 -0.0856  0.8152
   41MOL   C49238972   7.408   1.474   4.187 -0.4137  0.3242  0.7670
   41MOL   O49338973   7.397   1.450   4.328  0.7026 -0.2847 -0.1619
   41MOL   C49438974   7.496   1.418   4.402  0.4392  0.3032  0.4355
   41MOL   O49538975   7.604   1.397   4.350  0.3720  0.1934  0.1338
   41MOL   C49638976   7.474   1.419   4.552 -0.4383 -0.2052  0.0207
   41MOL   C49738977   7.602   1.405   4.646  0.0077 -0.1658  0.8961
   41MOL   C49838978   7.575   1.463   4.789  1.4359 -0.0482 -0.0819
   41MOL   C49938979   7.674   1.429   4.901  0.2408  0.2234  0.0711
   41MOL   C50038980   0.060   1.451   4.870  0.3177  0.2238 -0.1590
   41MOL   O50138981   0.127   1.354   4.842 -0.2217 -0.5704 -0.0918
   41MOL   H50238982   7.386   0.809   3.308 -1.1740  0.4534 -0.0078
   41MOL   H50338983   7.520   0.915   3.264  0.2879 -0.8959  0.2494
   41MOL   H50438984   7.226   0.993   3.337 -0.3083 -0.2437 -1.1721
   41MOL   H50538985   7.349   1.114   3.292  0.1436  0.5508  0.8696
   41MOL   H50638986   7.338   0.949   3.552  0.5157 -0.3951 -2.1424
   41MOL   H50738987   7.478   1.022   3.494  0.4971 -0.0742 -1.4881
   41MOL   H50838988   7.211   1.177   3.538  0.3741 -1.4660 -1.2929
   41MOL   H50938989   7.368   1.245   3.505  0.1124  0.3109  1.2047
   41MOL   H51038990   7.443   1.166   3.730  0.1150 -1.4515  0.1232
   41MOL   H51138991   7.296   1.083   3.752  0.2612 -1.6579 -3.8662
   41MOL   H51238992   7.189   1.332   3.706 -2.0175 -0.7269  1.3753
   41MOL   H51338993   7.355   1.383   3.717 -0.8120  0.1501  0.4313
   41MOL   H51438994   7.331   1.275   3.964 -1.2702 -0.9272  1.7049
   41MOL   H51538995   7.164   1.285   3.945  0.0714  0.9734  1.2891
   41MOL   H51638996   7.215   1.547   3.914  0.2829  1.2740  0.6946
   41MOL   H51738997   7.375   1.515   3.943  1.1875 -1.6801  1.4286
   41MOL   H51838998   7.212   1.563   4.147 -0.5812 -0.2602 -0.0886
   41MOL   H51938999   7.216   1.382   4.159  1.2656 -0.0989  2.4206
   41MOL   H52039000   7.465   1.563   4.159 -1.6959  1.0088  0.2724
   41MOL   H52139001   7.469   1.397   4.139 -0.9740  0.4666 -0.1861
   41MOL   H52239002   7.410   1.506   4.561 -1.6077 -0.5509 -3.9886
   41MOL   H52339003   7.411   1.336   4.583 -3.5837  1.5374 -1.5195
   41MOL   H52439004   7.688   1.450   4.597 -1.3587  0.5289 -0.8959
   41MOL   H52539005   7.636   1.301   4.654 -0.8703 -0.5569 -0.4528
   41MOL   H52639006   7.479   1.429   4.828  1.1739 -0.0879 -0.7609
   41MOL   H52739007   7.555   1.570   4.779 -2.5141 -0.7499 -0.4886
   41MOL   H52839008   7.660   1.323   4.922 -0.7906  0.5955  1.3865
   41MOL   H52939009   7.627   1.475   4.988 -0.0865  0.7391 -0.3762
   41MOL   O53039010   0.099   1.574   4.868  0.3102 -0.2947 -0.2555
   41MOL   C53139011   0.238   1.598   4.850 -0.7882  0.2835 -0.0870
   41MOL   C53239012   0.267   1.745   4.889  0.8011 -0.1060 -0.3557
   41MOL   C53339013   0.252   1.769   5.037  0.5594 -0.0675 -0.3885
   41MOL   C53439014   0.260   1.921   5.075  0.0414 -0.2961 -0.1274
   41MOL   C53539015   0.197   1.943   5.216 -0.4868  0.2728 -0.8864
   41MOL   C53639016   0.256   1.871   5.339 -0.3113  0.8894 -0.2802
   41MOL   C53739017   0.160   1.893   5.462  0.1875  0.2616  0.1987
   41MOL   C53839018   0.175   1.785   5.570 -0.1456 -0.0701 -0.5208
   41MOL   C53939019   0.068   1.793   5.676 -0.1945 -0.5157 -0.0478
   41MOL   C54039020   0.102   1.724   5.813  0.4061  0.6688 -0.1888
   41MOL   O54139021   0.091   1.581   5.792  0.1066  0.1978  0.4082
   41MOL   C54239022   0.094   1.500   5.886 -0.1540  0.0235 -0.3638
   41MOL   O54339023   0.095   1.537   6.002  0.8095 -0.4778 -0.4562
   41MOL   C54439024   0.115   1.353   5.836 -0.6581 -0.0851 -0.3753
   41MOL   C54539025   0.089   1.244   5.941 -0.1043 -0.0014 -0.5814
   41MOL   C54639026   7.706   1.240   5.986  0.5555  0.1411 -0.2954
   41MOL   C54739027   7.661   1.117   6.056 -0.6614  0.0709 -0.4000
   41MOL   C54839028   7.515   1.116   6.099 -0.2284  0.3499 -0.9192
   41MOL   O54939029   7.422   1.064   6.035  0.2987  0.6305  0.4616
   41MOL   H55039030   0.301   1.529   4.906  1.2503  0.5249 -2.0136
   41MOL   H55139031   0.274   1.582   4.749 -0.1770 -0.0265  0.1819
   41MOL   H55239032   0.199   1.802   4.825 -0.4709  0.2652  1.2815
   41MOL   H55339033   0.365   1.786   4.864 -0.1292  0.5829 -3.0056
   41MOL   H55439034   0.157   1.731   5.074  1.1775 -1.3568 -0.0866
   41MOL   H55539035   0.324   1.708   5.091  0.8531  1.1432  0.5868
   41MOL   H55639036   0.202   1.970   4.997  1.4040  0.3684 -0.7370
   41MOL   H55739037   0.362   1.960   5.072 -0.1404  0.1554 -0.4316
   41MOL   H55839038   0.094   1.909   5.208  0.3685 -3.4432  2.4917
   41MOL   H55939039   0.174   2.049   5.228  0.6183  0.2051  2.1875
   41MOL   H56039040   0.362   1.888   5.357 -0.3249 -1.5543  2.5371
   41MOL   H56139041   0.261   1.763   5.325 -0.6663  0.4281  2.7542
   41MOL   H56239042   0.056   1.892   5.429 -0.3751  0.6349  1.8628
   41MOL   H56339043   0.189   1.988   5.507 -1.3290  0.7218  0.2525
   41MOL   H56439044   0.273   1.806   5.613  0.8450 -1.2131 -2.1663
   41MOL   H56539045   0.183   1.690   5.518 -0.7854 -1.4008  1.7592
   41MOL   H56639046   0.038   1.896   5.698 -1.1725 -0.6500 -0.6844
   41MOL   H56739047   7.736   1.756   5.642 -0.0830 -0.6230 -0.2533
   41MOL   H56839048   0.034   1.756   5.892 -0.2098 -2.2768  0.5225
   41MOL   H56939049   0.204   1.739   5.847  0.3465 -1.4390  0.9878
   41MOL   H57039050   0.052   1.341   5.747 -0.9193 -1.5417 -0.0096
   41MOL   H57139051   0.218   1.343   5.802 -1.1525  0.6535 -2.1978
   41MOL   H57239052   0.150   1.263   6.029 -1.8703 -0.7038  0.8342
   41MOL   H57339053   0.111   1.145   5.900  1.3983 -0.4679  1.2903
   41MOL   H57439054   7.632   1.253   5.907  1.0585 -0.1916 -0.8322
   41MOL   H57539055   7.690   1.323   6.055 -0.9217 -1.1929  1.0123
   41MOL   H57639056   7.714   1.087   6.146  0.5882 -1.8254 -1.7491
   41MOL   H57739057   7.688   1.034   5.992  0.8482  0.3759 -0.1850
   41MOL   O57839058   7.508   1.180   6.217  0.6815  0.2469  0.7099
   41MOL   C57939059   7.394   1.169   6.304 -0.3770  0.1089  0.1838
   41MOL   C58039060   7.282   1.275   6.271  0.5413  0.1093 -0.6092
   41MOL   C58139061   7.338   1.421   6.294 -0.1736 -1.0700 -0.3598
   41MOL   C58239062   7.222   1.513   6.319  0.3524 -0.2699 -1.0244
   41MOL   C58339063   7.258   1.624   6.417  0.2923 -0.2462 -0.8485
   41MOL   C58439064   7.132   1.704   6.463 -0.0710  0.0609 -0.3387
   41MOL   C58539065   7.126   1.836   6.390  0.5067  0.3020  0.7584
   41MOL   C58639066   7.031   1.945   6.445 -0.0518 -0.1518  0.6749
   41MOL   C58739067   7.008   2.064   6.352 -0.1024  1.1582  0.2510
   41MOL   C58839068   6.908   2.166   6.387  0.3721 -0.2970  0.1148
   41MOL   O58939069   6.890   2.248   6.270 -0.1188 -0.0030  0.3286
   41MOL   C59039070   6.788   2.333   6.270 -0.0345 -0.7067 -0.6337
   41MOL   O59139071   6.706   2.344   6.354  0.3180  0.3858 -0.1273
   41MOL   C59239072   6.789   2.429   6.148 -0.0673 -0.5596 -0.0948
   41MOL   C59339073   6.672   2.531   6.133 -0.1689  0.4013 -0.4793
   41MOL   C59439074   6.638   2.618   6.256  0.0128 -0.1955  0.1744
   41MOL   C59539075   6.538   2.727   6.223  0.0868  0.6958  0.4407
   41MOL   C59639076   6.616   2.848   6.165 -0.2720 -0.1272  0.6758
   41MOL   O59739077   6.637   2.858   6.042 -0.3310  0.5925 -0.0224
   41MOL   H59839078   7.350   1.071   6.287  1.7316 -0.7719 -0.4060
   41MOL   H59939079   7.428   1.176   6.408  2.7087  1.0822 -0.8296
   41MOL   H60039080   7.204   1.258   6.345  0.8786  0.0093 -0.2775
   41MOL   H60139081   7.244   1.262   6.169 -0.4129 -0.8107 -0.1485
   41MOL   H60239082   7.412   1.418   6.374  0.9579 -2.6794 -1.4486
   41MOL   H60339083   7.401   1.446   6.209  0.2593 -1.0574 -0.0361
   41MOL   H60439084   7.142   1.450   6.358  0.9841 -0.1709  0.4742
   41MOL   H60539085   7.184   1.556   6.226 -1.3576 -0.5092 -0.4586
   41MOL   H60639086   7.330   1.691   6.370  2.5310 -2.5564 -0.8195
   41MOL   H60739087   7.287   1.584   6.515 -2.9606 -0.0275  0.2733
   41MOL   H60839088   7.124   1.720   6.571 -0.7531  0.8509 -0.4981
   41MOL   H60939089   7.043   1.643   6.447 -0.3513  0.9006 -2.1410
   41MOL   H61039090   7.097   1.823   6.286  2.6181  1.3411 -0.0038
   41MOL   H61139091   7.227   1.878   6.393  1.3819 -1.5921 -1.0428
   41MOL   H61239092   7.068   1.973   6.543 -0.2226  1.2083  0.3681
   41MOL   H61339093   6.940   1.891   6.469 -0.8497  0.9334  0.1829
   41MOL   H61439094   7.100   2.122   6.350  2.0393 -2.0748  1.3159
   41MOL   H61539095   6.974   2.027   6.256 -1.9300 -2.3408  2.1401
   41MOL   H61639096   6.945   2.237   6.461  1.4346 -1.8408  1.0808
   41MOL   H61739097   6.821   2.118   6.432  1.0291 -0.5628  1.0909
   41MOL   H61839098   6.883   2.485   6.151 -0.8573  0.6921  2.6474
   41MOL   H61939099   6.788   2.361   6.063 -2.7029 -2.1340  1.1315
   41MOL   H62039100   6.582   2.478   6.102  0.7837 -1.6761  0.2212
   41MOL   H62139101   6.693   2.582   6.039  2.2432 -0.3664 -0.3756
   41MOL   H62239102   6.734   2.656   6.290  0.2940 -0.6343 -0.1376
   41MOL   H62339103   6.600   2.555   6.337 -0.1880 -0.6040 -0.2383
   41MOL   H62439104   6.490   2.765   6.313 -1.0842  2.2880 -0.8286
   41MOL   H62539105   6.449   2.706   6.164 -0.5148  1.9121  0.9109
   41MOL   O62639106   6.665   2.936   6.250  0.1261  0.1229  0.3661
   41MOL   C62739107   6.752   3.043   6.208  0.3055  0.3066 -0.5432
   41MOL   C62839108   6.894   3.021   6.273  0.5552  0.2689 -0.2928
   41MOL   C62939109   6.964   2.892   6.231  0.4541 -0.6874 -0.3985
   41MOL   C63039110   7.008   2.892   6.083 -0.9144 -0.1757 -0.3894
   41MOL   C63139111   7.121   2.789   6.041 -0.0961  0.2743  0.5631
   41MOL   C63239112   7.075   2.643   6.050 -0.0830  0.2962 -0.1343
   41MOL   C63339113   7.183   2.544   6.008 -0.0351 -0.4767  0.0258
   41MOL   C63439114   7.135   2.396   6.006 -0.0920 -0.1241 -0.2428
   41MOL   C63539115   7.244   2.294   5.969  0.4129  0.3191  0.3245
   41MOL   C63639116   7.185   2.154   5.971 -0.2577 -0.0021  1.3101
   41MOL   O63739117   7.290   2.061   5.970 -0.0206 -0.6368 -0.4369
   41MOL   C63839118   7.260   1.933   5.994 -0.0057  0.5243 -0.5525
   41MOL   O63939119   7.153   1.889   6.037 -0.0596 -0.0961  0.3135
   41MOL   C64039120   7.382   1.843   5.984  0.3911 -0.1019  0.2720
   41MOL   C64139121   7.472   1.841   6.107 -0.2760 -0.6293  0.2700
   41MOL   C64239122   7.568   1.713   6.092 -0.7834 -0.2290 -0.0289
   41MOL   C64339123   7.652   1.682   6.217  0.4398  0.1176 -0.4540
   41MOL   C64439124   0.010   1.760   6.246  0.0234 -0.6434  0.3478
   41MOL   O64539125   0.031   1.864   6.179 -0.1487 -0.4131  0.2775
   41MOL   H64639126   6.751   3.061   6.101  1.0887 -0.0875 -0.6244
   41MOL   H64739127   6.703   3.130   6.252  1.5954 -0.0518  1.7149
   41MOL   H64839128   6.881   3.030   6.380 -1.0882  2.9995 -0.6820
   41MOL   H64939129   6.953   3.109   6.248 -0.9864  1.3505 -0.2038
   41MOL   H65039130   7.049   2.892   6.298  0.1413  0.6620  0.0099
   41MOL   H65139131   6.902   2.807   6.262 -1.8157  1.4468  1.0508
   41MOL   H65239132   7.039   2.995   6.067 -0.0536 -0.1999  1.0134
   41MOL   H65339133   6.933   2.884   6.005  2.4218  1.0725 -3.8691
   41MOL   H65439134   7.209   2.809   6.102 -0.0409  0.6373  0.3608
   41MOL   H65539135   7.154   2.809   5.939  1.5717 -1.4361  0.7213
   41MOL   H65639136   6.990   2.636   5.981 -1.0026  1.0044  0.9057
   41MOL   H65739137   7.035   2.627   6.150  0.5762 -0.3457  0.0260
   41MOL   H65839138   7.269   2.558   6.072  0.2951  0.2867 -0.5669
   41MOL   H65939139   7.213   2.566   5.905  0.1193 -2.0505 -0.2656
   41MOL   H66039140   7.057   2.396   5.930 -0.0340  2.5572 -0.3659
   41MOL   H66139141   7.093   2.378   6.105  2.5934 -0.4692  0.8880
   41MOL   H66239142   7.289   2.313   5.872  0.6954 -3.3543 -0.3267
   41MOL   H66339143   7.316   2.317   6.048  0.4867  2.3355 -0.2907
   41MOL   H66439144   7.122   2.138   5.883 -0.0280 -1.3787  1.3800
   41MOL   H66539145   7.116   2.143   6.054 -1.9569  3.6375  0.4924
   41MOL   H66639146   7.344   1.742   5.969 -2.3098  1.0307 -0.8882
   41MOL   H66739147   7.433   1.857   5.889  2.1345  0.4096  1.2543
   41MOL   H66839148   7.413   1.830   6.198 -1.9933  1.5320 -0.5441
   41MOL   H66939149   7.530   1.933   6.117 -1.4228 -0.0647  1.9313
   41MOL   H67039150   7.631   1.737   6.007 -0.4101  1.9523  0.8387
   41MOL   H67139151   7.517   1.622   6.060 -0.3477  0.5798 -3.2164
   41MOL   H67239152   7.678   1.578   6.197  1.5639  0.0588  1.1779
   41MOL   H67339153   7.587   1.684   6.305  1.6383  0.5564  0.4475
   41MOL   O67439154   0.069   1.705   6.352  0.2489 -0.1638 -0.3302
   41MOL   C67539155   0.196   1.752   6.389 -0.8084 -0.3364 -0.3299
   41MOL   C67639156   0.197   1.784   6.543 -0.6642 -0.5628  0.3591
   41MOL   C67739157   0.199   1.672   6.638  0.0633  0.2780  0.4266
   41MOL   C67839158   0.218   1.701   6.790  1.3796 -0.4944  0.1928
   41MOL   C67939159   0.180   1.583   6.893  0.0310 -0.1326  0.5799
   41MOL   C68039160   0.199   1.632   7.044  0.1675 -0.4083  0.1087
   41MOL   C68139161   0.147   1.532   7.142 -0.1311  0.0454  0.8816
   41MOL   C68239162   0.179   1.577   7.285 -0.5568  0.4624 -0.5654
   41MOL   C68339163   0.178   1.459   7.376  0.0513  0.3967 -0.3133
   41MOL   C68439164   0.190   1.497   7.520 -0.2650 -0.4724  0.0332
   41MOL   O68539165   0.223   1.385   7.608  0.0596 -0.3671  0.5825
   41MOL   C68639166   0.351   1.349   7.610  0.3071 -0.1412  0.6209
   41MOL   O68739167   0.450   1.408   7.560 -0.0669 -0.2909 -0.5969
   41MOL   C68839168   0.365   1.232   7.704 -0.2166 -0.5166 -0.9819
   41MOL   C68939169   0.475   1.128   7.674 -0.1089  0.3418  0.0609
   41MOL   C69039170   0.490   1.030   0.023  0.6202 -0.2946  0.7235
   41MOL   C69139171   0.603   0.930   7.764 -0.6718  0.4191  0.3428
   41MOL   C69239172   0.618   0.839   0.121  1.0067 -0.8021  0.3628
   41MOL   O69339173   0.522   0.801   0.187  0.0132  0.8538 -0.5340
   41MOL   H69439174   0.274   1.692   6.342 -0.4741  1.0609 -1.6091
   41MOL   H69539175   0.219   1.847   6.341  0.8773  0.3474  1.6945
   41MOL   H69639176   0.120   1.859   6.564  0.6282  0.8539  0.1243
   41MOL   H69739177   0.281   1.848   6.570 -0.4223 -0.9174  0.4551
   41MOL   H69839178   0.100   1.628   6.626  0.1203 -0.3830  2.1673
   41MOL   H69939179   0.270   1.601   6.597 -0.4480 -0.9215  1.5811
   41MOL   H70039180   0.171   1.797   6.812 -2.0683 -2.1104  0.2440
   41MOL   H70139181   0.321   1.729   6.813  0.6687  3.5714 -1.1019
   41MOL   H70239182   0.232   1.490   6.869  0.1489  0.1934 -0.4192
   41MOL   H70339183   0.076   1.556   6.873  0.0656  1.6082 -2.2125
   41MOL   H70439184   0.148   1.728   7.057  1.2908  0.6396 -2.6249
   41MOL   H70539185   0.304   1.651   7.066 -0.0722  0.3291  0.6307
   41MOL   H70639186   0.181   1.430   7.121 -1.4327 -0.3579  0.7359
   41MOL   H70739187   0.039   1.535   7.140 -0.2058 -0.4005  2.9097
   41MOL   H70839188   0.105   1.648   7.323 -1.3088 -1.1998  1.1527
   41MOL   H70939189   0.275   1.628   7.281 -0.3882  0.3292  1.3952
   41MOL   H71039190   0.085   1.405   7.360  0.2371  0.5203 -1.9374
   41MOL   H71139191   0.257   1.389   7.347 -0.8041  1.0845 -4.6635
   41MOL   H71239192   0.096   1.539   7.555  0.6054  0.3906  1.3661
   41MOL   H71339193   0.264   1.575   7.535  0.9359 -1.6872  0.5194
   41MOL   H71439194   0.358   1.269   0.042 -1.3876 -0.2454 -1.1516
   41MOL   H71539195   0.278   1.168   7.692 -2.0679  1.5942  0.6834
   41MOL   H71639196   0.567   1.179   7.645 -0.9428  1.0344 -1.4316
   41MOL   H71739197   0.455   1.065   7.588 -0.9523  0.2756  0.2929
   41MOL   H71839198   0.391   0.984   0.026  0.4397 -0.2021 -2.2948
   41MOL   H71939199   0.495   1.092   0.112  1.9338  1.0086 -0.2477
   41MOL   H72039200   0.702   0.975   7.750 -0.5928  0.3852  0.8002
   41MOL   H72139201   0.586   0.866   7.677 -0.9432  1.9565 -0.7499
   41MOL   O72239202   0.743   0.801   0.151  0.2018  0.1804  0.6435
   41MOL   C72339203   0.760   0.707   0.256 -0.6243  0.2178  0.1278
   41MOL   C72439204   0.907   0.673   0.266  0.2961 -0.1895  0.1880
   41MOL   C72539205   0.941   0.560   0.370 -0.5197 -0.3788  0.6967
   41MOL   C72639206   1.094   0.515   0.370  0.3626  0.2983 -0.4075
   41MOL   C72739207   1.131   0.456   0.506  0.3014 -0.2014 -0.5332
   41MOL   C72839208   1.284   0.469   0.528  0.3462  0.7105 -0.0055
   41MOL   C72939209   1.325   0.444   0.671  0.6315 -0.2739 -0.2816
   41MOL   C73039210   1.475   0.462   0.696  0.1336  0.4736  0.5821
   41MOL   C73139211   1.558   0.343   0.644 -0.6397  0.3434  0.2695
   41MOL   C73239212   1.718   0.349   0.677  0.7646 -0.4806 -0.2661
   41MOL   O73339213   1.785   0.467   0.638 -0.2860 -0.5084 -0.4036
   41MOL   C73439214   1.806   0.496   0.508 -0.4128  0.0848 -0.2784
   41MOL   O73539215   1.769   0.430   0.411  0.2858 -0.0154 -0.3630
   41MOL   C73639216   1.885   0.628   0.469  0.4636 -0.1652 -0.1338
   41MOL   C73739217   2.032   0.633   0.520  0.0104  0.3423  0.7237
   41MOL   C73839218   2.093   0.768   0.506  0.8652 -0.0516 -0.5322
   41MOL   C73939219   2.225   0.789   0.595  0.1328  0.2548  0.3704
   41MOL   C74039220   2.283   0.930   0.580 -0.4700 -0.2339  0.0451
   41MOL   O74139221   2.305   1.005   0.677  0.5866 -0.0637 -0.4306
   41MOL   H74239222   0.727   0.754   0.348  0.3220  0.3331  0.4111
   41MOL   H74339223   0.694   0.624   0.232 -0.5547 -0.0331  0.8040
   41MOL   H74439224   0.958   0.767   0.289 -0.2081 -0.2208  1.4900
   41MOL   H74539225   0.944   0.643   0.168  0.5994 -1.2532  0.6135
   41MOL   H74639226   0.912   0.605   0.465 -1.0801 -0.4944  0.5816
   41MOL   H74739227   0.881   0.473   0.343 -1.3390  0.7091 -1.1557
   41MOL   H74839228   1.159   0.602   0.368  0.0460  0.6494  2.4806
   41MOL   H74939229   1.106   0.443   0.289  1.6939 -0.9199  0.8445
   41MOL   H75039230   1.102   0.351   0.515 -1.6282  0.5002  1.9892
   41MOL   H75139231   1.083   0.510   0.587  1.6492 -0.7052  0.6300
   41MOL   H75239232   1.307   0.575   0.517  1.3136  0.5432  0.3926
   41MOL   H75339233   1.330   0.406   0.452  2.0229  0.3919  1.2371
   41MOL   H75439234   1.292   0.342   0.691  1.1533 -0.8356 -2.1969
   41MOL   H75539235   1.269   0.519   0.727  0.6230  1.9949 -3.2049
   41MOL   H75639236   1.486   0.475   0.803 -1.3578 -0.1202  0.8059
   41MOL   H75739237   1.513   0.554   0.650  2.2941 -0.1309  1.0781
   41MOL   H75839238   1.538   0.244   0.684 -0.1628  0.6761  1.3762
   41MOL   H75939239   1.546   0.342   0.536 -0.3677 -0.1913  0.2444
   41MOL   H76039240   1.770   0.260   0.642  0.9952 -0.2994 -0.3861
   41MOL   H76139241   1.727   0.351   0.785 -0.2341 -0.9855 -0.1671
   41MOL   H76239242   1.877   0.645   0.362  0.3071  1.0734  0.0767
   41MOL   H76339243   1.832   0.704   0.525  1.9570 -0.6027  1.9632
   41MOL   H76439244   2.106   0.565   0.478 -0.2722 -0.8237  2.0545
   41MOL   H76539245   2.032   0.613   0.627  0.4023  0.6373  0.7804
   41MOL   H76639246   2.035   0.852   0.544  0.8190 -0.4782  0.3542
   41MOL   H76739247   2.122   0.778   0.402  0.9354  1.4497 -0.3739
   41MOL   H76839248   2.304   0.719   0.567  0.3164  0.8319 -0.5781
   41MOL   H76939249   2.211   0.790   0.703  1.6304 -1.2453  0.5890
   41MOL   O77039250   2.311   0.970   0.444  0.7062  0.0858 -0.6370
   41MOL   C77139251   2.346   1.106   0.423 -0.5039  0.1938 -0.1899
   41MOL   C77239252   2.347   1.119   0.269 -0.0732  0.3401  0.1582
   41MOL   C77339253   2.364   1.260   0.211  0.5304 -0.4243  0.0299
   41MOL   C77439254   2.338   1.262   0.067 -0.3501  0.2088 -0.2262
   41MOL   C77539255   2.378   1.395   0.002  0.9152  0.5786 -0.3837
   41MOL   C77639256   2.344   1.415   7.623 -1.1281  0.1266 -0.9205
   41MOL   C77739257   2.328   1.563   7.568  0.3336 -0.0172  0.2634
   41MOL   C77839258   2.449   1.660   7.547 -0.3523 -0.1076  0.3196
   41MOL   C77939259   2.557   1.607   7.444  0.1015 -0.7680  0.3574
   41MOL   C78039260   2.661   1.710   7.404 -0.4244 -0.0160 -0.9211
   41MOL   O78139261   2.732   1.753   7.521  0.3869 -0.4097 -0.4296
   41MOL   C78239262   2.829   1.834   7.509  0.4804 -0.5248 -0.5479
   41MOL   O78339263   2.862   1.889   7.400  0.0168  0.4211 -0.1530
   41MOL   C78439264   2.897   1.856   7.641  0.4055  0.5706  0.2545
   41MOL   C78539265   2.983   1.980   7.645 -0.2233  0.0032 -0.3189
   41MOL   C78639266   3.042   2.029   0.022 -0.2953  0.2188 -0.0316
   41MOL   C78739267   3.118   1.916   0.093  0.7228  0.9874 -0.0384
   41MOL   C78839268   3.219   1.844   0.011  0.1757  0.3768 -0.7412
   41MOL   O78939269   3.304   1.905   7.714  0.2867  0.3963 -0.9977
   41MOL   H79039270   2.289   1.183   0.475 -1.4141 -0.8845  0.4225
   41MOL   H79139271   2.450   1.122   0.452 -0.1221 -2.2696 -0.1125
   41MOL   H79239272   2.254   1.077   0.232  1.0717 -0.7453 -1.5725
   41MOL   H79339273   2.423   1.058   0.220  0.1385  0.8266 -0.1309
   41MOL   H79439274   2.299   1.335   0.256 -1.2222 -0.4217 -2.4332
   41MOL   H79539275   2.462   1.294   0.244  0.1507 -1.4098  2.3266
   41MOL   H79639276   2.237   1.232   0.038  0.2425 -0.8208 -1.2278
   41MOL   H79739277   2.401   1.186   0.022  0.0565 -0.6526  1.7563
   41MOL   H79839278   2.483   1.422   0.008  1.1916 -0.7285  0.8071
   41MOL   H79939279   2.335   1.477   0.061  0.6104 -1.4444  2.3136
   41MOL   H80039280   2.247   1.365   7.618 -1.1415  0.2181 -1.6604
   41MOL   H80139281   2.419   1.369   7.558 -0.4346  1.0372 -0.7722
   41MOL   H80239282   2.273   1.614   7.648  1.5081  0.1808  0.9535
   41MOL   H80339283   2.263   1.562   7.481  0.7802 -1.8668 -0.0718
   41MOL   H80439284   2.497   1.670   7.644  0.7796 -0.2965 -0.2152
   41MOL   H80539285   2.424   1.762   7.519 -2.3808 -0.1428  1.8869
   41MOL   H80639286   2.616   1.524   7.482  0.0919  0.7784  3.9970
   41MOL   H80739287   2.507   1.572   7.354  1.8194 -0.6697 -0.6553
   41MOL   H80839288   2.607   1.788   7.351 -1.4679 -0.6168 -0.7570
   41MOL   H80939289   2.730   1.660   7.335 -1.9134 -0.9980 -1.7158
   41MOL   H81039290   2.825   1.874   7.721 -0.6808  1.0317 -0.8051
   41MOL   H81139291   2.950   1.770   7.681 -4.6232 -1.7172  2.4591
   41MOL   H81239292   2.931   2.060   7.592  1.1556  1.0666 -0.0964
   41MOL   H81339293   3.072   1.958   7.585  1.6763  0.8780  2.1038
   41MOL   H81439294   2.959   2.064   0.083 -1.9289  1.2860 -2.7544
   41MOL   H81539295   3.116   2.109   0.009  0.2221  0.1861  2.4221
   41MOL   H81639296   3.052   1.844   0.140  1.0064  0.9584  0.3141
   41MOL   H81739297   3.171   1.968   0.172  1.7529 -0.5038  0.2821
   41MOL   O81839298   3.200   1.710   0.013 -0.2295  0.3067 -0.0432
   41MOL   C81939299   3.298   1.638   7.709  0.0285 -0.0395 -0.5747
   41MOL   C82039300   3.229   1.532   7.622 -0.0434 -0.0951  0.7568
   41MOL   C82139301   3.158   1.599   7.506 -0.3642  0.4359 -0.4597
   41MOL   C82239302   3.083   1.505   7.406 -0.2942  0.2488 -0.1132
   41MOL   C82339303   3.018   1.586   7.292  0.4226  0.4937 -0.5208
   41MOL   C82439304   3.125   1.612   7.191 -1.4206 -0.1087  0.6278
   41MOL   C82539305   3.139   1.480   7.100 -0.3239  0.1686  0.0967
   41MOL   C82639306   3.260   1.488   7.015  0.0539 -0.9198 -0.6755
   41MOL   C82739307   3.291   1.357   6.945 -0.4640 -0.8502  0.7860
   41MOL   C82839308   3.424   1.361   6.871 -0.1909  0.1186 -0.2829
   41MOL   O82939309   3.457   1.231   6.830  0.2128 -0.1302  0.4570
   41MOL   C83039310   3.583   1.174   6.860 -0.4506  0.3885 -0.4506
   41MOL   O83139311   3.685   1.231   6.900  0.0266  0.2275  0.0112
   41MOL   C83239312   3.576   1.027   6.818  0.3548 -0.6934 -0.0641
   41MOL   C83339313   3.644   1.002   6.679  0.7209  0.1139  0.8757
   41MOL   C83439314   3.562   1.067   6.564  0.3812 -0.3013  0.3934
   41MOL   C83539315   3.621   1.041   6.420  0.0268 -0.3781  0.3414
   41MOL   C83639316   3.749   1.119   6.391  0.6138 -0.9712 -0.4014
   41MOL   O83739317   3.858   1.058   6.364 -0.4542 -0.2462  0.0087
   41MOL   H83839318   3.366   1.692   7.643 -0.6535  0.2028 -1.0908
   41MOL   H83939319   3.360   1.578   0.011  1.1844  0.4438 -1.2000
   41MOL   H84039320   3.166   1.469   7.684  0.7942 -0.8059  0.9121
   41MOL   H84139321   3.302   1.459   7.585 -1.6695 -1.1876 -0.3713
   41MOL   H84239322   3.084   1.672   7.541  2.1410  1.8865  1.9745
   41MOL   H84339323   3.239   1.652   7.456  1.9043 -2.7100 -0.2158
   41MOL   H84439324   3.008   1.452   7.465 -1.0666  1.0874 -0.3366
   41MOL   H84539325   3.146   1.426   7.364  0.7356  1.1728 -0.3322
   41MOL   H84639326   2.985   1.681   7.333  0.6303  0.2235  0.2857
   41MOL   H84739327   2.936   1.531   7.244 -0.6194 -0.0327  1.8062
   41MOL   H84839328   3.226   1.622   7.233 -0.7822  0.6548 -1.0406
   41MOL   H84939329   3.103   1.695   7.124  0.9484  0.4008  0.4145
   41MOL   H85039330   3.045   1.487   7.045 -0.6764 -0.1042  0.6656
   41MOL   H85139331   3.134   1.381   7.146  2.6899 -0.4534 -0.8199
   41MOL   H85239332   3.342   1.512   7.082  0.5236 -0.7538 -1.3053
   41MOL   H85339333   3.261   1.579   6.956 -0.2031  0.5539  1.5409
   41MOL   H85439334   3.300   1.280   7.022  1.0044 -1.0386  0.4417
   41MOL   H85539335   3.207   1.325   6.885  0.7471 -0.9823 -0.8830
   41MOL   H85639336   3.499   1.416   6.929 -0.4077 -0.0228  0.1337
   41MOL   H85739337   3.409   1.413   6.776 -0.0535  0.4427 -0.1253
   41MOL   H85839338   3.609   0.951   6.888  0.7152 -2.3068 -1.9320
   41MOL   H85939339   3.469   1.007   6.806  0.0986  0.1694  0.7520
   41MOL   H86039340   3.656   0.896   6.655 -1.8140 -0.2634  1.1773
   41MOL   H86139341   3.748   1.035   6.675  0.2201  1.5190 -0.6808
   41MOL   H86239342   3.563   1.176   6.578  2.4052 -0.2162 -0.2662
   41MOL   H86339343   3.463   1.022   6.571  1.1194 -1.7772  1.5786
   41MOL   H86439344   3.540   1.084   6.362  0.3024 -0.5202 -0.1460
   41MOL   H86539345   3.646   0.938   6.398 -0.0073 -0.1368 -0.8511
   41MOL   O86639346   3.734   1.255   6.396 -0.2969 -0.1274 -0.0258
   41MOL   C86739347   3.841   1.339   6.367  0.3233  0.1133  0.5580
   41MOL   C86839348   3.929   1.389   6.480 -0.1404 -0.2159 -0.2093
   41MOL   C86939349   3.856   1.460   6.593 -0.8713  0.4510  0.5565
   41MOL   C87039350   3.934   1.484   6.716 -0.4266  0.4502  0.2619
   41MOL   C87139351   3.851   1.551   6.837  0.7920  0.0897 -0.0028
   41MOL   C87239352   3.881   1.491   6.976 -0.2872  0.2563 -0.2772
   41MOL   C87339353   4.021   1.510   7.034  0.1408  0.1980 -0.3285
   41MOL   C87439354   4.040   1.428   7.162  0.2109 -0.4888 -0.4614
   41MOL   C87539355   4.071   1.519   7.286  0.4557  1.0787  0.3186
   41MOL   C87639356   4.093   1.438   7.410 -0.0709  0.9882 -0.1490
   41MOL   O87739357   4.213   1.361   7.403 -0.1472 -0.0680 -0.2033
   41MOL   C87839358   4.252   1.264   7.493  0.4630 -0.3833  0.2644
   41MOL   O87939359   4.185   1.220   7.586 -0.5621  0.1094  0.4732
   41MOL   C88039360   4.395   1.212   7.470  0.1320 -0.1019 -1.0324
   41MOL   C88139361   4.503   1.323   7.460  0.2997 -0.0070  0.2244
   41MOL   C88239362   4.569   1.348   7.597 -0.9067 -0.1502  0.0868
   41MOL   C88339363   4.471   1.379   7.710 -0.2847  1.2243 -0.5279
   41MOL   C88439364   4.386   1.502   7.699 -0.4202 -0.2510  0.8834
   41MOL   O88539365   4.407   1.594   7.618  0.3438 -0.2406 -0.4499
   41MOL   H88639366   3.904   1.287   6.294 -0.3508  0.0177  0.0392
   41MOL   H88739367   3.804   1.426   6.312  1.0686  0.8248  1.1628
   41MOL   H88839368   4.014   1.438   6.432  0.4844 -2.1904 -1.1643
   41MOL   H88939369   3.980   1.307   6.531  1.2183  1.2420  0.8224
   41MOL   H89039370   3.814   1.555   6.560 -3.5410 -0.7468  0.3519
   41MOL   H89139371   3.767   1.409   6.630 -0.6618  0.4213  1.0192
   41MOL   H89239372   4.038   1.515   6.710  0.3866 -2.5278 -2.4035
   41MOL   H89339373   3.967   1.388   6.756  0.2393 -0.3318 -2.1277
   41MOL   H89439374   3.743   1.549   6.818  0.9146 -0.6087 -0.6379
   41MOL   H89539375   3.884   1.654   6.847 -0.2760  0.3745  0.7071
   41MOL   H89639376   3.856   1.385   6.974 -0.4367  0.2821  0.2543
   41MOL   H89739377   3.818   1.534   7.053 -0.4063  0.7242 -0.6309
   41MOL   H89839378   4.031   1.615   7.061 -0.1517 -0.4545  2.4961
   41MOL   H89939379   4.100   1.491   6.961  0.5381  0.2216  0.0873
   41MOL   H90039380   4.117   1.351   7.149  0.3841 -0.5536  0.8808
   41MOL   H90139381   3.959   1.359   7.185  0.1880 -1.5036 -3.3862
   41MOL   H90239382   4.152   1.590   7.276  2.7309 -1.2864  1.4957
   41MOL   H90339383   3.978   1.570   7.312  0.5236  1.1430  0.4387
   41MOL   H90439384   4.002   1.380   7.429 -0.8099  2.1484 -0.0691
   41MOL   H90539385   4.101   1.505   7.496 -0.2761 -1.4430  1.8282
   41MOL   H90639386   4.408   1.141   7.552 -0.8540 -1.4916 -2.0538
   41MOL   H90739387   4.401   1.156   7.376  0.5833  1.4608 -1.9579
   41MOL   H90839388   4.452   1.415   7.431  2.1106  1.7210  2.3977
   41MOL   H90939389   4.567   1.288   7.379 -1.1769 -1.3673 -0.3907
   41MOL   H91039390   4.649   1.422   7.587 -0.0346 -1.3488 -2.2386
   41MOL   H91139391   4.616   1.255   7.629 -2.0437 -0.3963  1.0335
   41MOL   H91239392   4.531   1.399   0.034  0.2232  2.1736 -1.0840
   41MOL   H91339393   4.416   1.288   7.736  0.6699  0.8791  0.2944
   41MOL   O91439394   4.281   1.498   0.017 -0.2676 -0.1035 -0.2696
   41MOL   C91539395   4.177   1.588   0.009 -0.6783 -0.2514 -0.3365
   41MOL   C91639396   4.199   1.720   0.091 -0.4179  0.6235 -0.1022
   41MOL   C91739397   4.067   1.803   0.071  0.1096  0.1130 -0.2883
   41MOL   C91839398   4.077   1.929   0.156  0.7787  0.0017 -1.0144
   41MOL   C91939399   3.960   2.025   0.155  0.2558  1.0133  0.3844
   41MOL   C92039400   3.936   2.112   0.283  0.0759 -0.5837  0.6946
   41MOL   C92139401   4.052   2.207   0.320  0.0633 -0.5638 -0.0625
   41MOL   C92239402   4.030   2.309   0.425  0.0837 -0.0741 -0.1707
   41MOL   C92339403   4.017   2.236   0.566 -0.4188 -0.3721 -0.2326
   41MOL   C92439404   3.973   2.331   0.677 -0.2868 -0.3190 -0.2072
   41MOL   O92539405   3.966   2.268   0.800 -0.4706  0.5171  0.3080
   41MOL   C92639406   4.076   2.255   0.876  0.3879 -0.6064  0.7996
   41MOL   O92739407   4.188   2.280   0.838  0.2411  0.1137 -0.1485
   41MOL   C92839408   4.045   2.200   1.011 -0.6056  0.4201  0.2655
   41MOL   C92939409   4.159   2.107   1.057  0.3075  0.3060  0.3076
   41MOL   C93039410   4.152   2.060   1.200 -0.6563 -0.2161 -0.0175
   41MOL   C93139411   4.176   2.174   1.306 -0.0278 -0.3288  0.0901
   41MOL   C93239412   4.168   2.101   1.435  0.8625  0.1532  0.0028
   41MOL   O93339413   4.270   2.063   1.491  0.4801  0.4908  0.1749
   41MOL   H93439414   4.152   1.608   7.670  0.5929  0.1028 -0.5865
   41MOL   H93539415   4.089   1.535   0.045 -0.1484 -0.9917 -0.1173
   41MOL   H93639416   4.280   1.781   0.053  1.0494 -0.2668  1.5508
   41MOL   H93739417   4.211   1.700   0.197  1.9166  0.1162 -0.4451
   41MOL   H93839418   4.059   1.843   7.735 -0.0026  3.2354  0.8936
   41MOL   H93939419   3.979   1.747   0.102  0.7218  0.0138  1.3429
   41MOL   H94039420   4.176   1.974   0.153  0.4498  0.7213 -1.1994
   41MOL   H94139421   4.072   1.895   0.260  0.5900  1.4648 -0.5281
   41MOL   H94239422   3.873   1.966   0.125  0.8976 -0.3763  1.1766
   41MOL   H94339423   3.976   2.091   0.070 -0.1727  1.3158  0.5389
   41MOL   H94439424   3.908   2.048   0.367 -2.2297  1.0987  1.2707
   41MOL   H94539425   3.848   2.176   0.273  1.0922  0.7683  0.1981
   41MOL   H94639426   4.084   2.262   0.232  1.1577 -1.8570 -0.4902
   41MOL   H94739427   4.140   2.148   0.345  0.9748  1.9127  2.8154
   41MOL   H94839428   3.940   2.368   0.405  0.3986  0.9451  1.3486
   41MOL   H94939429   4.110   2.379   0.447  0.1868 -0.6582  1.3322
   41MOL   H95039430   3.942   2.157   0.570 -0.3857 -0.3192  2.1331
   41MOL   H95139431   4.109   2.188   0.598 -0.2271  1.3101  1.9102
   41MOL   H95239432   3.876   2.371   0.648  0.0582  1.1628  0.6170
   41MOL   H95339433   4.036   2.419   0.690  2.1305 -1.9915 -0.1518
   41MOL   H95439434   4.033   2.291   1.069 -0.6692  0.0759  0.7956
   41MOL   H95539435   3.956   2.138   0.998 -0.4860  0.2526  0.2408
   41MOL   H95639436   4.257   2.149   1.035 -0.1642  1.4509  0.3713
   41MOL   H95739437   4.159   2.018   0.994  0.3407 -1.8209  3.2084
   41MOL   H95839438   4.212   1.971   1.215 -1.2529 -0.3941  1.3982
   41MOL   H95939439   4.048   2.030   1.212 -1.3915  2.3397  0.4160
   41MOL   H96039440   4.093   2.243   1.296 -1.7008 -2.1105  1.2968
   41MOL   H96139441   4.275   2.218   1.300  0.9441 -2.1503  1.8585
   41MOL   H96239442   4.071   2.087   1.483  1.6586 -0.2555  1.5379
   42MOL     O139443   3.528   4.447   6.979  0.1319 -0.1016  0.1771
   42MOL     C239444   3.640   4.505   7.045 -0.0469  0.4871 -0.5665
   42MOL     C339445   3.635   4.656   7.033  0.0441 -0.0476  0.4750
   42MOL     C439446   3.518   4.719   7.108  0.1283  0.0346 -0.5887
   42MOL     C539447   3.499   4.866   7.076 -0.1199  0.3380 -0.3084
   42MOL     C639448   3.385   4.922   7.155  0.3963 -0.5539 -0.1930
   42MOL     C739449   3.375   5.072   7.130 -0.3792  0.2089 -1.1899
   42MOL     C839450   3.260   5.135   7.202 -0.0750 -0.4518 -0.7447
   42MOL     C939451   3.246   5.282   7.162  0.4105  0.3356 -0.5841
   42MOL    C1039452   3.333   5.388   7.235  0.3732 -0.6317 -0.4140
   42MOL    C1139453   3.321   5.527   7.177  1.0250 -0.3013  0.1530
   42MOL    O1239454   3.386   5.536   7.056 -0.2843  0.1312  0.0794
   42MOL    C1339455   3.518   5.559   7.062  0.0429  0.7427  0.4575
   42MOL    O1439456   3.575   5.593   7.163 -0.1013  0.3344  0.1060
   42MOL    C1539457   3.589   5.546   6.926  0.6182 -0.3117  0.5890
   42MOL    C1639458   3.604   5.406   6.874  0.8043  0.3726  0.2861
   42MOL    C1739459   3.708   5.328   6.947  0.0241  0.4222  0.1206
   42MOL    C1839460   3.702   5.168   6.926 -0.1571  0.5075 -0.2354
   42MOL    C1939461   3.748   5.128   6.788  0.0268  0.4791  0.2300
   42MOL    O2039462   3.842   5.179   6.725 -0.1792 -0.1560 -0.1111
   42MOL    H2139463   3.628   4.476   7.149  2.8152 -0.9562 -0.5977
   42MOL    H2239464   3.741   4.481   7.013 -0.1254 -0.1877 -0.3109
   42MOL    H2339465   3.644   4.683   6.928 -1.0169  0.4699  0.5130
   42MOL    H2439466   3.723   4.705   7.073 -1.1974  3.3153 -0.7719
   42MOL    H2539467   3.429   4.658   7.091 -0.9170  0.9423  1.4713
   42MOL    H2639468   3.528   4.718   7.217  1.5267 -0.6181 -0.7114
   42MOL    H2739469   3.469   4.887   6.973  0.0067  1.5995 -0.1023
   42MOL    H2839470   3.585   4.926   7.106 -0.0038 -0.1540  0.3479
   42MOL    H2939471   3.397   4.905   7.262  1.7170  0.2286 -0.2121
   42MOL    H3039472   3.291   4.881   7.118 -0.7568  1.3958  0.5379
   42MOL    H3139473   3.373   5.088   7.022 -0.4710  1.9161 -0.9450
   42MOL    H3239474   3.469   5.120   7.155 -0.3240 -0.5645  0.1106
   42MOL    H3339475   3.265   5.129   7.311 -0.0878 -1.8694 -0.8146
   42MOL    H3439476   3.171   5.074   7.190  1.0633 -1.8922 -2.0983
   42MOL    H3539477   3.143   5.312   7.181 -0.3470 -3.3568  1.4054
   42MOL    H3639478   3.258   5.290   7.054  1.3634  2.6375 -0.3348
   42MOL    H3739479   3.300   5.393   7.339 -1.9314  1.0203 -1.1989
   42MOL    H3839480   3.441   5.372   7.243  0.4464 -0.0662 -0.2696
   42MOL    H3939481   3.357   5.610   7.238  2.8760 -0.6700 -0.4007
   42MOL    H4039482   3.217   5.556   7.161  0.9397 -1.4431 -1.4155
   42MOL    H4139483   3.526   5.605   6.859  1.6719 -0.7696 -0.8233
   42MOL    H4239484   3.688   5.592   6.928 -0.0959  1.2814  0.2228
   42MOL    H4339485   3.621   5.410   6.766  1.2082 -0.6597  0.3053
   42MOL    H4439486   3.509   5.359   6.899  1.2795 -0.6333  0.2346
   42MOL    H4539487   3.708   5.356   7.053 -1.6304  1.5416 -0.1658
   42MOL    H4639488   3.798   5.370   6.902  0.2383 -1.2751 -1.0577
   42MOL    H4739489   3.605   5.122   6.942  0.6626 -0.2300  3.1436
   42MOL    H4839490   3.755   5.117   7.006  0.2987 -1.3014 -1.6739
   42MOL    H4939491   3.456   4.441   7.040 -0.8668 -1.1683 -1.0764
   42MOL    O5039492   3.676   5.020   6.744 -0.1471  0.0038 -0.4200
   42MOL    C5139493   3.704   4.969   6.613 -0.5804  0.7637  0.6965
   42MOL    C5239494   3.596   4.884   6.550 -0.1764  0.4220 -0.5845
   42MOL    C5339495   3.602   4.740   6.593 -0.2928  0.3611  0.1425
   42MOL    C5439496   3.738   4.661   6.576 -0.4563 -0.4058 -0.0955
   42MOL    C5539497   3.715   4.518   6.614  0.2032  0.1365  0.2831
   42MOL    C5639498   3.837   4.423   6.586 -0.0949  0.6985  0.1113
   42MOL    C5739499   3.801   4.276   6.568  0.2437 -0.4747 -0.2216
   42MOL    C5839500   3.887   4.180   6.633  0.1651  0.8380  0.3599
   42MOL    C5939501   3.857   4.033   6.603  0.0550  0.3048 -0.7120
   42MOL    C6039502   3.952   3.941   6.676 -0.4497 -0.0816  0.1555
   42MOL    O6139503   3.898   3.811   6.677 -0.1214  0.0328  0.3638
   42MOL    C6239504   3.965   3.714   6.747 -0.4756 -0.5454 -0.3152
   42MOL    O6339505   4.067   3.747   6.816  0.8984 -0.4155 -0.8269
   42MOL    C6439506   3.909   3.569   6.741 -0.0976  0.5379  0.5213
   42MOL    C6539507   3.754   3.572   6.734 -0.5517  0.4076 -0.2073
   42MOL    C6639508   3.705   3.424   6.721 -0.7757 -0.3634  0.0290
   42MOL    C6739509   3.556   3.428   6.681 -0.3084 -0.1902 -0.1124
   42MOL    C6839510   3.490   3.296   6.645  0.0992 -0.0182 -0.0587
   42MOL    O6939511   3.546   3.183   6.653  0.5438 -0.4512  0.8807
   42MOL    H7039512   3.705   5.048   6.538  0.5180 -1.3847 -1.6494
   42MOL    H7139513   3.801   4.921   6.600  0.3346  3.0759 -1.1576
   42MOL    H7239514   3.600   4.888   6.441 -0.4857  0.9059 -0.5742
   42MOL    H7339515   3.501   4.921   6.587  0.1728 -1.6375  2.5790
   42MOL    H7439516   3.582   4.726   6.700  1.0044  1.8475  0.5989
   42MOL    H7539517   3.519   4.696   6.538 -0.3895  0.3317  0.3082
   42MOL    H7639518   3.824   4.696   6.633  1.1455 -0.9381 -2.1514
   42MOL    H7739519   3.767   4.668   6.472  2.4596  3.0998  0.8263
   42MOL    H7839520   3.635   4.488   6.547 -0.3126  1.5048  0.2805
   42MOL    H7939521   3.690   4.513   6.720 -0.0630 -0.0501  0.2102
   42MOL    H8039522   3.907   4.428   6.669  1.9124  0.6837 -1.5376
   42MOL    H8139523   3.897   4.454   6.501 -0.3195 -2.6850 -1.3925
   42MOL    H8239524   3.795   4.256   6.460 -1.3176  0.0773 -0.2597
   42MOL    H8339525   3.698   4.249   6.591 -0.2838  0.8885 -0.9006
   42MOL    H8439526   3.891   4.192   6.741  1.2567  1.1076  0.3014
   42MOL    H8539527   3.983   4.193   6.584 -0.1313 -0.8615 -0.7197
   42MOL    H8639528   3.760   4.005   6.643  1.8702 -0.7675  3.2201
   42MOL    H8739529   3.871   4.007   6.498 -2.6914  1.2004 -1.3480
   42MOL    H8839530   3.966   3.979   6.777  1.5222  0.0702 -0.1467
   42MOL    H8939531   4.042   3.946   6.615  0.2079 -0.4170  1.0840
   42MOL    H9039532   3.952   3.505   6.663 -0.7427  2.1464 -1.1996
   42MOL    H9139533   3.935   3.533   6.840  1.5969  0.4920  0.0713
   42MOL    H9239534   3.732   3.630   6.645  1.1145 -0.5885 -1.2880
   42MOL    H9339535   3.733   3.615   6.832  1.0973 -0.5161  0.5900
   42MOL    H9439536   3.709   3.371   6.816  0.7692  0.1768  0.2870
   42MOL    H9539537   3.769   3.359   6.661  1.6208  2.2362 -0.3920
   42MOL    H9639538   3.542   3.499   6.599  2.6769 -0.9910 -1.3569
   42MOL    H9739539   3.505   3.470   6.768 -1.4891 -0.6681 -0.5674
   42MOL    O9839540   3.373   3.311   6.586  0.0988 -0.6769  0.0800
   42MOL    C9939541   3.296   3.199   6.545  0.0664  0.2360 -0.0520
   42MOL   C10039542   3.160   3.203   6.609  0.7294  0.9710  0.6776
   42MOL   C10139543   3.064   3.093   6.554  0.7347 -0.0369 -0.0418
   42MOL   C10239544   2.917   3.121   6.600  0.4776  0.3111 -0.1572
   42MOL   C10339545   2.841   3.240   6.517 -0.2714 -0.0028 -0.3564
   42MOL   C10439546   2.712   3.193   6.444 -0.1437 -0.4293  0.1838
   42MOL   C10539547   2.628   3.300   6.372 -0.5283  0.2328  0.5142
   42MOL   C10639548   2.705   3.380   6.265 -0.0896  1.1630  0.4145
   42MOL   C10739549   2.619   3.492   6.202  0.4040 -0.2493  0.3040
   42MOL   C10839550   2.692   3.558   6.085  0.3279  0.1466  0.5102
   42MOL   O10939551   2.798   3.634   6.140 -0.0448 -0.2929 -0.3436
   42MOL   C11039552   2.855   3.724   6.068 -0.3525 -0.6420  0.4522
   42MOL   O11139553   2.822   3.773   5.959  0.4080  0.5671  0.3604
   42MOL   C11239554   2.988   3.761   6.132 -0.7831  0.1129 -0.9895
   42MOL   C11339555   2.987   3.816   6.285  0.1845 -0.6127  0.5379
   42MOL   C11439556   2.937   3.714   6.388  0.3731  0.8438 -0.4644
   42MOL   C11539557   2.971   3.745   6.536 -1.0991  0.0983 -0.0832
   42MOL   C11639558   2.894   3.658   6.633  0.2848 -0.0370 -0.5276
   42MOL   O11739559   2.770   3.647   6.618 -0.2056 -0.3940 -0.0568
   42MOL   H11839560   3.280   3.187   6.438 -1.2430 -0.4417  0.2016
   42MOL   H11939561   3.334   3.102   6.576 -1.0848 -0.4946 -0.9108
   42MOL   H12039562   3.124   3.302   6.583 -1.0722  0.7265  2.1175
   42MOL   H12139563   3.169   3.215   6.717 -2.0389 -0.3926  1.1027
   42MOL   H12239564   3.064   3.085   6.445 -0.8911 -0.2976 -0.0406
   42MOL   H12339565   3.101   3.001   6.598  1.0486  0.6070  1.0385
   42MOL   H12439566   2.903   3.154   6.703  0.0032  0.7545 -0.3582
   42MOL   H12539567   2.864   3.026   6.598 -0.5209  0.8535  0.3689
   42MOL   H12639568   2.913   3.274   6.443 -1.6724  0.5272 -1.5090
   42MOL   H12739569   2.812   3.322   6.581 -1.3751 -0.9122  0.3228
   42MOL   H12839570   2.649   3.144   6.518 -1.4776  0.4021 -0.3779
   42MOL   H12939571   2.751   3.116   6.377 -3.6325 -3.6281  1.6666
   42MOL   H13039572   2.586   3.357   6.455  0.5541  0.5833  0.8176
   42MOL   H13139573   2.544   3.250   6.323  0.2487 -1.5015  0.9414
   42MOL   H13239574   2.745   3.311   6.191  1.9513  1.3050  1.3509
   42MOL   H13339575   2.792   3.426   6.313 -0.9209  2.0028  1.1287
   42MOL   H13439576   2.525   3.446   6.172 -0.0148  1.5191 -1.2229
   42MOL   H13539577   2.599   3.568   6.278  1.3388 -0.5822  0.8995
   42MOL   H13639578   2.624   3.609   6.017  1.6413  0.4129 -0.6159
   42MOL   H13739579   2.745   3.478   6.033 -0.9722 -0.2123 -0.2777
   42MOL   H13839580   3.049   3.671   6.145 -2.2056 -0.7453 -0.0080
   42MOL   H13939581   3.046   3.824   6.064 -0.3467  1.6223  0.7590
   42MOL   H14039582   2.925   3.906   6.289  1.6868  0.3961  1.6690
   42MOL   H14139583   3.091   3.839   6.304  0.1587 -0.5712  0.6295
   42MOL   H14239584   2.970   3.613   6.366 -0.5591  0.5608 -0.5861
   42MOL   H14339585   2.830   3.708   6.370  0.2278 -0.3394  0.7130
   42MOL   H14439586   2.946   3.851   6.547 -1.1444  0.2986 -1.9460
   42MOL   H14539587   3.079   3.732   6.544 -0.6609 -0.2739 -5.0466
   42MOL   O14639588   2.967   3.598   6.717 -0.2532 -0.9529  0.2584
   42MOL   C14739589   2.914   3.523   6.819  0.0130 -0.1304  0.1673
   42MOL   C14839590   3.032   3.454   6.885 -0.9475  0.3452 -0.6462
   42MOL   C14939591   3.131   3.548   6.952  0.4721  0.5644 -0.5034
   42MOL   C15039592   3.266   3.490   6.993 -0.5539  0.4605  0.4035
   42MOL   C15139593   3.365   3.611   7.021  0.5976  0.8630  0.7403
   42MOL   C15239594   3.489   3.578   7.110 -0.0435  0.1031  0.0799
   42MOL   C15339595   3.594   3.690   7.121  0.4114  0.4084 -0.0596
   42MOL   C15439596   3.714   3.651   7.198 -0.5571 -0.6571  0.5865
   42MOL   C15539597   3.685   3.642   7.345  1.1600  0.0668  0.4064
   42MOL   C15639598   3.806   3.676   7.435  0.0980  0.7332 -0.1933
   42MOL   O15739599   3.783   3.656   7.573 -0.0741  0.3259  0.1783
   42MOL   C15839600   3.709   3.750   7.636  0.5411 -0.2262 -0.5868
   42MOL   O15939601   3.667   3.858   7.588 -0.0529 -0.3210 -0.3041
   42MOL   C16039602   3.703   3.715   0.023  0.2888 -0.5377 -0.1828
   42MOL   C16139603   3.578   3.646   0.071  0.1668  0.4560  0.1880
   42MOL   C16239604   3.588   3.602   0.215  0.1636  0.0816  0.0301
   42MOL   C16339605   3.460   3.529   0.257  0.7301 -0.0631  0.7888
   42MOL   C16439606   3.483   3.454   0.392 -0.2065  0.1156 -0.9638
   42MOL   O16539607   3.533   3.344   0.401  0.0482 -0.1292  0.4520
   42MOL   H16639608   2.869   3.590   6.893  2.3380  0.9596  0.6376
   42MOL   H16739609   2.835   3.458   6.781  0.5694 -1.5715  1.4123
   42MOL   H16839610   3.079   3.398   6.805 -0.0041 -0.0263  0.1516
   42MOL   H16939611   3.002   3.394   6.971 -0.6324  1.2165  0.0946
   42MOL   H17039612   3.138   3.631   6.882 -0.6817  0.1891 -1.0710
   42MOL   H17139613   3.084   3.591   7.041  2.0718  3.5515 -1.0183
   42MOL   H17239614   3.300   3.438   6.904  0.8611  1.2506  0.4567
   42MOL   H17339615   3.256   3.419   7.075  0.2252 -0.2383 -0.1000
   42MOL   H17439616   3.313   3.697   7.061 -2.0618 -0.0656 -0.5763
   42MOL   H17539617   3.392   3.653   6.924 -2.1458  0.1834 -0.3725
   42MOL   H17639618   3.541   3.492   7.067  0.7680 -0.8176  2.8063
   42MOL   H17739619   3.460   3.538   7.207 -0.6491 -0.7245 -0.4386
   42MOL   H17839620   3.557   3.783   7.163  0.9300 -0.0070  1.3720
   42MOL   H17939621   3.632   3.724   7.025 -0.5084  1.9851  0.1338
   42MOL   H18039622   3.784   3.729   7.169 -2.1205  0.4356 -0.2853
   42MOL   H18139623   3.755   3.562   7.150  3.6557  2.5957 -2.1848
   42MOL   H18239624   3.624   3.726   7.378  1.6746  0.7429 -0.3426
   42MOL   H18339625   3.642   3.548   7.380  2.3387 -0.6427 -0.0380
   42MOL   H18439626   3.835   3.780   7.418 -0.5345  0.4818 -3.0572
   42MOL   H18539627   3.883   3.605   7.404 -0.7409  0.1628 -0.9876
   42MOL   H18639628   3.792   3.655   0.040  1.3258  0.2629 -2.6450
   42MOL   H18739629   3.719   3.810   0.074  1.8367 -0.1342 -1.3745
   42MOL   H18839630   3.568   3.561   0.003  0.8572  0.3360  0.2377
   42MOL   H18939631   3.482   3.698   0.061  0.3968  1.2621  1.9913
   42MOL   H19039632   3.583   3.692   0.275 -0.0210 -0.7411  1.2684
   42MOL   H19139633   3.675   3.546   0.248  0.7748  0.7427 -0.4524
   42MOL   H19239634   3.427   3.454   0.185  0.5221  0.9885 -0.2307
   42MOL   H19339635   3.377   3.599   0.265  1.3382  0.9324 -1.1854
   42MOL   O19439636   3.433   3.515   0.493 -0.1084 -0.7912  0.5390
   42MOL   C19539637   3.456   3.464   0.629 -0.3603 -0.0008 -0.5042
   42MOL   C19639638   3.335   3.500   0.708 -0.3175  0.4449  0.4826
   42MOL   C19739639   3.337   3.632   0.791 -0.0370  0.3760 -0.5590
   42MOL   C19839640   3.284   3.626   0.930  0.2400  0.3346 -0.2733
   42MOL   C19939641   3.307   3.741   1.029  0.1705 -0.2850 -0.0749
   42MOL   C20039642   3.255   3.873   0.973  0.6835  0.0343 -0.2366
   42MOL   C20139643   3.277   3.994   1.075 -0.0332  0.2132 -0.0812
   42MOL   C20239644   3.212   4.131   1.021  0.5123  0.1454 -0.1884
   42MOL   C20339645   3.213   4.238   1.136  0.7631  0.3895 -0.4578
   42MOL   C20439646   3.347   4.307   1.155 -0.2245  0.3319  0.2491
   42MOL   O20539647   3.390   4.363   1.036  0.7569  0.0311  0.0600
   42MOL   C20639648   3.525   4.388   1.017  0.3421 -0.3117  0.0656
   42MOL   O20739649   3.610   4.345   1.086 -0.4063  0.2254 -0.7014
   42MOL   C20839650   3.553   4.476   0.896  0.7073  0.4920 -0.0459
   42MOL   C20939651   3.612   4.403   0.779 -0.0614  0.1244  0.3437
   42MOL   C21039652   3.764   4.372   0.789  0.0968 -0.0316 -0.4631
   42MOL   C21139653   3.839   4.505   0.766 -0.3092  0.2905  0.3235
   42MOL   C21239654   3.825   4.569   0.628 -0.6052  0.1822  0.2202
   42MOL   O21339655   3.805   4.692   0.619 -0.1363  0.2515  0.0952
   42MOL   H21439656   3.449   3.356   0.619  0.4247 -0.1261  0.2708
   42MOL   H21539657   3.555   3.485   0.669 -1.0015  1.2181  0.4792
   42MOL   H21639658   3.316   3.416   0.774  1.8800 -0.4394  0.0186
   42MOL   H21739659   3.252   3.493   0.637  0.6317 -1.1284 -0.4772
   42MOL   H21839660   3.439   3.671   0.791 -0.3527  1.2651  0.6109
   42MOL   H21939661   3.290   3.715   0.738 -0.7809 -0.2658 -0.8950
   42MOL   H22039662   3.343   3.548   0.979  2.4168  2.4647  0.5769
   42MOL   H22139663   3.178   3.601   0.932  0.5718 -1.3309 -1.8493
   42MOL   H22239664   3.416   3.745   1.043  0.0856 -1.3731  1.0545
   42MOL   H22339665   3.254   3.715   1.121 -3.2228  0.8722 -1.6312
   42MOL   H22439666   3.155   3.869   0.931  0.1429  0.1645  1.0150
   42MOL   H22539667   3.323   3.894   0.890  0.8655  2.7179  0.5484
   42MOL   H22639668   3.381   4.009   1.106  0.5191 -1.7369 -0.9430
   42MOL   H22739669   3.213   3.970   1.160  0.6415 -0.0931  0.3408
   42MOL   H22839670   3.113   4.097   0.991  0.7161  0.3353 -1.0836
   42MOL   H22939671   3.259   4.165   0.929  2.3966 -1.7585  0.0040
   42MOL   H23039672   3.134   4.308   1.109  0.8813  0.8973  0.4932
   42MOL   H23139673   3.180   4.190   1.228  1.2314  0.1375 -0.4151
   42MOL   H23239674   3.424   4.236   1.184 -1.2936 -0.7855  0.4195
   42MOL   H23339675   3.344   4.391   1.224  0.0811  0.2074  0.4152
   42MOL   H23439676   3.465   4.540   0.881  0.9963  0.1591 -3.5168
   42MOL   H23539677   3.624   4.551   0.930  1.6090  0.0845 -1.0318
   42MOL   H23639678   3.589   4.450   0.683  1.2659  1.6483  0.7537
   42MOL   H23739679   3.551   4.313   0.769 -0.7566  0.2553  3.1593
   42MOL   H23839680   3.796   4.301   0.712  2.1959 -0.5270  0.8085
   42MOL   H23939681   3.789   4.333   0.888 -1.5713 -1.0320 -0.4065
   42MOL   H24039682   3.946   4.493   0.788 -0.0574  0.5042 -0.7418
   42MOL   H24139683   3.799   4.570   0.844  0.3917 -0.2279  1.1320
   42MOL   O24239684   3.843   4.482   0.528  0.0395 -0.1945  0.7347
   42MOL   C24339685   3.821   4.529   0.390 -0.2110 -0.1774 -0.0043
   42MOL   C24439686   3.706   4.463   0.309  0.7380  0.4839 -0.3048
   42MOL   C24539687   3.559   4.502   0.356  0.3150  0.1889  0.0554
   42MOL   C24639688   3.454   4.391   0.358  0.1096  0.0282  0.3354
   42MOL   C24739689   3.316   4.446   0.405  0.8211  0.4763  0.2861
   42MOL   C24839690   3.296   4.455   0.560  0.0460 -0.0329  1.2598
   42MOL   C24939691   3.171   4.519   0.605 -0.3005 -0.0515  0.2069
   42MOL   C25039692   3.131   4.500   0.758 -0.3790  0.2258  0.0949
   42MOL   C25139693   2.996   4.543   0.797 -0.2828 -0.9773  0.0611
   42MOL   C25239694   2.949   4.486   0.936  0.1032  0.2529 -0.4251
   42MOL   O25339695   2.830   4.549   0.978 -0.1080 -0.0713  0.2116
   42MOL   C25439696   2.838   4.665   1.050  0.1095  0.6909 -0.1193
   42MOL   O25539697   2.938   4.694   1.115 -0.1497  0.1366 -0.1227
   42MOL   C25639698   2.700   4.739   1.069 -0.0310  0.2019  0.8793
   42MOL   C25739699   2.613   4.689   1.184 -0.0353  0.6513  0.1582
   42MOL   C25839700   2.556   4.543   1.175 -0.2183  0.4472 -0.1324
   42MOL   C25939701   2.465   4.505   1.055  0.3715  0.3403  0.0307
   42MOL   C26039702   2.341   4.595   1.022 -0.5171  0.6164  0.0100
   42MOL   O26139703   2.325   4.706   1.083 -0.1825  0.3161  0.0767
   42MOL   H26239704   3.804   4.637   0.384 -3.3242 -0.5261  1.7372
   42MOL   H26339705   3.913   4.509   0.334 -0.0932 -1.2353  0.5555
   42MOL   H26439706   3.730   4.359   0.332  1.7235  0.7442 -0.1219
   42MOL   H26539707   3.721   4.480   0.202  2.8295  1.0128  0.0551
   42MOL   H26639708   3.571   4.537   0.459  2.2832  3.3515 -1.1506
   42MOL   H26739709   3.514   4.579   0.293 -0.5212 -0.2154  0.1633
   42MOL   H26839710   3.474   4.312   0.431  2.9506 -1.5127 -2.0484
   42MOL   H26939711   3.451   4.341   0.261 -2.6902  1.5072 -0.4107
   42MOL   H27039712   3.232   4.384   0.371  2.6215 -0.6597 -2.3154
   42MOL   H27139713   3.290   4.539   0.354 -3.3598 -0.0908  1.1679
   42MOL   H27239714   3.379   4.511   0.603  1.9184 -1.3394 -0.5972
   42MOL   H27339715   3.306   4.356   0.606  3.8451 -0.5782 -0.5981
   42MOL   H27439716   3.103   4.457   0.546  1.7670 -1.2793 -0.9377
   42MOL   H27539717   3.174   4.623   0.573  2.7118 -0.3516 -0.6505
   42MOL   H27639718   3.208   4.535   0.827 -0.8831  0.4276  0.5530
   42MOL   H27739719   3.119   4.393   0.775  0.4963 -0.1936 -1.7993
   42MOL   H27839720   2.992   4.651   0.797  0.5100 -0.9227  1.7289
   42MOL   H27939721   2.927   4.524   0.715 -3.3094  1.6127  1.9128
   42MOL   H28039722   3.031   4.488   1.008 -0.8905  0.4485  0.7234
   42MOL   H28139723   2.939   4.378   0.924 -0.1993  0.1232  0.9614
   42MOL   H28239724   2.721   4.845   1.078 -1.9045  0.4086  3.8151
   42MOL   H28339725   2.650   4.728   0.973 -0.2603 -1.1602  1.1443
   42MOL   H28439726   2.530   4.758   1.194  0.4499  1.7415 -2.8496
   42MOL   H28539727   2.656   4.696   1.284 -0.1448 -0.6415  0.3105
   42MOL   H28639728   2.516   4.512   1.271  1.3262 -1.0362  0.0500
   42MOL   H28739729   2.646   4.482   1.173 -0.5142 -0.0483  1.2198
   42MOL   H28839730   2.435   4.400   1.053 -3.6298  1.4075 -1.1084
   42MOL   H28939731   2.531   4.519   0.969  0.9918  1.4441  0.6757
   42MOL   O29039732   2.263   4.546   0.918 -0.3590 -0.3619  0.5111
   42MOL   C29139733   2.153   4.628   0.873  0.3496 -0.3958  0.0125
   42MOL   C29239734   2.131   4.618   0.716  0.0783 -0.0587 -0.1488
   42MOL   C29339735   2.046   4.728   0.656  0.6076  0.8352  0.0487
   42MOL   C29439736   2.050   4.718   0.503 -0.0086 -0.1390  0.6767
   42MOL   C29539737   1.952   4.816   0.437  0.0503 -0.1095  0.4551
   42MOL   C29639738   1.962   4.802   0.289 -0.1204 -0.7109 -0.0865
   42MOL   C29739739   1.906   4.928   0.218 -0.6159 -0.3110  0.2039
   42MOL   C29839740   1.751   4.931   0.213  0.2357 -0.9332  0.3171
   42MOL   C29939741   1.705   5.044   0.128 -0.0349 -0.1587  0.0664
   42MOL   C30039742   1.554   5.060   0.112  0.1613  0.3411  0.0222
   42MOL   O30139743   1.508   4.949   0.037  0.0726 -0.6415  0.1747
   42MOL   C30239744   1.381   4.925   0.016  0.1007  0.4687 -1.4852
   42MOL   O30339745   1.291   4.982   0.071 -0.0329  0.3912 -0.1240
   42MOL   C30439746   1.349   4.804   7.685  0.4575 -0.3341  0.1153
   42MOL   C30539747   1.477   4.734   7.630  0.1900  0.3029 -0.1621
   42MOL   C30639748   1.437   4.619   7.532  0.8340 -0.4423  1.0540
   42MOL   C30739749   1.539   4.536   7.466 -0.3721  0.2537  0.6882
   42MOL   C30839750   1.617   4.444   7.561 -0.3737  0.2163  0.0478
   42MOL   O30939751   1.606   4.320   7.559 -0.0064 -0.7569 -0.1527
   42MOL   H31039752   2.069   4.597   0.934 -1.2893  1.8898 -1.0148
   42MOL   H31139753   2.159   4.734   0.896 -0.4759  0.0721 -1.8695
   42MOL   H31239754   2.093   4.519   0.688 -0.7225  0.2108 -0.0275
   42MOL   H31339755   2.227   4.625   0.665 -0.6872  0.9490 -1.4858
   42MOL   H31439756   1.942   4.716   0.687  1.0951 -0.8263  1.1405
   42MOL   H31539757   2.082   4.824   0.693  2.5645  0.3110 -0.4693
   42MOL   H31639758   2.037   4.617   0.465 -0.2067  0.3368 -0.5615
   42MOL   H31739759   2.154   4.744   0.485  0.1641 -2.0985 -1.3380
   42MOL   H31839760   1.974   4.914   0.478  0.1957  0.5032 -1.0446
   42MOL   H31939761   1.855   4.779   0.470 -0.6915 -0.8622 -2.3928
   42MOL   H32039762   1.915   4.705   0.274  1.1510 -1.3535  0.0051
   42MOL   H32139763   2.066   4.779   0.268  0.4973  1.7340  0.1226
   42MOL   H32239764   1.952   4.929   0.119 -0.1674  0.0563  0.4157
   42MOL   H32339765   1.944   5.018   0.267  0.8389 -2.0783  2.3934
   42MOL   H32439766   1.706   4.943   0.311 -0.0030 -1.7876  0.3156
   42MOL   H32539767   1.725   4.839   0.161  0.0818 -0.5580 -0.2732
   42MOL   H32639768   1.720   5.139   0.180 -0.8018  1.0233 -1.8373
   42MOL   H32739769   1.756   5.054   0.032  0.8494  0.8254  0.6255
   42MOL   H32839770   1.525   5.150   0.056  0.9276  0.7231  0.2329
   42MOL   H32939771   1.507   5.062   0.210  0.2636 -0.3622  0.0825
   42MOL   H33039772   1.295   4.730   7.744 -1.9046  0.4340 -1.0205
   42MOL   H33139773   1.277   4.839   7.611  0.8233  3.5412  1.4909
   42MOL   H33239774   1.533   4.698   7.717  1.2872  1.8283 -0.2238
   42MOL   H33339775   1.559   4.791   7.586  1.0219 -0.9367 -0.2351
   42MOL   H33439776   1.381   4.673   7.456 -0.6764 -0.9878  1.7460
   42MOL   H33539777   1.377   4.554   7.596  0.8147  0.6060  2.1083
   42MOL   H33639778   1.611   4.599   7.413  1.1596 -1.0330  1.2128
   42MOL   H33739779   1.502   4.470   7.387 -0.6577  0.7414  0.4101
   42MOL   O33839780   1.697   4.507   7.644  0.7873 -0.5703  0.2967
   42MOL   C33939781   1.779   4.429   7.734  0.4893 -0.1272  0.2146
   42MOL   C34039782   1.884   4.520   0.036 -0.0629 -0.1147  0.3617
   42MOL   C34139783   2.002   4.454   0.107 -0.0439 -0.0816 -0.8059
   42MOL   C34239784   1.959   4.380   0.240 -0.4312  0.1969 -0.5020
   42MOL   C34339785   2.073   4.281   0.298  0.9877  0.3424 -0.9991
   42MOL   C34439786   2.203   4.348   0.350 -0.4813  0.7060  0.6643
   42MOL   C34539787   2.298   4.245   0.408  0.3980 -0.7299 -0.0668
   42MOL   C34639788   2.423   4.317   0.471  0.2415  0.1984 -1.0379
   42MOL   C34739789   2.382   4.409   0.583  0.0985 -0.0871  0.6186
   42MOL   C34839790   2.502   4.462   0.669 -0.4724  0.1498 -0.8899
   42MOL   O34939791   2.600   4.539   0.600  0.4553 -0.1651 -0.7679
   42MOL   C35039792   2.585   4.673   0.600  0.9720  0.7004  0.4511
   42MOL   O35139793   2.521   4.742   0.677 -0.6544  0.5116  0.3224
   42MOL   C35239794   2.682   4.737   0.499  0.0673  0.0291 -0.0763
   42MOL   C35339795   2.710   4.652   0.374  0.2703 -0.0004  0.1065
   42MOL   C35439796   2.826   4.718   0.295 -0.0190 -0.2883 -0.1495
   42MOL   C35539797   2.967   4.678   0.342  0.3196  0.3464 -0.5291
   42MOL   C35639798   3.071   4.769   0.276 -0.6117 -0.1702 -0.5353
   42MOL   O35739799   3.118   4.873   0.331  0.5782  0.0090  0.9198
   42MOL   H35839800   1.719   4.390   0.052 -0.0109  1.7186  0.7274
   42MOL   H35939801   1.819   4.343   7.680  3.2681  0.4836  1.2048
   42MOL   H36039802   1.834   4.589   0.103 -0.5765 -0.0658 -0.0662
   42MOL   H36139803   1.929   4.574   7.718  0.3650  2.1510  2.0398
   42MOL   H36239804   2.058   4.381   0.049  1.5708  0.1350  0.4639
   42MOL   H36339805   2.074   4.530   0.136 -0.1476 -0.0445 -0.6481
   42MOL   H36439806   1.869   4.322   0.219  0.5532 -1.3791 -0.4776
   42MOL   H36539807   1.925   4.448   0.317 -1.1016 -0.8753  0.1623
   42MOL   H36639808   2.089   4.202   0.225  0.6654 -1.1419  0.5257
   42MOL   H36739809   2.037   4.230   0.387 -0.3464 -0.4622 -1.9770
   42MOL   H36839810   2.166   4.404   0.437 -3.6303 -0.2472  0.0058
   42MOL   H36939811   2.234   4.414   0.269 -0.0062 -0.8969 -0.4726
   42MOL   H37039812   2.339   4.192   0.322  1.0056  0.4350 -0.5004
   42MOL   H37139813   2.248   4.174   0.474 -0.0925  0.8105  1.2477
   42MOL   H37239814   2.483   4.379   0.404  0.3876  0.1653 -0.9365
   42MOL   H37339815   2.485   4.242   0.519  0.7418  1.4427  0.2948
   42MOL   H37439816   2.314   4.483   0.543  0.6002  0.4907  0.8354
   42MOL   H37539817   2.317   4.359   0.655 -0.1006  1.7341  1.7328
   42MOL   H37639818   2.561   4.379   0.707 -1.9217  0.0270  1.2044
   42MOL   H37739819   2.463   4.500   0.764 -0.4744 -0.1212 -0.7828
   42MOL   H37839820   2.643   4.836   0.477 -0.4318  0.0786  1.0159
   42MOL   H37939821   2.774   4.760   0.553  0.4920 -1.0683 -0.3092
   42MOL   H38039822   2.627   4.673   0.306  0.6559  1.7108  0.1522
   42MOL   H38139823   2.732   4.546   0.386 -0.1458 -0.3170 -1.7484
   42MOL   H38239824   2.821   4.825   0.317  0.2125 -0.7756  2.4261
   42MOL   H38339825   2.817   4.703   0.187 -2.0550 -2.3362  0.2604
   42MOL   H38439826   3.008   4.577   0.330  1.2255  0.7529 -0.9056
   42MOL   H38539827   2.963   4.694   0.450  0.5385  1.4769 -0.6811
   42MOL   O38639828   3.112   4.730   0.154  0.3331 -0.4702 -0.6921
   42MOL   C38739829   3.218   4.793   0.079  0.8009  0.9190  0.7887
   42MOL   C38839830   3.340   4.706   0.066 -0.5920  0.7514 -0.1374
   42MOL   C38939831   3.341   4.592   7.742  0.5043  0.1462 -0.5776
   42MOL   C39039832   3.473   4.518   7.731 -0.2146 -0.4628 -0.5732
   42MOL   C39139833   3.560   4.577   7.624  0.4681 -0.4544 -0.5390
   42MOL   C39239834   3.684   4.494   7.587  0.1488 -0.2661  0.7753
   42MOL   C39339835   3.761   4.555   7.469  0.3514 -0.3328  0.3044
   42MOL   C39439836   3.900   4.495   7.455  0.0542  0.4003 -0.1468
   42MOL   C39539837   3.992   4.564   7.352 -0.3425 -0.6189  0.3001
   42MOL   C39639838   4.118   4.484   7.306 -0.5177  0.2226  0.0175
   42MOL   O39739839   4.194   4.565   7.212  0.0052 -0.0275 -0.3523
   42MOL   C39839840   4.327   4.539   7.190 -0.2615 -0.1125 -0.1719
   42MOL   O39939841   4.393   4.451   7.242 -0.0216  0.1010  0.0734
   42MOL   C40039842   4.381   4.636   7.087  0.2193 -0.1867 -0.2476
   42MOL   C40139843   4.512   4.699   7.128  0.5847  0.2221  0.2534
   42MOL   C40239844   4.548   4.805   7.023  0.3400  0.0992 -0.2615
   42MOL   C40339845   4.682   4.881   7.044 -0.6306  0.0592  0.2904
   42MOL   C40439846   4.690   4.951   7.184 -0.4953 -0.8859 -0.4926
   42MOL   O40539847   4.760   4.913   7.279  0.0159 -0.1984 -0.2206
   42MOL   H40639848   3.162   4.827   7.757  2.0514  1.4005  0.1711
   42MOL   H40739849   3.237   4.892   0.121 -2.6214  1.2159  1.8421
   42MOL   H40839850   3.353   4.679   0.171 -1.4805 -1.3486 -0.5413
   42MOL   H40939851   3.424   4.772   0.044  0.0720  0.0061  0.1127
   42MOL   H41039852   3.281   4.508   0.015  0.3727  0.2199 -0.6237
   42MOL   H41139853   3.308   4.615   7.641  0.9196 -1.5171 -1.1163
   42MOL   H41239854   3.447   4.416   7.701  0.3569 -0.3424 -1.5110
   42MOL   H41339855   3.526   4.512   0.061 -0.8270 -2.1102 -0.3137
   42MOL   H41439856   3.585   4.674   7.669 -2.2193 -0.0719  0.2177
   42MOL   H41539857   3.505   4.592   7.531  1.1883 -1.2854 -1.1078
   42MOL   H41639858   3.648   4.394   7.561  0.3242 -0.2730  0.5584
   42MOL   H41739859   3.740   4.478   7.679 -0.5299 -0.8102  1.0983
   42MOL   H41839860   3.765   4.663   7.480 -0.6905 -0.2765  0.1267
   42MOL   H41939861   3.698   4.544   7.381 -0.0511 -0.7014  0.6391
   42MOL   H42039862   3.881   4.389   7.438 -0.5175  0.0769  2.3440
   42MOL   H42139863   3.953   4.486   7.550  1.3833 -2.8974 -1.1455
   42MOL   H42239864   3.928   4.588   7.267 -0.0581  0.2898  0.3459
   42MOL   H42339865   4.025   4.659   7.392 -0.4461  0.1070 -1.3090
   42MOL   H42439866   4.083   4.396   7.251  3.2568 -1.7258  0.5339
   42MOL   H42539867   4.185   4.439   7.380 -0.4081 -1.9512 -1.3569
   42MOL   H42639868   4.394   4.571   7.000 -2.0405 -2.9680  1.3933
   42MOL   H42739869   4.309   4.710   7.053 -0.9667 -2.4199 -2.8011
   42MOL   H42839870   4.591   4.624   7.133  1.7623  1.3621 -0.9557
   42MOL   H42939871   4.513   4.734   7.231  0.1596  0.0549  0.3171
   42MOL   H43039872   4.476   4.885   7.008 -0.9414 -1.3285 -1.8534
   42MOL   H43139873   4.548   4.758   6.925 -0.8588  1.1118 -0.7692
   42MOL   H43239874   4.700   4.965   6.977 -0.6890  1.3260  1.8404
   42MOL   H43339875   4.758   4.803   7.038 -0.6099  0.1416 -0.6266
   42MOL   O43439876   4.606   5.061   7.182  1.1769  0.3608  0.3120
   42MOL   C43539877   4.575   5.136   7.301  0.4851  0.2167 -0.6054
   42MOL   C43639878   4.424   5.185   7.281  0.7177  0.2941 -0.2652
   42MOL   C43739879   4.349   5.267   7.388  0.9029 -0.8178 -0.3649
   42MOL   C43839880   4.224   5.336   7.330 -0.0726 -0.0077 -0.2305
   42MOL   C43939881   4.131   5.393   7.439 -0.1374 -0.2695 -0.1391
   42MOL   C44039882   4.002   5.462   7.378  0.8055 -0.9875 -0.4937
   42MOL   C44139883   4.021   5.588   7.303 -0.0430  0.2637 -0.5397
   42MOL   C44239884   3.896   5.647   7.228  0.1091 -0.4632  0.5821
   42MOL   C44339885   3.928   5.788   7.165  1.0069  0.2376 -0.4464
   42MOL   C44439886   3.821   5.840   7.068  0.2725  0.0628  0.3190
   42MOL   O44539887   3.866   5.935   6.976  0.8529  0.1804  0.1420
   42MOL   C44639888   3.781   5.980   6.882 -0.0633  0.4424 -0.1076
   42MOL   O44739889   3.665   5.956   6.874  0.6449 -0.0040 -0.7938
   42MOL   C44839890   3.834   6.091   6.799  0.0675  0.1078  0.1189
   42MOL   C44939891   3.761   6.221   6.815  0.0765 -0.9530  0.7179
   42MOL   C45039892   3.762   6.296   6.957  0.0144  0.5865  0.4467
   42MOL   C45139893   3.738   6.449   6.956 -0.2799 -0.4792 -0.1923
   42MOL   C45239894   3.872   6.506   6.906  0.5138  0.4172  0.6091
   42MOL   O45339895   3.961   6.544   6.982  0.1921  0.2905  0.3364
   42MOL   H45439896   4.582   5.077   7.392 -1.3535 -0.1481 -0.6875
   42MOL   H45539897   4.647   5.218   7.306  0.4360  0.5156 -3.5921
   42MOL   H45639898   4.361   5.096   7.274  0.5827  0.1795  2.0320
   42MOL   H45739899   4.417   5.242   7.188 -0.3681 -0.1707 -0.4878
   42MOL   H45839900   4.327   5.206   7.475  1.2692 -0.7428 -0.2197
   42MOL   H45939901   4.412   5.346   7.429  1.1512 -0.8689 -0.6428
   42MOL   H46039902   4.170   5.265   7.268  1.5587 -0.1452 -1.4951
   42MOL   H46139903   4.251   5.412   7.257 -1.3491 -0.3946 -1.1263
   42MOL   H46239904   4.180   5.472   7.496  0.3291  0.5475 -1.6437
   42MOL   H46339905   4.095   5.321   7.513 -0.2380 -0.5787 -0.4853
   42MOL   H46439906   3.920   5.493   7.443 -2.0520 -0.3769 -4.2064
   42MOL   H46539907   3.952   5.391   7.312  2.1587 -0.1420 -2.4701
   42MOL   H46639908   4.103   5.573   7.232  1.4715 -0.9636  1.4214
   42MOL   H46739909   4.070   5.673   7.351  0.4963 -0.1863 -0.2897
   42MOL   H46839910   3.808   5.651   7.292  0.1787  1.5940  0.5755
   42MOL   H46939911   3.874   5.576   7.148 -0.0692  0.0083  0.2079
   42MOL   H47039912   3.926   5.865   7.243 -0.6994 -1.3286  1.1181
   42MOL   H47139913   4.029   5.784   7.126  1.5853  1.9392  0.7986
   42MOL   H47239914   3.734   5.886   7.117 -0.9109  0.0126 -1.6741
   42MOL   H47339915   3.786   5.762   7.001  1.0545 -0.4481  0.5058
   42MOL   H47439916   3.939   6.096   6.827 -0.2395 -1.5661  1.6329
   42MOL   H47539917   3.821   6.059   6.696  1.3965 -0.2553  0.0482
   42MOL   H47639918   3.664   6.202   6.769  0.5031  0.1294 -0.6537
   42MOL   H47739919   3.785   6.287   6.732 -0.6162 -0.3952  0.9587
   42MOL   H47839920   3.856   6.272   7.006  0.0604  0.4920  0.3138
   42MOL   H47939921   3.688   6.249   7.022 -0.3100  0.8632  0.2808
   42MOL   H48039922   3.724   6.504   7.049 -0.9459 -0.3200 -0.3907
   42MOL   H48139923   3.661   6.477   6.885  0.1356  0.4176 -0.2924
   42MOL   O48239924   3.873   6.506   6.772 -0.0214 -0.1086  0.0061
   42MOL   C48339925   3.983   6.555   6.697 -0.0400 -0.3623  0.0545
   42MOL   C48439926   4.028   6.455   6.584  0.0931 -0.1022  0.0165
   42MOL   C48539927   4.157   6.501   6.507  0.8137 -0.1710  0.0558
   42MOL   C48639928   4.208   6.404   6.401 -0.0558 -0.4498  0.4233
   42MOL   C48739929   4.328   6.442   6.314  0.1973 -0.3114  0.1052
   42MOL   C48839930   4.451   6.493   6.396  0.1310 -0.4541 -0.6005
   42MOL   C48939931   4.579   6.499   6.315 -0.3117 -0.6691  0.4631
   42MOL   C49039932   4.695   6.566   6.389  0.4931  0.7086 -0.3131
   42MOL   C49139933   4.755   6.471   6.500  1.1480  0.3688  0.3717
   42MOL   C49239934   4.870   6.536   6.579  0.2753 -1.0791  0.4478
   42MOL   O49339935   4.911   6.439   6.677  0.4305 -0.4059  0.2142
   42MOL   C49439936   5.031   6.463   6.735  0.3320 -0.4100 -0.2811
   42MOL   O49539937   5.092   6.571   6.725  0.6882 -0.1909  0.1528
   42MOL   C49639938   5.068   6.345   6.812 -0.6405  0.1895 -0.1686
   42MOL   C49739939   5.097   6.216   6.735 -0.4784  0.1418  0.3485
   42MOL   C49839940   5.220   6.220   6.643  0.3805  0.7610  0.1825
   42MOL   C49939941   5.240   6.096   6.545 -0.0027 -0.1273  0.0987
   42MOL   C50039942   5.175   6.127   6.412 -0.1624  0.3749  0.1487
   42MOL   O50139943   5.248   6.113   6.312  0.0124  0.7169 -0.3508
   42MOL   H50239944   3.954   6.646   6.645  0.0569 -0.2255  0.2414
   42MOL   H50339945   4.072   6.576   6.756 -1.2003  0.9421  1.3689
   42MOL   H50439946   3.943   6.437   6.517 -0.7883  1.4795  0.6779
   42MOL   H50539947   4.038   6.354   6.622  0.3208  1.1980  3.6401
   42MOL   H50639948   4.128   6.593   6.457  2.3508  0.4092  0.1890
   42MOL   H50739949   4.233   6.527   6.581  0.4548 -1.0822  0.7608
   42MOL   H50839950   4.119   6.374   6.345  0.1269  0.2549 -0.2549
   42MOL   H50939951   4.234   6.317   6.461  1.0784 -0.5581 -0.2066
   42MOL   H51039952   4.295   6.520   6.246 -0.0506 -0.3849  0.1432
   42MOL   H51139953   4.342   6.361   6.243 -2.7706  0.8892 -1.9512
   42MOL   H51239954   4.465   6.436   6.488  1.1563  1.0067  0.1624
   42MOL   H51339955   4.418   6.590   6.431  0.5393 -0.4418 -0.2448
   42MOL   H51439956   4.569   6.560   6.226  1.4731 -0.6156  0.2898
   42MOL   H51539957   4.601   6.398   6.279  0.9552  0.1340 -1.0492
   42MOL   H51639958   4.664   6.659   6.437  2.8502  0.8670  0.9809
   42MOL   H51739959   4.755   6.613   6.311 -0.5038  1.4008 -0.6720
   42MOL   H51839960   4.677   6.450   6.574  1.1497 -1.3625 -0.0893
   42MOL   H51939961   4.801   6.379   6.464  2.0175  1.3133 -0.9469
   42MOL   H52039962   4.835   6.624   6.632 -2.0728 -0.9684 -1.2110
   42MOL   H52139963   4.957   6.560   6.519 -0.0031  2.4677  1.3560
   42MOL   H52239964   5.155   6.381   6.866 -0.7649 -1.5061  1.2196
   42MOL   H52339965   4.994   6.335   6.892 -1.3246  3.1998 -0.3926
   42MOL   H52439966   5.010   6.188   6.674  1.0747 -2.8303 -0.6093
   42MOL   H52539967   5.103   6.130   6.802 -0.8409 -0.3271 -0.2115
   42MOL   H52639968   5.302   6.208   6.713 -0.3409 -1.0800  0.7608
   42MOL   H52739969   5.247   6.315   6.597  3.7674 -0.4506 -0.4478
   42MOL   H52839970   5.195   6.003   6.579 -2.4526  1.2439  0.7318
   42MOL   H52939971   5.348   6.086   6.533  0.0019 -0.8861  0.7170
   42MOL   O53039972   5.042   6.162   6.413 -0.0846 -0.1274  0.0188
   42MOL   C53139973   4.975   6.174   6.288  0.3096 -0.4639  0.0837
   42MOL   C53239974   5.008   6.301   6.205  0.4995  0.0883 -0.0805
   42MOL   C53339975   5.066   6.428   6.285  0.0836  0.0129  0.7178
   42MOL   C53439976   5.062   6.549   6.193 -0.1856 -0.1118 -0.4353
   42MOL   C53539977   5.128   6.668   6.263 -0.3838 -0.8720  0.1446
   42MOL   C53639978   5.159   6.788   6.164 -0.6955 -0.2271 -0.0290
   42MOL   C53739979   5.243   6.904   6.221  0.1361 -0.0015 -0.4075
   42MOL   C53839980   5.239   7.024   6.133 -1.4475  0.2021 -0.2235
   42MOL   C53939981   5.298   7.155   6.200 -0.3386  0.3157 -0.1789
   42MOL   C54039982   5.251   7.181   6.336  0.1844  0.3915  0.2150
   42MOL   O54139983   5.314   7.303   6.381  0.1802 -0.2002  0.3110
   42MOL   C54239984   5.252   7.423   6.379  0.3335 -0.2099 -0.0985
   42MOL   O54339985   5.148   7.441   6.320 -0.0583 -0.4146 -0.3159
   42MOL   C54439986   5.322   7.532   6.451 -0.2590 -0.2583  0.3394
   42MOL   C54539987   5.336   7.513   6.613 -0.6959 -0.3500 -0.2901
   42MOL   C54639988   5.440   7.611   6.662  0.2052  0.5474 -0.0965
   42MOL   C54739989   5.457   7.620   6.817 -0.4159 -0.2482  0.0140
   42MOL   C54839990   5.363   7.716   6.897 -0.1561 -0.4120  0.0686
   42MOL   O54939991   5.401   0.061   6.937  0.0828 -0.2986 -0.2440
   42MOL   H55039992   4.990   6.084   6.228 -0.0947  0.5019 -1.5209
   42MOL   H55139993   4.869   6.183   6.312  0.3204 -2.1072  0.8125
   42MOL   H55239994   4.919   6.323   6.146 -0.7843 -1.7220  1.1429
   42MOL   H55339995   5.081   6.286   6.125  1.2514 -0.7224  0.7507
   42MOL   H55439996   5.001   6.444   6.372 -1.5464 -0.7782 -0.3218
   42MOL   H55539997   5.162   6.398   6.327 -1.5072 -0.5670  4.1334
   42MOL   H55639998   4.964   6.570   6.150  0.4119  0.7078 -1.4334
   42MOL   H55739999   5.121   6.514   6.108  1.8754  0.0124  0.9270
   42MOL   H55840000   5.222   6.632   6.305  0.3731 -1.3321 -1.8900
   42MOL   H55940001   5.049   6.693   6.335 -2.9607 -1.2304 -2.4427
   42MOL   H56040002   5.064   6.831   6.134 -2.0919 -3.3132 -0.3126
   42MOL   H56140003   5.199   6.756   6.067  1.5697  1.9220  0.1450
   42MOL   H56240004   5.348   6.879   6.236  0.4596  1.9171  0.5641
   42MOL   H56340005   5.201   6.927   6.319  1.5030 -1.7051  0.6197
   42MOL   H56440006   5.134   7.043   6.116 -1.2155  2.0874  0.3998
   42MOL   H56540007   5.284   7.004   6.036 -0.1214 -1.3682  0.6800
   42MOL   H56640008   5.405   7.157   6.180 -0.3024 -1.1125 -0.2011
   42MOL   H56740009   5.260   7.247   6.156 -0.3109  0.2484 -0.3432
   42MOL   H56840010   5.284   7.111   6.413  0.1480  1.1249  0.9116
   42MOL   H56940011   5.142   7.175   6.340  0.1659  0.0069 -0.8686
   42MOL   H57040012   5.423   7.529   6.409  0.0368  1.1779  0.9142
   42MOL   H57140013   5.283   7.633   6.436 -0.1256 -0.3219 -0.4626
   42MOL   H57240014   5.378   7.418   6.645  0.8305  0.7463  1.0445
   42MOL   H57340015   5.240   7.525   6.665 -0.0455  0.3143  0.7852
   42MOL   H57440016   5.419   7.714   6.632  1.1878  1.3418  1.8528
   42MOL   H57540017   5.538   7.602   6.615  0.8537  3.1333  0.6778
   42MOL   H57640018   5.557   7.662   6.825 -0.6281  0.1024  0.8626
   42MOL   H57740019   5.448   7.524   6.867 -1.0475 -1.0340 -1.5725
   42MOL   O57840020   5.248   7.660   6.907  0.6704  0.2709  0.6751
   42MOL   C57940021   5.136   7.728   6.956 -0.4881 -0.4623  0.1669
   42MOL   C58040022   5.024   7.719   6.857  0.5453  0.0788  0.0228
   42MOL   C58140023   4.907   0.033   6.895  0.4702  0.6766 -0.0175
   42MOL   C58240024   4.797   0.057   6.784 -0.0948  0.3245 -0.1325
   42MOL   C58340025   4.690   0.169   6.810 -0.4165  0.1915 -0.8437
   42MOL   C58440026   4.618   0.191   6.676  0.0226  0.3036 -0.4668
   42MOL   C58540027   4.540   0.319   6.672 -0.7083  0.2526  0.7996
   42MOL   C58640028   4.460   0.350   6.546  0.2062  0.4681  0.1142
   42MOL   C58740029   4.363   0.470   6.561  0.4914 -0.3481  0.0011
   42MOL   C58840030   4.325   0.534   6.431 -0.0922 -0.5047 -0.0927
   42MOL   O58940031   4.232   0.632   6.474  0.1190 -0.2650  0.3590
   42MOL   C59040032   4.114   0.642   6.407 -0.1750 -0.9603  0.0544
   42MOL   O59140033   4.084   0.585   6.302 -0.2269  0.2770  0.8266
   42MOL   C59240034   4.024   0.744   6.478 -0.2968  0.8666  0.7649
   42MOL   C59340035   3.894   0.672   6.527 -0.3039  0.2823 -0.5256
   42MOL   C59440036   3.904   0.588   6.657 -0.1644  0.0453  0.0818
   42MOL   C59540037   3.785   0.498   6.683 -0.4825  0.1568  0.0513
   42MOL   C59640038   3.661   0.570   6.727  0.0466 -0.4747  0.5639
   42MOL   O59740039   3.665   0.666   6.807  0.1742  0.5989 -0.1447
   42MOL   H59840040   5.113   7.679   7.050  2.0762 -0.0758  1.0112
   42MOL   H59940041   5.170   0.064   6.981 -1.8693 -0.1761  0.9387
   42MOL   H60040042   4.992   7.616   6.839  0.8778  0.0427 -0.3632
   42MOL   H60140043   5.062   7.759   6.763  0.1033  0.8706  0.1780
   42MOL   H60240044   4.849   7.756   6.978  0.9230 -1.2818 -0.6476
   42MOL   H60340045   4.946   0.132   6.917  1.3031  0.6737 -1.4175
   42MOL   H60440046   4.743   7.728   6.775 -1.4131  1.0167  0.3621
   42MOL   H60540047   4.829   0.059   6.680  0.1992 -4.5906 -0.2369
   42MOL   H60640048   4.746   0.259   6.836 -1.3810  0.0275  1.9489
   42MOL   H60740049   4.623   0.138   6.891  0.0424 -1.9547 -1.2426
   42MOL   H60840050   4.566   0.097   6.657 -1.0147  0.8139 -0.1924
   42MOL   H60940051   4.693   0.203   6.598  0.4963 -0.3725 -0.1179
   42MOL   H61040052   4.607   0.402   6.692 -0.5835  0.4673 -0.4615
   42MOL   H61140053   4.477   0.313   6.760  1.4092  0.4356  2.3576
   42MOL   H61240054   4.403   0.259   6.527 -0.3615  0.8834 -0.1940
   42MOL   H61340055   4.535   0.359   6.468 -0.3662  0.5012 -0.4373
   42MOL   H61440056   4.271   0.432   6.605 -0.4617  2.4665  0.5784
   42MOL   H61540057   4.410   0.546   6.623 -1.4227  0.8572  0.0202
   42MOL   H61640058   4.294   0.456   6.361  0.6850 -1.3729  0.5160
   42MOL   H61740059   4.406   0.584   6.379 -2.5558  1.2671 -2.3452
   42MOL   H61840060   4.083   0.782   6.562  2.7887  1.1755 -1.4292
   42MOL   H61940061   4.001   0.821   6.405  0.2514 -1.1964 -1.6473
   42MOL   H62040062   3.836   0.625   6.447  1.2042 -0.4711 -1.1975
   42MOL   H62140063   3.824   0.751   6.555 -0.4120 -0.3374  0.9868
   42MOL   H62240064   3.916   0.649   6.747 -0.9235  1.3304 -0.6857
   42MOL   H62340065   3.993   0.524   6.652 -0.4108 -0.4094  1.1998
   42MOL   H62440066   3.808   0.426   6.762  0.3798 -0.8985 -1.1331
   42MOL   H62540067   3.767   0.434   6.596  0.3955 -0.2827  0.1941
   42MOL   O62640068   3.542   0.523   6.674 -0.1424  0.1402  0.1808
   42MOL   C62740069   3.409   0.575   6.714 -0.3118  0.1388  0.1251
   42MOL   C62840070   3.357   0.655   6.595 -0.3432 -0.4912  0.0068
   42MOL   C62940071   3.217   0.699   6.617  0.6216  0.0226  0.7590
   42MOL   C63040072   3.177   0.800   6.498 -0.6088  0.2356  0.5173
   42MOL   C63140073   3.037   0.843   6.512  1.0092 -0.9787  0.6418
   42MOL   C63240074   2.939   0.740   6.449 -0.0304 -0.2457  0.6572
   42MOL   C63340075   2.799   0.783   6.469  0.1991 -0.0267  0.3411
   42MOL   C63440076   2.703   0.695   6.395 -0.3240  0.0300  0.4610
   42MOL   C63540077   2.556   0.720   6.424 -0.1315 -0.1589  0.2092
   42MOL   C63640078   2.450   0.657   6.330 -0.3710  0.8290  0.8534
   42MOL   O63740079   2.440   0.513   6.350 -0.7212  0.0432 -0.3249
   42MOL   C63840080   2.382   0.433   6.264 -0.9005 -0.5126  0.0766
   42MOL   O63940081   2.316   0.457   6.162 -0.3094  0.5798  0.0327
   42MOL   C64040082   2.405   0.284   6.295  1.2559 -0.0524  0.1964
   42MOL   C64140083   2.554   0.237   6.286 -0.1308 -0.6406 -0.4330
   42MOL   C64240084   2.577   0.099   6.337 -0.3320 -0.6553  0.2827
   42MOL   C64340085   2.471   7.764   6.305  0.1083  0.0047 -0.2702
   42MOL   C64440086   2.462   7.714   6.158 -0.1669  0.2863 -0.0967
   42MOL   O64540087   2.566   7.707   6.090 -0.1347 -0.7745  0.2460
   42MOL   H64640088   3.347   0.489   6.740  1.1174 -0.5717  1.2786
   42MOL   H64740089   3.415   0.634   6.806 -0.6137  1.9665 -1.0183
   42MOL   H64840090   3.365   0.601   6.501 -0.7840  1.4253 -1.1556
   42MOL   H64940091   3.428   0.737   6.582 -0.3747 -0.1333  1.9272
   42MOL   H65040092   3.151   0.613   6.604  0.7328 -0.1389  1.2752
   42MOL   H65140093   3.198   0.748   6.712  1.8214  0.9938  0.5167
   42MOL   H65240094   3.202   0.762   6.399 -0.2201  0.7043  0.4329
   42MOL   H65340095   3.244   0.886   6.499  1.8798 -1.6221 -1.0007
   42MOL   H65440096   3.012   0.937   6.461 -1.3073 -1.0987  1.4869
   42MOL   H65540097   3.007   0.875   6.612  1.0770 -0.3126  0.4541
   42MOL   H65640098   2.950   0.641   6.493  1.0794  0.0129  0.9762
   42MOL   H65740099   2.953   0.715   6.343 -0.3493 -2.1964  1.0534
   42MOL   H65840100   2.778   0.881   6.427 -2.0136  0.1080  1.6493
   42MOL   H65940101   2.780   0.788   6.576 -1.2661  1.2838  0.0273
   42MOL   H66040102   2.728   0.589   6.403  0.8661  0.3376  0.9598
   42MOL   H66140103   2.708   0.703   6.286  1.0963 -1.4129  0.3904
   42MOL   H66240104   2.533   0.715   6.530  1.6164  1.9568  0.7259
   42MOL   H66340105   2.547   0.827   6.401 -1.7258  0.2637  2.6767
   42MOL   H66440106   2.483   0.663   6.226 -2.0149  0.0961  0.2653
   42MOL   H66540107   2.353   0.707   6.333 -1.9258 -1.7358 -2.3838
   42MOL   H66640108   2.366   0.267   6.396 -1.9663 -0.3393 -1.0118
   42MOL   H66740109   2.339   0.224   6.231  1.3279  0.2810 -0.1904
   42MOL   H66840110   2.616   0.311   6.338 -1.4132 -1.0889  1.7770
   42MOL   H66940111   2.572   0.235   6.178  0.7742  0.8182 -0.3269
   42MOL   H67040112   2.578   0.110   6.445  3.4092 -0.4710  0.3168
   42MOL   H67140113   2.678   0.069   6.306 -0.1130 -1.9223  2.1557
   42MOL   H67240114   2.378   0.026   6.356 -0.0837 -0.4770 -0.3641
   42MOL   H67340115   2.510   7.677   6.358 -0.4744  0.5500  1.0890
   42MOL   O67440116   2.340   7.675   6.123 -0.0672 -0.2044  0.0391
   42MOL   C67540117   2.317   7.645   5.983  0.1368 -0.8742  0.0325
   42MOL   C67640118   2.372   7.508   5.940  0.4940  0.3342  0.4525
   42MOL   C67740119   2.383   7.490   5.792 -0.0277  0.0568 -0.3376
   42MOL   C67840120   2.389   7.342   5.751  0.2169  0.2862  0.2577
   42MOL   C67940121   2.529   7.278   5.763 -0.3354  0.1340 -0.1154
   42MOL   C68040122   2.540   7.203   5.898  1.1957 -0.3222 -0.3653
   42MOL   C68140123   2.680   7.153   5.932 -0.3058  0.6370  1.0036
   42MOL   C68240124   2.778   7.259   5.989  0.5735 -0.2484 -0.4184
   42MOL   C68340125   2.913   7.196   6.037 -0.9213  0.2037 -0.5155
   42MOL   C68440126   3.012   7.305   6.079 -0.7895 -0.5101 -0.6635
   42MOL   O68540127   2.976   7.366   6.202 -0.2479 -0.2240  0.1450
   42MOL   C68640128   3.011   7.308   6.326 -0.2371 -0.1355 -0.6574
   42MOL   O68740129   3.087   7.214   6.342  0.5903 -0.0370  0.5855
   42MOL   C68840130   2.943   7.373   6.447 -0.7845  0.3109  0.3630
   42MOL   C68940131   2.982   7.520   6.479 -0.3254  1.2674 -0.4148
   42MOL   C69040132   3.132   7.544   6.517 -0.3969  0.1474 -0.9561
   42MOL   C69140133   3.176   7.516   6.665 -0.0245 -0.0629  0.0737
   42MOL   C69240134   3.116   7.618   6.763 -0.5380 -0.1776  0.0840
   42MOL   O69340135   3.184   7.714   6.800 -0.5684  0.3378  0.2276
   42MOL   H69440136   2.210   7.652   5.963  0.3552 -1.1585 -1.3227
   42MOL   H69540137   2.365   7.727   5.929  0.1688 -0.2600  0.9974
   42MOL   H69640138   2.309   7.429   5.980  1.0860  0.2332  1.2122
   42MOL   H69740139   2.468   7.476   5.982 -0.4231  0.0632  2.3971
   42MOL   H69840140   2.292   7.530   5.747 -1.1311 -0.4234  1.3970
   42MOL   H69940141   2.468   7.542   5.747  0.7417 -0.4885  0.4502
   42MOL   H70040142   2.357   7.342   5.647 -0.8901 -0.4142  0.5861
   42MOL   H70140143   2.315   7.276   5.797 -0.5668  0.1065 -1.2335
   42MOL   H70240144   2.606   7.354   5.761  0.0515 -0.1149  3.3857
   42MOL   H70340145   2.554   7.218   5.676 -0.1494 -1.0319  0.7314
   42MOL   H70440146   2.471   7.120   5.914 -0.2045  0.7631 -0.6842
   42MOL   H70540147   2.503   7.271   5.975 -0.0324 -0.6083 -0.6949
   42MOL   H70640148   2.722   7.108   5.842 -0.2889 -0.6013  1.6171
   42MOL   H70740149   2.667   7.066   5.997  0.9813  0.6442  1.2688
   42MOL   H70840150   2.726   7.295   6.077  0.1534 -1.0556 -0.3279
   42MOL   H70940151   2.792   7.341   5.919 -0.6020 -2.2191 -3.0547
   42MOL   H71040152   2.898   7.128   6.121 -1.8258  1.7479  0.5945
   42MOL   H71140153   2.959   7.141   5.955 -1.1057  1.4921 -1.5054
   42MOL   H71240154   3.015   7.385   6.005  1.0033  0.6725  0.6228
   42MOL   H71340155   3.112   7.267   6.100 -1.2103 -1.8998 -1.1169
   42MOL   H71440156   2.835   7.366   6.433 -0.5911 -1.6650 -0.3543
   42MOL   H71540157   2.970   7.318   6.537  3.3058  0.7256 -0.5228
   42MOL   H71640158   2.910   7.543   6.558 -1.7349 -1.2725 -0.9144
   42MOL   H71740159   2.945   7.585   6.400  0.0242 -0.1490 -1.7613
   42MOL   H71840160   3.162   7.644   6.487 -0.1450  1.2450  2.7400
   42MOL   H71940161   3.197   7.473   6.467 -0.2598 -1.0151  0.8324
   42MOL   H72040162   3.284   7.531   6.666 -0.2823  1.9778 -0.2161
   42MOL   H72140163   3.153   7.415   6.698  0.0278  0.2128  0.9607
   42MOL   O72240164   2.987   7.604   6.790  0.5029  0.1349 -0.4820
   42MOL   C72340165   2.911   7.720   6.824 -0.3439  0.2966 -0.1628
   42MOL   C72440166   2.873   7.717   6.976 -0.0653 -0.4317  0.0329
   42MOL   C72540167   2.988   0.016   7.062 -0.3181 -0.4931 -0.1054
   42MOL   C72640168   2.951   0.059   7.199 -0.5347  1.1140  0.3692
   42MOL   C72740169   3.048   0.153   7.274 -0.6708  0.3829 -0.6268
   42MOL   C72840170   3.008   0.196   7.412  0.0385  0.1467 -0.0820
   42MOL   C72940171   3.044   0.092   7.517 -0.3174 -0.1152 -0.1436
   42MOL   C73040172   3.202   0.088   7.546 -0.4227  0.6021 -0.5547
   42MOL   C73140173   3.232   7.741   7.646  0.2090 -0.8623 -0.3147
   42MOL   C73240174   3.384   7.732   7.684 -0.0079  0.1146 -0.3774
   42MOL   O73340175   3.468   7.716   7.574 -0.4488  0.3292 -0.0932
   42MOL   C73440176   3.540   7.600   7.554  0.3513 -0.4140 -0.3663
   42MOL   O73540177   3.539   7.497   7.619 -0.4548 -0.5268  0.0432
   42MOL   C73640178   3.611   7.594   7.420 -0.8093  0.5727 -0.0089
   42MOL   C73740179   3.524   7.628   7.298 -0.4469 -0.0601  0.0356
   42MOL   C73840180   3.394   7.549   7.281 -0.5829  0.3251 -0.6953
   42MOL   C73940181   3.369   7.517   7.138  1.0851 -0.1800 -0.1514
   42MOL   C74040182   3.250   7.421   7.107  0.0312  0.4455 -0.1960
   42MOL   O74140183   3.128   7.455   7.107  0.4743 -0.2957  0.0250
   42MOL   H74240184   2.966   0.048   6.807 -0.9381  0.8859  1.0209
   42MOL   H74340185   2.820   7.732   6.765 -0.1396 -0.5675 -0.6594
   42MOL   H74440186   2.865   7.614   7.012  1.2203  0.1173  1.9759
   42MOL   H74540187   2.774   7.761   6.989 -0.8719 -2.3308  0.5691
   42MOL   H74640188   3.080   7.725   7.043 -1.5985 -2.1182 -1.7355
   42MOL   H74740189   3.011   0.106   7.005 -2.0873 -0.8638 -1.4403
   42MOL   H74840190   2.930   7.734   7.258 -2.6564  1.4479  0.1529
   42MOL   H74940191   2.854   0.107   7.193 -1.7165 -1.2683 -0.1205
   42MOL   H75040192   3.038   0.245   7.217 -0.9283 -0.5937 -2.1949
   42MOL   H75140193   3.154   0.127   7.268 -1.0998 -1.6438  0.0402
   42MOL   H75240194   2.901   0.215   7.413  0.2129  1.1751  1.3875
   42MOL   H75340195   3.055   0.289   7.442  1.5049 -0.6711  0.2042
   42MOL   H75440196   3.015   7.761   7.474  0.1708 -0.6011  0.6054
   42MOL   H75540197   2.990   0.094   7.611  1.2345 -1.9239  0.8157
   42MOL   H75640198   3.231   0.186   7.583  2.0466  0.2249 -1.3692
   42MOL   H75740199   3.265   0.059   7.462 -3.0650  0.5689 -2.5782
   42MOL   H75840200   3.178   7.748   7.741 -2.2635  3.6813 -1.9196
   42MOL   H75940201   3.201   7.649   7.596 -0.8029 -0.3649 -0.6069
   42MOL   H76040202   3.396   7.657   7.762 -4.1054 -1.0888 -0.7837
   42MOL   H76140203   3.406   0.067   7.721  0.6712  0.2390 -1.0922
   42MOL   H76240204   3.689   7.670   7.420 -0.2344 -0.0077 -1.4889
   42MOL   H76340205   3.661   7.498   7.406 -1.6801 -0.1267  1.5252
   42MOL   H76440206   3.584   7.627   7.207 -0.1354  3.0467  0.1450
   42MOL   H76540207   3.487   7.730   7.307  0.0763  0.4166 -2.6593
   42MOL   H76640208   3.308   7.602   7.321 -0.4605  1.2394 -1.6388
   42MOL   H76740209   3.410   7.455   7.334 -0.1226 -0.4944 -2.2613
   42MOL   H76840210   3.456   7.469   7.093 -0.2059  0.5457 -3.6106
   42MOL   H76940211   3.349   7.606   7.079  0.6560  0.2915  0.7087
   42MOL   O77040212   3.301   7.298   7.075 -0.5402 -0.6553  0.2904
   42MOL   C77140213   3.208   7.205   7.016  0.9494 -0.2494 -0.8069
   42MOL   C77240214   3.278   7.097   6.930 -0.0629  0.2143 -0.7030
   42MOL   C77340215   3.182   7.005   6.855  0.1297 -0.2066 -0.0182
   42MOL   C77440216   3.244   6.871   6.811 -0.6293  0.4909 -0.4333
   42MOL   C77540217   3.338   6.905   6.696 -0.2274  0.3107 -0.9976
   42MOL   C77640218   3.263   6.944   6.563 -0.1031  0.6161  0.1937
   42MOL   C77740219   3.169   6.843   6.500 -0.3383 -0.4241  0.5392
   42MOL   C77840220   3.113   6.876   6.369 -0.6173 -0.0814 -0.3227
   42MOL   C77940221   3.034   6.768   6.298 -0.1523  0.2168 -0.5171
   42MOL   C78040222   2.978   6.804   6.158  0.3989  0.4002 -0.5815
   42MOL   O78140223   3.098   6.808   6.080 -0.0095 -0.2759 -0.3216
   42MOL   C78240224   3.082   6.799   5.953 -0.1841 -0.0694  0.6696
   42MOL   O78340225   2.982   6.782   5.890  0.6564 -0.3152  0.1981
   42MOL   C78440226   3.213   6.796   5.877  0.2444 -0.2657  0.7369
   42MOL   C78540227   3.257   6.936   5.826 -0.3440  0.5540  0.7350
   42MOL   C78640228   3.291   7.037   5.932 -0.4451 -0.0365  0.2285
   42MOL   C78740229   3.358   7.163   5.873 -0.2825 -0.3447 -0.1408
   42MOL   C78840230   3.266   7.259   5.796  0.4654  0.5415  0.0006
   42MOL   O78940231   3.143   7.238   5.801 -0.6137 -0.7812  0.0617
   42MOL   H79040232   3.145   7.153   7.088  0.4961 -1.1653 -1.8660
   42MOL   H79140233   3.151   7.265   6.945  0.7191  0.1473 -0.2918
   42MOL   H79240234   3.337   7.041   7.002 -0.7049  0.4941  0.0642
   42MOL   H79340235   3.348   7.138   6.858  1.1673  0.1859  0.4456
   42MOL   H79440236   3.110   6.977   6.932 -0.0146  1.3078  0.4051
   42MOL   H79540237   3.126   7.051   6.774 -0.2028 -1.1526 -0.3372
   42MOL   H79640238   3.172   6.795   6.781 -0.2966  0.7080 -1.8455
   42MOL   H79740239   3.284   6.829   6.903 -1.1040  0.1949 -0.3605
   42MOL   H79840240   3.397   6.814   6.686 -0.9571 -0.4294  1.2495
   42MOL   H79940241   3.407   6.985   6.720 -0.2912  0.2970 -0.7652
   42MOL   H80040242   3.346   6.960   6.493  0.2323 -1.7327  0.0048
   42MOL   H80140243   3.204   7.035   6.570  0.4196  1.1152 -1.5130
   42MOL   H80240244   3.085   6.822   6.567 -1.1035 -2.3158 -0.9710
   42MOL   H80340245   3.214   6.744   6.496  3.4171  1.2755 -1.2675
   42MOL   H80440246   3.194   6.916   6.309 -0.2536  0.9701  0.8372
   42MOL   H80540247   3.052   6.966   6.384  0.4699  1.0914 -2.6187
   42MOL   H80640248   3.100   6.681   6.288 -0.7757 -0.5586  1.6471
   42MOL   H80740249   2.963   6.730   6.373 -1.4584  0.9358 -1.3731
   42MOL   H80840250   2.923   6.895   6.137 -2.6156 -0.9821  1.0784
   42MOL   H80940251   2.906   6.730   6.121  0.9727  0.7394 -2.4462
   42MOL   H81040252   3.293   6.756   5.938 -0.0466 -0.2156  1.1548
   42MOL   H81140253   3.211   6.733   5.787 -1.4684 -0.6630  1.0237
   42MOL   H81240254   3.176   6.972   5.763 -0.7502 -2.2888 -0.4663
   42MOL   H81340255   3.339   6.927   5.755  0.4956  1.0313  1.6324
   42MOL   H81440256   3.357   6.985   6.001  2.6085  2.1755 -0.9162
   42MOL   H81540257   3.205   7.060   5.997 -0.5108  0.6156 -0.0852
   42MOL   H81640258   3.434   7.142   5.798 -0.6467 -0.0477 -0.5910
   42MOL   H81740259   3.410   7.215   5.954  0.4298  0.5003 -1.1303
   42MOL   O81840260   3.326   7.362   5.735 -0.4915  0.1880  0.5874
   42MOL   C81940261   3.247   7.453   5.660 -0.2599  0.0242  0.4420
   42MOL   C82040262   3.331   7.522   5.556 -0.4704 -0.4459  0.7347
   42MOL   C82140263   3.400   7.434   5.459 -0.8520 -0.0276  0.3664
   42MOL   C82240264   3.475   7.513   5.346 -0.6005  0.9485 -0.9081
   42MOL   C82340265   3.528   7.430   5.237  0.6855  0.0899 -0.1215
   42MOL   C82440266   3.604   7.511   5.127  0.8121 -0.6900 -0.6473
   42MOL   C82540267   3.638   7.425   5.002  0.1911 -0.8628 -0.4408
   42MOL   C82640268   3.734   7.496   4.909 -0.4198 -0.4332  0.3950
   42MOL   C82740269   3.732   7.433   4.766  0.3145 -0.2178  0.1316
   42MOL   C82840270   3.848   7.483   4.687 -0.1844 -0.0406 -0.5652
   42MOL   O82940271   3.817   7.485   4.548 -0.5070  0.4513  0.0169
   42MOL   C83040272   3.737   7.582   4.487  0.3342 -0.6751 -0.1672
   42MOL   O83140273   3.670   7.667   4.549  0.5269  0.2022  0.5549
   42MOL   C83240274   3.727   7.570   4.337 -0.2380  0.4975 -0.4523
   42MOL   C83340275   3.649   7.445   4.287 -0.6044 -0.1327  0.5979
   42MOL   C83440276   3.608   7.441   4.138 -0.1509 -0.5158 -0.2523
   42MOL   C83540277   3.556   7.302   4.084 -0.0042 -0.1908  0.1726
   42MOL   C83640278   3.456   7.297   3.970  0.0266  0.2759  0.2616
   42MOL   O83740279   3.471   7.240   3.864 -0.1757 -0.1351 -0.3819
   42MOL   H83840280   3.160   7.410   5.610  1.0749 -1.0328 -0.9968
   42MOL   H83940281   3.199   7.525   5.726  1.6832  0.3640  1.5239
   42MOL   H84040282   3.389   7.594   5.614  0.3767  0.3028 -1.0385
   42MOL   H84140283   3.255   7.580   5.504  0.6540 -0.5127 -1.0145
   42MOL   H84240284   3.482   7.379   5.504  1.5916  0.5930 -3.0770
   42MOL   H84340285   3.336   7.359   5.412 -0.6706  0.8770 -1.3967
   42MOL   H84440286   3.560   7.561   5.395 -0.3994 -0.9802  0.7172
   42MOL   H84540287   3.409   7.586   5.301  0.9995  0.6200 -3.9072
   42MOL   H84640288   3.443   7.376   5.195 -0.2890  0.4392  1.3523
   42MOL   H84740289   3.590   7.346   5.269 -0.1349 -0.5499 -0.1851
   42MOL   H84840290   3.697   7.554   5.164  0.5329 -1.4046  0.9220
   42MOL   H84940291   3.536   7.593   5.103 -0.0338 -0.9890  0.6611
   42MOL   H85040292   3.543   7.422   4.948  0.1277  1.5879 -0.4960
   42MOL   H85140293   3.674   7.329   5.038  0.2325  0.1110  2.2134
   42MOL   H85240294   3.836   7.482   4.945  0.3300  0.7189 -1.2595
   42MOL   H85340295   3.713   7.603   4.905 -0.1895 -0.4553 -2.8494
   42MOL   H85440296   3.736   7.325   4.775 -0.2021 -0.2411  0.1003
   42MOL   H85540297   3.636   7.466   4.726  1.7049  2.0646 -1.4612
   42MOL   H85640298   3.932   7.420   4.716 -0.3673 -0.6621 -1.3563
   42MOL   H85740299   3.868   7.586   4.717 -1.6423  0.1305 -0.1411
   42MOL   H85840300   3.676   7.654   4.288 -0.3066 -0.0855 -1.3887
   42MOL   H85940301   3.831   7.561   4.307  0.0590 -0.9550  0.9948
   42MOL   H86040302   3.561   7.438   4.351  0.3209 -0.9742  1.8131
   42MOL   H86140303   3.701   7.353   4.315 -0.8213 -0.1317  1.0156
   42MOL   H86240304   3.704   7.460   4.089  0.8405 -1.5784  1.2482
   42MOL   H86340305   3.541   7.521   4.107 -1.4074 -0.9914  1.2025
   42MOL   H86440306   3.508   7.254   4.170  0.1947 -0.5590  0.0780
   42MOL   H86540307   3.626   7.223   4.057  0.1982 -0.4987  1.5248
   42MOL   O86640308   3.346   7.363   4.004 -0.6671 -0.1383  0.4822
   42MOL   C86740309   3.236   7.377   3.915  0.3454  0.2239  0.3735
   42MOL   C86840310   3.127   7.302   3.991 -0.2421  0.1997 -0.7108
   42MOL   C86940311   3.117   7.344   4.139 -0.3168 -0.0506 -0.1598
   42MOL   C87040312   2.995   7.293   4.217  0.0155 -0.2054 -0.6629
   42MOL   C87140313   2.957   7.343   4.357  0.7309  0.2906  0.1197
   42MOL   C87240314   2.841   7.267   4.421  0.5595 -0.0349 -0.6961
   42MOL   C87340315   2.827   7.288   4.571 -0.3256 -0.3713  0.8185
   42MOL   C87440316   2.717   7.213   4.643  0.3195  0.8067  0.3526
   42MOL   C87540317   2.589   7.294   4.635  0.2280  0.1604 -0.1220
   42MOL   C87640318   2.471   7.236   4.707  0.0531 -0.1325  0.0923
   42MOL   O87740319   2.426   7.114   4.642 -0.0343  0.8500 -0.4389
   42MOL   C87840320   2.326   7.050   4.689  0.0256 -0.0016 -0.3639
   42MOL   O87940321   2.248   7.101   4.770 -0.4306  0.1766  0.0716
   42MOL   C88040322   2.315   6.908   4.633  1.3593 -0.6281 -0.1093
   42MOL   C88140323   2.169   6.868   4.610  1.3155 -0.4362 -0.3144
   42MOL   C88240324   2.142   6.720   4.586 -0.0241  0.2876  0.1916
   42MOL   C88340325   2.162   6.672   4.439  0.0302 -0.0267 -0.0593
   42MOL   C88440326   2.295   6.698   4.374 -0.0626  0.2418  0.0188
   42MOL   O88540327   2.316   6.805   4.316 -0.6679 -0.1831  0.3907
   42MOL   H88640328   3.192   7.476   3.902 -2.2114 -1.0433 -0.8747
   42MOL   H88740329   3.236   7.344   3.811  1.3940  1.7616 -0.1354
   42MOL   H88840330   3.142   7.194   3.988 -3.2953 -0.3143  0.5323
   42MOL   H88940331   3.030   7.330   3.951 -0.8633  1.4440  1.6062
   42MOL   H89040332   3.209   7.313   4.188  1.4266 -1.5728 -4.2097
   42MOL   H89140333   3.116   7.452   4.156 -3.0321 -0.2590  1.2574
   42MOL   H89240334   3.009   7.186   4.228 -1.7789 -0.4149 -0.2316
   42MOL   H89340335   2.905   7.297   4.155  0.9444  0.6958 -1.9817
   42MOL   H89440336   2.925   7.447   4.356 -1.9743 -0.5052 -0.3768
   42MOL   H89540337   3.049   7.340   4.416  2.5234  2.2313 -2.4433
   42MOL   H89640338   2.861   7.161   4.404 -1.5435 -0.5865  0.1632
   42MOL   H89740339   2.742   7.290   4.382  0.4262 -0.3525 -0.5439
   42MOL   H89840340   2.833   7.395   4.592  2.2737 -0.0879 -1.1630
   42MOL   H89940341   2.920   7.257   4.618 -0.0164 -0.2714  0.2751
   42MOL   H90040342   2.735   7.210   4.751 -0.2295  0.2986  0.4315
   42MOL   H90140343   2.717   7.111   4.603  1.0386  1.1941 -0.6444
   42MOL   H90240344   2.608   7.398   4.662 -0.1385 -0.1255  1.2700
   42MOL   H90340345   2.557   7.310   4.532  0.0916 -0.4055 -0.1731
   42MOL   H90440346   2.390   7.308   4.711  0.4130  0.3702 -1.3147
   42MOL   H90540347   2.508   7.216   4.808  2.5727 -0.6610 -0.8792
   42MOL   H90640348   2.347   6.912   4.529 -1.5012  3.2386 -0.9283
   42MOL   H90740349   2.381   6.838   4.685  1.0170  0.3499  1.6621
   42MOL   H90840350   2.129   6.929   4.529  0.8282  1.7476  1.5261
   42MOL   H90940351   2.111   6.907   4.693  1.9953 -0.6906  0.2850
   42MOL   H91040352   2.039   6.699   4.617  0.5415 -1.1082  1.1956
   42MOL   H91140353   2.193   6.659   4.660 -0.5453  0.1486  0.4414
   42MOL   H91240354   2.088   6.715   4.372 -0.4852 -0.7608  0.0268
   42MOL   H91340355   2.150   6.563   4.440  1.5911 -0.2232 -1.0697
   42MOL   O91440356   2.379   6.604   4.428 -0.5362 -0.3376  0.0213
   42MOL   C91540357   2.517   6.617   4.410  0.4204  0.3068  0.2733
   42MOL   C91640358   2.568   6.556   4.277 -0.3868  0.4265  0.1484
   42MOL   C91740359   2.719   6.574   4.253 -0.2249 -0.4268  0.0862
   42MOL   C91840360   2.756   6.720   4.227  0.5483 -0.0570 -0.6995
   42MOL   C91940361   2.901   6.731   4.189 -0.8319 -0.3608 -0.4768
   42MOL   C92040362   2.953   6.878   4.192 -0.4846 -0.3397 -0.4093
   42MOL   C92140363   3.092   6.904   4.128 -0.5235 -0.0854  0.0471
   42MOL   C92240364   3.086   6.915   3.971  0.9491 -0.6257 -0.5845
   42MOL   C92340365   3.229   6.926   3.908  0.7512  0.0130  0.3237
   42MOL   C92440366   3.220   6.952   3.759 -0.0236 -0.7767  0.5122
   42MOL   O92540367   3.341   6.941   3.685 -0.4231  0.3592 -0.3440
   42MOL   C92640368   3.383   7.048   3.611 -0.6120  0.6121 -0.4425
   42MOL   O92740369   3.329   7.156   3.596  0.0085  1.1036 -0.7730
   42MOL   C92840370   3.509   7.011   3.538 -0.6257  0.2976  0.2186
   42MOL   C92940371   3.610   6.959   3.634 -0.2176 -0.1553  0.0740
   42MOL   C93040372   3.755   6.939   3.581  0.2130 -0.7777  0.7845
   42MOL   C93140373   3.848   7.069   3.571  0.2628  0.4907 -0.2236
   42MOL   C93240374   3.909   7.108   3.703  0.4675  0.0005 -1.1101
   42MOL   O93340375   3.990   7.034   3.758  0.8753 -0.2928 -0.2822
   42MOL   H93440376   2.532   6.725   4.412 -1.5096  0.5874  3.2951
   42MOL   H93540377   2.575   6.574   4.492 -0.3078 -2.1264 -0.4636
   42MOL   H93640378   2.513   6.603   4.196 -2.9731 -0.0636  1.5528
   42MOL   H93740379   2.546   6.450   4.264  1.1406  0.2979 -1.5409
   42MOL   H93840380   2.784   6.555   4.338 -0.2268  0.8011  0.3713
   42MOL   H93940381   2.742   6.518   4.163 -1.4724  0.1640 -0.6088
   42MOL   H94040382   2.742   6.794   4.306 -0.0884 -1.3400  0.4097
   42MOL   H94140383   2.692   6.752   4.145 -0.6338 -1.7947 -0.4666
   42MOL   H94240384   2.908   6.687   4.089 -1.5529  0.1507 -0.7501
   42MOL   H94340385   2.963   6.680   4.263  0.8963  1.2325 -0.7981
   42MOL   H94440386   2.961   6.893   4.300  0.4905 -0.2937 -0.4873
   42MOL   H94540387   2.876   6.942   4.148 -0.1267  0.5219  0.2113
   42MOL   H94640388   3.163   6.826   4.155  0.8556  0.4525 -1.8921
   42MOL   H94740389   3.137   6.996   4.164  0.6028 -1.5796  2.6243
   42MOL   H94840390   3.033   7.007   3.943 -0.7237 -1.6258 -0.7995
   42MOL   H94940391   3.037   6.828   3.928 -2.1110  1.0694 -0.7421
   42MOL   H95040392   3.288   7.011   3.944  1.3083 -0.0161 -0.5099
   42MOL   H95140393   3.300   6.844   3.921  0.1845 -0.3254  1.3458
   42MOL   H95240394   3.174   7.048   3.740 -2.5494 -2.4424 -2.3052
   42MOL   H95340395   3.152   6.876   3.719  0.0010 -1.0919  1.0663
   42MOL   H95440396   3.494   6.933   3.464  0.2518 -0.2063  0.5566
   42MOL   H95540397   3.531   7.107   3.492 -0.5436  2.0914  3.8126
   42MOL   H95640398   3.578   6.862   3.671  4.2771 -2.4262 -1.5672
   42MOL   H95740399   3.622   7.042   3.703  0.6826  0.1177 -0.3947
   42MOL   H95840400   3.762   6.891   3.484 -1.1309 -1.2146  0.8818
   42MOL   H95940401   3.804   6.873   3.653 -1.1841 -2.9275 -0.1790
   42MOL   H96040402   3.801   7.156   3.526 -0.5449  0.6216  0.8376
   42MOL   H96140403   3.932   7.041   3.508  1.3181 -1.3494  1.9035
   42MOL   H96240404   3.854   7.188   3.753  1.2941 -0.0050 -0.1699
   43MOL     O140405   1.425   2.906   7.380  0.2506 -0.2805  0.3336
   43MOL     C240406   1.528   2.993   7.428  0.1173 -0.1237 -0.2466
   43MOL     C340407   1.614   2.905   7.524 -0.0595  0.4748  0.4849
   43MOL     C440408   1.551   2.838   7.649  0.2183  0.0371  0.3323
   43MOL     C540409   1.498   2.942   7.752 -0.0633  0.3801  0.4675
   43MOL     C640410   1.488   2.886   0.131 -0.1763  0.2843 -0.6812
   43MOL     C740411   1.473   2.984   0.244  0.2752  0.0697  0.1053
   43MOL     C840412   1.363   3.082   0.228 -0.3755 -0.2117  0.5218
   43MOL     C940413   1.357   3.186   0.344  0.1426  0.5572  0.2223
   43MOL    C1040414   1.224   3.263   0.338 -0.4669  0.3778 -0.1722
   43MOL    C1140415   1.219   3.401   0.410 -0.2380  0.3677 -0.1994
   43MOL    O1240416   1.086   3.444   0.404  0.3226  0.5250  0.0190
   43MOL    C1340417   1.045   3.550   0.471  0.4391  0.0274 -0.3798
   43MOL    O1440418   1.124   3.630   0.528 -0.4516 -0.8227  0.0128
   43MOL    C1540419   0.896   3.572   0.461  0.6450 -0.4202 -0.5142
   43MOL    C1640420   0.846   3.604   0.317  0.0988  0.1725  0.1361
   43MOL    C1740421   0.836   3.477   0.231  0.2032 -0.6355 -1.1694
   43MOL    C1840422   0.776   3.502   0.093  0.0731  0.0273 -0.5597
   43MOL    C1940423   0.778   3.383   0.005  0.8257 -0.4178 -0.5488
   43MOL    O2040424   0.871   3.372   7.684  0.3173 -0.1588  0.1664
   43MOL    H2140425   1.595   3.025   7.349  1.1591  3.4856  1.9808
   43MOL    H2240426   1.498   3.087   7.475 -3.3362 -0.0548 -2.3933
   43MOL    H2340427   1.691   2.971   7.562 -0.4332  1.9709 -1.2661
   43MOL    H2440428   1.688   2.836   7.485 -0.1422  0.6971 -0.0707
   43MOL    H2540429   1.463   2.778   7.625 -1.2860  2.1315  0.3946
   43MOL    H2640430   1.625   2.775   7.698  0.3225  0.5494  0.8441
   43MOL    H2740431   1.411   2.985   7.704  2.3677  2.1138 -2.5586
   43MOL    H2840432   1.577   3.017   7.748  2.4456 -1.9917  3.0237
   43MOL    H2940433   1.580   2.829   0.143 -0.2161  0.2451 -0.5620
   43MOL    H3040434   1.399   2.824   0.123 -0.1223  0.3934 -2.4623
   43MOL    H3140435   1.567   3.038   0.258  2.0840 -2.3555 -2.1058
   43MOL    H3240436   1.449   2.932   0.336 -3.3977  1.5193  0.0462
   43MOL    H3340437   1.269   3.027   0.225 -1.0819  0.8271  2.4187
   43MOL    H3440438   1.366   3.142   0.138  0.0859  0.3547  0.9134
   43MOL    H3540439   1.437   3.258   0.329 -0.6435  1.2460 -0.7055
   43MOL    H3640440   1.375   3.139   0.441 -1.4223 -0.6680 -0.0577
   43MOL    H3740441   1.198   3.284   0.235 -2.6992 -2.8166 -0.3005
   43MOL    H3840442   1.142   3.195   0.361  0.3909 -1.2918 -2.0020
   43MOL    H3940443   1.276   3.465   0.344 -1.0679  0.7373 -0.5696
   43MOL    H4040444   1.267   3.378   0.505  0.5247  2.1117 -0.1592
   43MOL    H4140445   0.845   3.484   0.500  0.9433  0.2324  1.3897
   43MOL    H4240446   0.872   3.658   0.524 -1.1684 -2.1360  1.2099
   43MOL    H4340447   0.904   3.680   0.264 -1.1891  0.9069 -0.2597
   43MOL    H4440448   0.749   3.650   0.335  0.2310  0.9269 -1.0130
   43MOL    H4540449   0.786   3.392   0.278 -0.7167 -1.1512 -3.0305
   43MOL    H4640450   0.939   3.445   0.218  0.2868 -0.8045 -0.1632
   43MOL    H4740451   0.839   3.568   0.033  0.5234 -0.6480 -0.8321
   43MOL    H4840452   0.680   3.553   0.100  0.2277 -0.1074  5.1793
   43MOL    H4940453   1.453   2.866   7.299  0.6545  1.7145 -0.5621
   43MOL    O5040454   0.675   3.298   0.026  0.0835  0.1014 -0.1463
   43MOL    C5140455   0.659   3.195   7.693  0.6483  0.1668  0.1088
   43MOL    C5240456   0.533   3.108   7.719 -0.4520 -0.3598  0.2629
   43MOL    C5340457   0.403   3.185   7.749 -0.5189 -0.6278  0.0819
   43MOL    C5440458   0.280   3.099   0.002  0.0258 -0.2391 -0.2772
   43MOL    C5540459   0.253   3.040   0.135 -0.2603  0.4714 -0.3500
   43MOL    C5640460   0.153   2.926   0.131 -0.1467 -0.8905  0.1076
   43MOL    C5740461   0.133   2.875   0.283 -0.0768 -0.4682  0.6503
   43MOL    C5840462   0.042   2.750   0.280 -0.2831 -0.4838 -0.8099
   43MOL    C5940463   0.014   2.698   0.425  0.7466 -0.2662  0.2132
   43MOL    C6040464   7.717   2.550   0.422  0.1409 -0.5133 -0.3941
   43MOL    O6140465   7.711   2.505   0.551  0.7612  0.1810 -0.2848
   43MOL    C6240466   7.732   2.372   0.588 -0.1907 -0.2023  0.0316
   43MOL    O6340467   7.739   2.276   0.513 -0.2646  0.4118  0.1308
   43MOL    C6440468   7.725   2.355   0.736 -0.8425 -0.3190  0.1719
   43MOL    C6540469   7.746   2.211   0.797  0.2555  0.3059  0.4371
   43MOL    C6640470   7.625   2.120   0.792  0.5703  0.0404  0.4228
   43MOL    C6740471   7.646   1.969   0.816  0.0802  0.2019 -0.0632
   43MOL    C6840472   7.706   1.940   0.949 -0.6767 -0.6017 -0.0946
   43MOL    O6940473   7.638   1.889   1.044  0.4088  0.4495 -0.2955
   43MOL    H7040474   0.637   3.247   7.600  2.1084  1.3588  0.4117
   43MOL    H7140475   0.748   3.135   7.673  1.2985  1.7462 -1.8147
   43MOL    H7240476   0.541   3.045   0.043 -0.3343  1.0064  1.2564
   43MOL    H7340477   0.516   3.052   7.628  0.8289  0.7848 -0.7009
   43MOL    H7440478   0.406   3.262   0.061 -0.3053 -0.9985  0.4435
   43MOL    H7540479   0.387   3.244   7.659 -1.5490 -0.2943  0.4810
   43MOL    H7640480   0.291   3.015   7.698  0.1653  0.9437 -1.7309
   43MOL    H7740481   0.198   3.164   7.737 -0.6521 -0.5849  0.8105
   43MOL    H7840482   0.232   3.119   0.207  3.0464  0.4182  0.7819
   43MOL    H7940483   0.347   3.000   0.174 -0.3246 -1.0784 -1.7275
   43MOL    H8040484   0.204   2.849   0.073  1.7176  1.6663 -1.7533
   43MOL    H8140485   0.057   2.950   0.086  0.7470  0.4123 -1.1498
   43MOL    H8240486   0.095   2.950   0.353  2.0513  0.9859  0.2941
   43MOL    H8340487   0.230   2.840   0.315  0.3188 -0.0226 -0.0286
   43MOL    H8440488   0.075   2.663   0.223  1.3180  1.5923 -3.1707
   43MOL    H8540489   7.714   2.781   0.233 -0.6685  0.6125  0.6486
   43MOL    H8640490   0.112   2.695   0.474  0.7880 -1.2760  0.0852
   43MOL    H8740491   7.709   2.760   0.480 -0.4790 -0.8146 -0.7049
   43MOL    H8840492   0.021   2.484   0.370  1.1987  0.7661 -0.6484
   43MOL    H8940493   7.621   2.544   0.371 -0.8890 -1.3764  1.5807
   43MOL    H9040494   0.036   2.420   0.781 -1.1624  1.5598 -1.9071
   43MOL    H9140495   7.634   2.399   0.775 -1.5089 -0.9762 -0.6223
   43MOL    H9240496   0.007   2.228   0.902  1.8905  0.3744  0.0377
   43MOL    H9340497   0.072   2.186   0.743  0.5659  2.5408 -0.1334
   43MOL    H9440498   7.586   2.140   0.692  0.9740 -1.4732 -0.0582
   43MOL    H9540499   7.566   2.152   0.878  2.4040 -2.0890  2.5556
   43MOL    H9640500   7.704   1.908   0.747 -1.1832  0.1055 -1.0387
   43MOL    H9740501   7.546   1.926   0.826  0.3552 -1.1352 -2.5840
   43MOL    O9840502   0.069   1.969   0.958  0.8157  0.4239  0.1195
   43MOL    C9940503   0.134   1.960   1.082 -0.1241  0.3186  0.3244
   43MOL   C10040504   0.282   1.989   1.045 -0.2732  0.2599 -0.5451
   43MOL   C10140505   0.377   1.954   1.154  0.0082  0.7040 -0.2039
   43MOL   C10240506   0.517   1.992   1.115 -0.4882  0.1465 -0.2871
   43MOL   C10340507   0.626   1.948   1.214 -0.1608  0.1064  0.6858
   43MOL   C10440508   0.761   1.979   1.156  0.9437 -0.2437  0.3289
   43MOL   C10540509   0.868   1.960   1.255 -1.0650 -0.0788  0.3881
   43MOL   C10640510   1.008   1.960   1.191 -0.2251  0.2748  0.4275
   43MOL   C10740511   1.060   2.097   1.132 -0.6499  0.2808 -0.2734
   43MOL   C10840512   1.204   2.088   1.082  0.0610  0.1054 -0.5223
   43MOL   O10940513   1.233   2.176   0.974 -0.1165 -0.5156 -0.2344
   43MOL   C11040514   1.297   2.291   0.992 -0.2251  0.1761 -0.3142
   43MOL   O11140515   1.334   2.331   1.103  0.2786 -0.3141  0.6213
   43MOL   C11240516   1.345   2.356   0.863  0.3645 -0.6217  0.3270
   43MOL   C11340517   1.438   2.479   0.868  0.1150 -0.3450 -0.1123
   43MOL   C11440518   1.363   2.612   0.889 -0.0942  0.2664  0.0558
   43MOL   C11540519   1.432   2.706   0.984  0.0327  0.1154  0.2721
   43MOL   C11640520   1.429   2.673   1.129 -0.7068  0.3324 -0.3421
   43MOL   O11740521   1.346   2.735   1.203  0.0708 -0.3945  0.5683
   43MOL   H11840522   0.090   2.029   1.153 -0.7411 -0.8756  1.1202
   43MOL   H11940523   0.143   1.859   1.122 -0.8334  0.2013  0.1914
   43MOL   H12040524   0.301   2.095   1.032  0.1542  0.1345 -0.9360
   43MOL   H12140525   0.304   1.953   0.945  0.2411  1.3497 -0.8252
   43MOL   H12240526   0.360   2.011   1.245  2.0526  0.2030  0.5296
   43MOL   H12340527   0.365   1.850   1.186  0.2360  0.6268 -0.3698
   43MOL   H12440528   0.515   2.101   1.117 -0.2910  0.2119 -2.4437
   43MOL   H12540529   0.540   1.959   1.014 -2.0831  0.6422 -0.8278
   43MOL   H12640530   0.623   1.839   1.222 -0.3626  0.1857  1.7252
   43MOL   H12740531   0.620   2.000   1.309 -1.0945 -0.6875  1.0758
   43MOL   H12840532   0.759   2.087   1.140 -0.2091  0.2179  3.2623
   43MOL   H12940533   0.772   1.916   1.068 -0.8625  0.0671 -0.1413
   43MOL   H13040534   0.870   1.867   1.313 -1.0299  1.0753  2.2849
   43MOL   H13140535   0.851   2.030   1.336 -0.5975  0.0254  0.3989
   43MOL   H13240536   1.002   1.891   1.106  0.0212 -1.9619  2.1703
   43MOL   H13340537   1.077   1.922   1.266 -1.6068 -0.7496  1.1955
   43MOL   H13440538   0.999   2.117   1.044 -1.5513  2.0684  0.7143
   43MOL   H13540539   1.055   2.180   1.203  0.6097  0.2572 -0.1529
   43MOL   H13640540   1.214   1.987   1.043 -2.5586 -0.3926  0.0036
   43MOL   H13740541   1.281   2.094   1.158  2.2871 -0.0156 -2.7081
   43MOL   H13840542   1.395   2.286   0.796  0.5974 -0.6575  0.5388
   43MOL   H13940543   1.252   2.373   0.809  1.0905 -1.6284 -1.3115
   43MOL   H14040544   1.496   2.487   0.776  2.5938 -0.5104  1.4037
   43MOL   H14140545   1.517   2.459   0.940 -1.9692 -2.7071  1.6187
   43MOL   H14240546   1.262   2.604   0.930  0.1336 -0.6099  0.4643
   43MOL   H14340547   1.350   2.662   0.793  0.1816  1.4967  0.6536
   43MOL   H14440548   1.377   2.800   0.977 -1.4029 -0.8539 -2.0954
   43MOL   H14540549   1.529   2.735   0.945  0.4520 -1.6500 -0.0639
   43MOL   O14640550   1.505   2.570   1.164  0.3909 -0.3640 -0.2033
   43MOL   C14740551   1.517   2.543   1.301  0.1344 -1.4338  0.6858
   43MOL   C14840552   1.587   2.411   1.320  0.1282  0.0705 -0.4307
   43MOL   C14940553   1.736   2.410   1.285  0.3345  0.0625 -0.2827
   43MOL   C15040554   1.828   2.303   1.352  0.1985  0.0584 -0.2016
   43MOL   C15140555   1.976   2.313   1.324  0.2308 -0.2747 -0.1434
   43MOL   C15240556   2.057   2.201   1.400 -0.0179  0.0258 -0.4004
   43MOL   C15340557   2.020   2.055   1.362  0.4738  0.3283  0.2953
   43MOL   C15440558   2.080   1.950   1.444  0.0823 -0.2017  0.0920
   43MOL   C15540559   2.030   1.813   1.398 -0.1240  0.1448 -0.3805
   43MOL   C15640560   2.109   1.704   1.459 -0.3819 -0.1248 -0.1812
   43MOL   O15740561   2.249   1.722   1.448 -1.0014  0.1992 -0.0152
   43MOL   C15840562   2.315   1.632   1.377  0.5549 -0.2560 -1.3302
   43MOL   O15940563   2.288   1.523   1.328 -0.1707 -0.0362  0.0838
   43MOL   C16040564   2.457   1.681   1.361 -0.3217 -0.0997  0.6888
   43MOL   C16140565   2.460   1.796   1.259 -0.8146 -0.0115  0.6791
   43MOL   C16240566   2.428   1.750   1.111 -0.0717  0.5962  0.1512
   43MOL   C16340567   2.416   1.872   1.010 -0.3752 -1.0464 -0.4260
   43MOL   C16440568   2.295   1.956   1.027 -0.1108  1.2795 -0.1040
   43MOL   O16540569   2.249   1.986   1.138  0.2131 -0.3036  0.5923
   43MOL   H16640570   1.583   2.612   1.353 -3.0617  3.1875 -0.9906
   43MOL   H16740571   1.417   2.533   1.344  0.4638  0.3234  1.9204
   43MOL   H16840572   1.522   2.341   1.268 -2.0466  0.7902  1.2294
   43MOL   H16940573   1.577   2.391   1.427  1.6436  2.1044  0.1364
   43MOL   H17040574   1.733   2.402   1.177 -0.1768  1.6430 -0.4062
   43MOL   H17140575   1.781   2.508   1.303  1.9775 -0.4577 -1.4705
   43MOL   H17240576   1.792   2.210   1.310 -0.3888  1.0689 -2.0052
   43MOL   H17340577   1.805   2.305   1.459  0.4174 -0.0218 -0.1520
   43MOL   H17440578   2.006   2.414   1.352 -0.2837 -0.6817  1.9741
   43MOL   H17540579   1.979   2.303   1.216  0.4714 -0.5108 -0.1157
   43MOL   H17640580   2.038   2.206   1.507  2.5148 -0.4010  0.0908
   43MOL   H17740581   2.165   2.205   1.383  0.3554 -2.6038  1.1662
   43MOL   H17840582   2.048   2.046   1.257 -0.9911  1.0807 -0.1602
   43MOL   H17940583   1.913   2.042   1.351  0.2766  2.1143 -0.0496
   43MOL   H18040584   2.054   1.963   1.549 -0.6593 -1.3317  0.0579
   43MOL   H18140585   2.188   1.967   1.437 -0.0136  0.8262  1.0418
   43MOL   H18240586   1.925   1.797   1.419  0.8951 -2.9058  2.7466
   43MOL   H18340587   2.046   1.808   1.290  0.0841  0.9691 -0.3904
   43MOL   H18440588   2.082   1.610   1.413  1.8624 -1.9778  2.1510
   43MOL   H18540589   2.076   1.686   1.561 -0.4715  1.4471  0.0929
   43MOL   H18640590   2.487   1.722   1.458 -0.0537 -1.2262  1.0842
   43MOL   H18740591   2.519   1.601   1.322 -1.8683 -0.0535 -1.9665
   43MOL   H18840592   2.561   1.837   1.267 -0.5852 -0.5136  0.3441
   43MOL   H18940593   2.398   1.878   1.298 -0.8788  0.6770 -0.8251
   43MOL   H19040594   2.332   1.703   1.090 -0.2720  1.0774 -0.0309
   43MOL   H19140595   2.502   1.678   1.077  0.8934  1.2585  0.8353
   43MOL   H19240596   2.401   1.839   0.907 -1.7842  1.1279 -0.9559
   43MOL   H19340597   2.498   1.943   1.009 -1.9123  0.8207  1.4957
   43MOL   O19440598   2.241   2.000   0.909  0.2174  0.6677  0.6637
   43MOL   C19540599   2.127   2.080   0.921  0.0091 -0.5452 -0.0477
   43MOL   C19640600   2.179   2.221   0.951 -0.3101 -0.2996  0.5220
   43MOL   C19740601   2.061   2.319   0.936 -0.3454 -0.6576 -0.9452
   43MOL   C19840602   2.092   2.466   0.965 -0.4824  0.5575  0.5455
   43MOL   C19940603   1.966   2.555   0.967 -0.0806 -0.3750  0.7157
   43MOL   C20040604   1.977   2.704   0.985 -0.1791 -0.8390 -0.3701
   43MOL   C20140605   2.046   2.768   0.862  0.7274  0.0434 -0.8650
   43MOL   C20240606   2.060   2.921   0.870  0.1787 -0.4544 -0.0295
   43MOL   C20340607   2.141   2.975   0.749  0.2220  0.1156  0.2580
   43MOL   C20440608   2.112   3.125   0.726 -0.0325  0.5815 -0.3713
   43MOL   O20540609   2.214   3.196   0.786 -0.5356  0.5227 -0.4182
   43MOL   C20640610   2.186   3.294   0.870  1.2468  0.3450 -0.0536
   43MOL   O20740611   2.068   3.324   0.897  0.1058  0.2326 -0.2793
   43MOL   C20840612   2.306   3.378   0.919 -0.2194  0.1093  0.5455
   43MOL   C20940613   2.428   3.299   0.956 -0.4194 -0.3482  0.0935
   43MOL   C21040614   2.418   3.191   1.073 -0.3883  0.0186 -0.0341
   43MOL   C21140615   2.553   3.110   1.094  0.4179  0.7544 -0.5690
   43MOL   C21240616   2.656   3.204   1.156  0.1433  0.2045  0.3243
   43MOL   O21340617   2.735   3.251   1.080 -0.7003 -0.3957  0.7380
   43MOL   H21440618   2.070   2.084   0.828  0.6819  2.1916 -0.3924
   43MOL   H21540619   2.061   2.038   0.996  2.2266  0.1273  2.3512
   43MOL   H21640620   2.272   2.258   0.908 -0.5876  2.0252  1.8143
   43MOL   H21740621   2.206   2.234   1.056  0.8477  4.1136 -0.2351
   43MOL   H21840622   2.013   2.320   0.838 -2.4195  1.6521  0.0082
   43MOL   H21940623   1.989   2.283   1.009  0.0384  0.2709 -0.0939
   43MOL   H22040624   2.163   2.503   0.891  0.7559 -2.0625  0.3661
   43MOL   H22140625   2.151   2.476   1.056 -0.0636  0.9266  0.2358
   43MOL   H22240626   1.901   2.521   1.049  0.3264  1.7493  1.9449
   43MOL   H22340627   1.907   2.545   0.876 -1.6049 -0.3499  1.6908
   43MOL   H22440628   2.026   2.727   1.079 -2.0057 -1.3537  0.7261
   43MOL   H22540629   1.873   2.737   0.991  0.1794  0.1629  0.3730
   43MOL   H22640630   1.998   2.744   0.767  0.5131 -0.6207 -0.5949
   43MOL   H22740631   2.147   2.727   0.864  0.9157  0.5489  0.0761
   43MOL   H22840632   2.111   2.967   0.954 -0.8943  1.5022 -0.4127
   43MOL   H22940633   1.959   2.961   0.879 -0.9860 -2.8160 -1.8742
   43MOL   H23040634   2.247   2.955   0.758  0.0106 -1.1575  0.0299
   43MOL   H23140635   2.114   2.920   0.659  0.4771 -0.9563  0.8316
   43MOL   H23240636   2.012   3.159   0.753 -0.4087 -0.7260 -0.1061
   43MOL   H23340637   2.121   3.142   0.619  0.9597 -0.1938 -0.4140
   43MOL   H23440638   2.329   3.466   0.859 -2.5437 -0.4855 -1.3205
   43MOL   H23540639   2.271   3.423   1.012  0.4215  1.3726  0.1852
   43MOL   H23640640   2.506   3.370   0.981 -0.6864 -0.8503  2.4833
   43MOL   H23740641   2.460   3.251   0.863 -1.0870 -0.3892 -0.1190
   43MOL   H23840642   2.337   3.123   1.048  0.0758 -0.0720 -1.3100
   43MOL   H23940643   2.389   3.242   1.165  1.3886  2.7555 -0.9279
   43MOL   H24040644   2.609   3.072   1.010  3.4860  2.6748  0.5103
   43MOL   H24140645   2.524   3.034   1.167  1.5623  0.7395 -0.1088
   43MOL   O24240646   2.651   3.215   1.291 -0.2278 -0.2277  0.7361
   43MOL   C24340647   2.733   3.314   1.348  0.5903 -0.5051 -0.4073
   43MOL   C24440648   2.641   3.428   1.406 -0.3779 -0.0108  0.6832
   43MOL   C24540649   2.705   3.498   1.518  0.1224  0.2108  0.0855
   43MOL   C24640650   2.608   3.595   1.583 -0.5427 -0.2153 -0.2519
   43MOL   C24740651   2.667   3.651   1.712  0.4029 -0.7314 -0.1024
   43MOL   C24840652   2.584   3.761   1.778  0.3622 -0.0852 -0.9217
   43MOL   C24940653   2.639   3.811   1.913  0.3414 -0.1643  0.4307
   43MOL   C25040654   2.578   3.938   1.973  1.0242 -0.2774  0.2541
   43MOL   C25140655   2.635   3.980   2.110 -0.1591 -0.2360  0.3247
   43MOL   C25240656   2.560   3.928   2.228 -0.1857  0.3876  0.1382
   43MOL   O25340657   2.609   3.800   2.273  0.2806  0.6158 -0.2306
   43MOL   C25440658   2.531   3.689   2.263  0.0779  0.3982 -0.6720
   43MOL   O25540659   2.422   3.695   2.211  0.2617  0.0624  0.1488
   43MOL   C25640660   2.590   3.559   2.321 -0.4368  0.1381 -0.1310
   43MOL   C25740661   2.741   3.544   2.316  0.3692  0.0894 -0.3323
   43MOL   C25840662   2.809   3.578   2.183 -0.2475 -0.1378 -0.7409
   43MOL   C25940663   2.750   3.502   2.070  0.6139 -1.0840  0.7923
   43MOL   C26040664   2.795   3.357   2.059  0.7362 -0.0170 -0.9630
   43MOL   O26140665   2.810   3.283   2.155 -0.3092 -0.3407  0.2451
   43MOL   H26240666   2.796   3.263   1.422  0.4450  1.0051  0.7595
   43MOL   H26340667   2.803   3.361   1.279 -1.5609 -0.9355 -2.9632
   43MOL   H26440668   2.550   3.390   1.454  0.3900  1.4155  3.3788
   43MOL   H26540669   2.602   3.490   1.325 -2.9982 -2.8916 -0.3943
   43MOL   H26640670   2.739   3.422   1.589 -0.3603 -1.2651 -1.2344
   43MOL   H26740671   2.789   3.549   1.471  0.3476 -0.2250  0.0147
   43MOL   H26840672   2.509   3.556   1.607 -0.3732  1.0756  2.8976
   43MOL   H26940673   2.584   3.672   1.510  0.6983  0.2285 -0.2135
   43MOL   H27040674   2.769   3.688   1.697  0.1354  0.6618  1.3551
   43MOL   H27140675   2.664   3.572   1.787 -1.6489 -0.0408  0.5845
   43MOL   H27240676   2.485   3.720   1.801  1.0936 -2.8831 -2.4365
   43MOL   H27340677   2.561   3.841   1.708 -0.2264 -0.2170 -0.8829
   43MOL   H27440678   2.747   3.814   1.903  0.3342  0.0856  0.4296
   43MOL   H27540679   2.616   3.734   1.988  1.0263 -2.1014 -1.2918
   43MOL   H27640680   2.470   3.938   1.954  1.1497 -0.7957 -0.4774
   43MOL   H27740681   2.615   4.024   1.919  0.8857 -0.7057 -0.5264
   43MOL   H27840682   2.741   3.956   2.117 -0.6246 -2.5964 -0.2426
   43MOL   H27940683   2.630   4.089   2.109 -0.6529 -0.2550 -2.0273
   43MOL   H28040684   2.451   3.934   2.222 -0.1514 -0.2983 -1.3908
   43MOL   H28140685   2.572   4.001   2.309  0.6316  0.9624 -0.4853
   43MOL   H28240686   2.546   3.536   2.418 -1.5630 -3.4498 -1.4009
   43MOL   H28340687   2.536   3.478   2.272 -2.3468  0.7993  0.8659
   43MOL   H28440688   2.766   3.443   2.347  2.5469  0.5842 -0.4410
   43MOL   H28540689   2.782   3.606   2.395 -2.0519 -1.3725  2.1764
   43MOL   H28640690   2.913   3.554   2.204  0.1894  3.6981  1.9573
   43MOL   H28740691   2.805   3.682   2.153  1.8952 -0.0039 -0.6098
   43MOL   H28840692   2.757   3.550   1.972 -0.1370 -1.2049  0.6744
   43MOL   H28940693   2.642   3.496   2.081  0.1763  3.1419 -0.1504
   43MOL   O29040694   2.808   3.316   1.931  0.3308  0.1757  0.0003
   43MOL   C29140695   2.860   3.190   1.905  0.5610  0.2286 -0.4565
   43MOL   C29240696   2.825   3.146   1.758  0.3951 -0.0898  0.3593
   43MOL   C29340697   2.896   3.010   1.729 -0.2388  0.1963 -0.0020
   43MOL   C29440698   3.046   3.022   1.706  0.3171 -0.1112 -0.1175
   43MOL   C29540699   3.117   2.886   1.680  0.0289  0.3434  0.0283
   43MOL   C29640700   3.265   2.880   1.719  0.9485  0.2944 -0.7955
   43MOL   C29740701   3.355   2.989   1.655 -0.0339 -0.5953 -0.6028
   43MOL   C29840702   3.506   2.971   1.666 -0.3761 -0.1719 -0.0658
   43MOL   C29940703   3.579   3.070   1.579 -0.2341  0.0404  0.5816
   43MOL   C30040704   3.734   3.069   1.604  1.2936  0.2596 -0.5701
   43MOL   O30140705   3.803   2.960   1.554  0.3279  0.6832  0.6379
   43MOL   C30240706   3.935   2.958   1.536 -0.2308 -0.2589  0.8630
   43MOL   O30340707   4.010   3.049   1.570  0.0155 -0.1518 -0.8141
   43MOL   C30440708   3.989   2.833   1.454  0.1706  0.1263  0.6048
   43MOL   C30540709   4.134   2.797   1.490 -0.3537  0.3644 -0.0271
   43MOL   C30640710   4.173   2.674   1.412  0.8875 -0.4562  0.0194
   43MOL   C30740711   4.301   2.589   1.464  0.0085  0.4478 -0.4006
   43MOL   C30840712   4.260   2.506   1.586 -0.3510 -0.0121 -0.3278
   43MOL   O30940713   4.224   2.391   1.572 -0.3597  0.3726  0.1848
   43MOL   H31040714   2.966   3.201   1.926  0.3241  0.6990  0.4943
   43MOL   H31140715   2.839   3.112   1.979  4.2075 -1.4956 -1.1201
   43MOL   H31240716   2.842   3.223   1.683 -0.0004 -0.2283  0.1293
   43MOL   H31340717   2.723   3.109   1.748 -0.1564  0.8117  2.2170
   43MOL   H31440718   2.870   2.933   1.802 -0.2154 -0.2614 -0.4779
   43MOL   H31540719   2.861   2.968   1.635  0.5131 -0.3474 -0.0342
   43MOL   H31640720   3.084   3.060   1.801 -1.1564  2.6405 -0.5592
   43MOL   H31740721   3.063   3.100   1.632  0.0813 -1.4614 -1.6147
   43MOL   H31840722   3.113   2.852   1.577 -0.0278  0.0010  0.1434
   43MOL   H31940723   3.052   2.815   1.732  0.5707  0.7721  1.3197
   43MOL   H32040724   3.304   2.780   1.700  0.2082 -0.4149  1.2989
   43MOL   H32140725   3.263   2.887   1.828  2.4030  1.8239 -0.8443
   43MOL   H32240726   3.332   3.079   1.712 -0.5218 -0.8882 -0.3216
   43MOL   H32340727   3.335   3.003   1.549 -0.0114 -0.8211 -0.6371
   43MOL   H32440728   3.531   2.872   1.627 -0.6341 -0.8570  1.4834
   43MOL   H32540729   3.537   2.982   1.770  0.3867 -0.9166 -0.2092
   43MOL   H32640730   3.567   3.058   1.472  1.9795 -1.7089  0.4848
   43MOL   H32740731   3.542   3.171   1.597 -0.7058  0.1769 -1.0791
   43MOL   H32840732   3.753   3.080   1.710 -1.1133 -2.1322  0.1718
   43MOL   H32940733   3.773   3.150   1.543  1.0413  1.2400  0.5535
   43MOL   H33040734   3.925   2.746   1.462  0.2846  0.0908  1.1851
   43MOL   H33140735   3.979   2.854   1.348  0.4902 -1.2778  0.2920
   43MOL   H33240736   4.138   2.783   1.598 -0.0515 -0.0540 -0.0937
   43MOL   H33340737   4.202   2.880   1.474 -0.5293  0.5667  0.2722
   43MOL   H33440738   4.198   2.711   1.313 -0.1425 -1.8357 -0.7713
   43MOL   H33540739   4.095   2.600   1.396  1.9569 -1.4153 -0.7677
   43MOL   H33640740   4.380   2.656   1.495  2.6095 -2.0679 -1.3707
   43MOL   H33740741   4.335   2.526   1.382  1.0822 -0.7950  0.9722
   43MOL   O33840742   4.286   2.584   1.703  0.0073 -0.1578 -0.6002
   43MOL   C33940743   4.263   2.523   1.832 -0.2559 -0.1521 -0.3566
   43MOL   C34040744   4.290   2.625   1.954 -0.3084  0.4633  0.6967
   43MOL   C34140745   4.274   2.560   2.094 -0.1925  0.0729  0.1998
   43MOL   C34240746   4.295   2.653   2.211 -0.0547  0.4875 -0.0604
   43MOL   C34340747   4.272   2.581   2.350 -0.0589  0.4033  0.2390
   43MOL   C34440748   4.336   2.646   2.473 -0.0742 -0.4136  0.1612
   43MOL   C34540749   4.326   2.562   2.598  0.0769  0.2224  0.4057
   43MOL   C34640750   4.435   2.456   2.612 -0.6933 -0.0809  0.4347
   43MOL   C34740751   4.575   2.508   2.654 -0.1389  0.0809  0.0235
   43MOL   C34840752   4.667   2.395   2.692 -0.8042  0.5722  0.6373
   43MOL   O34940753   4.716   2.334   2.571 -0.2379 -0.2868  0.1366
   43MOL   C35040754   4.646   2.221   2.532 -0.1410 -0.3594  0.0308
   43MOL   O35140755   4.554   2.166   2.585  0.3871  0.6719  0.6921
   43MOL   C35240756   4.699   2.168   2.399 -0.4441 -0.7432 -0.8069
   43MOL   C35340757   4.632   2.241   2.281 -0.0583  0.1797 -0.6361
   43MOL   C35440758   4.517   2.154   2.227 -0.3928 -0.2446 -0.1912
   43MOL   C35540759   4.455   2.200   2.089 -0.3380 -0.1746  0.9452
   43MOL   C35640760   4.349   2.101   2.040 -0.2819  0.2558 -0.0120
   43MOL   O35740761   4.281   2.037   2.114 -0.0422  0.4512 -0.6370
   43MOL   H35840762   4.173   2.464   1.845  1.1673 -1.9734  1.4188
   43MOL   H35940763   4.340   2.448   1.849 -1.2012 -1.1745 -0.5260
   43MOL   H36040764   4.215   2.703   1.952  1.6253  2.3485 -0.3852
   43MOL   H36140765   4.386   2.676   1.942  0.2999 -0.7328  0.3488
   43MOL   H36240766   4.175   2.515   2.102  0.4376 -1.3647 -0.0384
   43MOL   H36340767   4.355   2.487   2.095 -0.3455 -0.1116 -0.8386
   43MOL   H36440768   4.230   2.740   2.204  2.8418  2.5691 -2.5149
   43MOL   H36540769   4.395   2.696   2.209  0.4226 -0.6045 -0.2180
   43MOL   H36640770   4.319   2.484   2.335 -0.8177  0.1409 -0.5089
   43MOL   H36740771   4.166   2.569   2.374 -0.4742  1.5908 -0.9063
   43MOL   H36840772   4.288   2.743   2.480  0.3581 -0.3216  2.0165
   43MOL   H36940773   4.435   2.683   2.445 -1.3498  1.4990 -1.9586
   43MOL   H37040774   4.233   2.506   2.597  0.2558 -0.0556 -0.6233
   43MOL   H37140775   4.321   2.624   2.688 -0.0370 -2.1023  2.0222
   43MOL   H37240776   4.448   2.399   2.519 -1.0747 -4.2972  2.8359
   43MOL   H37340777   4.402   2.381   2.684 -1.6720  1.8637  2.0349
   43MOL   H37440778   4.624   2.579   2.587 -0.7171 -0.4097 -0.9249
   43MOL   H37540779   4.558   2.579   2.736 -1.6501 -0.8170  0.5040
   43MOL   H37640780   4.619   2.324   2.760  0.7937 -2.0616 -0.9235
   43MOL   H37740781   4.754   2.433   2.745  0.7493  1.5618 -2.4727
   43MOL   H37840782   4.807   2.183   2.397 -0.5228 -0.1337 -0.8417
   43MOL   H37940783   4.690   2.060   2.395 -1.6031 -0.6598 -0.6770
   43MOL   H38040784   4.702   2.264   2.201  0.2507  3.2555  0.4862
   43MOL   H38140785   4.598   2.340   2.309 -0.4709  0.6554 -2.7198
   43MOL   H38240786   4.443   2.139   2.305 -3.2307  2.0607 -2.3474
   43MOL   H38340787   4.554   2.053   2.210 -1.0496 -0.2662 -1.4800
   43MOL   H38440788   4.531   2.194   2.010 -2.1974  1.2106 -0.9770
   43MOL   H38540789   4.429   2.305   2.083  1.7428  0.2723 -1.4749
   43MOL   O38640790   4.337   2.094   1.909  0.0281 -0.5862  0.7916
   43MOL   C38740791   4.242   2.013   1.838  0.5614  0.3303  0.1519
   43MOL   C38840792   4.110   2.089   1.820 -0.3774 -0.0774  0.0331
   43MOL   C38940793   4.021   2.104   1.944 -0.2721 -0.6309 -0.2417
   43MOL   C39040794   3.944   1.976   1.983 -0.6391 -0.1228 -0.5192
   43MOL   C39140795   3.839   2.024   2.083 -0.1280  0.0521 -0.4063
   43MOL   C39240796   3.790   1.917   2.176  0.1061 -0.6463  0.6275
   43MOL   C39340797   3.663   1.965   2.246 -0.4299 -0.2753  0.4752
   43MOL   C39440798   3.620   1.877   2.364  0.1935 -0.5594  0.6042
   43MOL   C39540799   3.698   1.888   2.497 -0.1451  0.5780  0.0223
   43MOL   C39640800   3.613   1.833   2.612  0.3759 -0.5373 -0.2572
   43MOL   O39740801   3.531   1.941   2.655  0.2770  0.8957 -0.0586
   43MOL   C39840802   3.577   2.037   2.743  0.4709  0.1072  0.1651
   43MOL   O39940803   3.683   2.030   2.795 -0.4988  0.5867 -0.1669
   43MOL   C40040804   3.482   2.152   2.759  0.0746 -1.4615 -0.0106
   43MOL   C40140805   3.478   2.259   2.639 -0.1963 -0.6001 -0.0434
   43MOL   C40240806   3.426   2.210   2.509  0.7769  0.3049 -0.4158
   43MOL   C40340807   3.371   2.320   2.413  0.7779  0.1825  0.5496
   43MOL   C40440808   3.316   2.270   2.277  0.3527 -0.9299  0.0346
   43MOL   O40540809   3.340   2.159   2.234  0.2478 -0.7480 -0.0596
   43MOL   H40640810   4.288   1.973   1.748 -0.9378 -2.9121  0.7745
   43MOL   H40740811   4.220   1.917   1.884 -2.0739 -0.2552 -2.1810
   43MOL   H40840812   4.065   2.035   1.736 -0.9185  2.8333 -1.6168
   43MOL   H40940813   4.131   2.188   1.779  1.1256 -0.2034  0.4935
   43MOL   H41040814   4.075   2.136   2.033  0.4998 -0.4260 -0.7739
   43MOL   H41140815   3.952   2.186   1.926  0.5557 -0.4209 -2.7304
   43MOL   H41240816   4.004   1.903   2.038 -0.9346  0.5068  0.6594
   43MOL   H41340817   3.905   1.930   1.892  1.1366  2.0177 -2.4224
   43MOL   H41440818   3.754   2.076   2.039  0.9921  0.0450 -2.6282
   43MOL   H41540819   3.897   2.095   2.142  0.2100 -0.2744 -0.3472
   43MOL   H41640820   3.853   1.882   2.259  0.6978 -1.3743 -0.1089
   43MOL   H41740821   3.760   1.833   2.113 -3.1471  0.6468  0.3932
   43MOL   H41840822   3.582   1.975   2.173  0.1445 -0.7700 -0.2357
   43MOL   H41940823   3.681   2.066   2.282  0.8984  0.3849 -1.9289
   43MOL   H42040824   3.620   1.773   2.332 -0.0395 -0.7559  1.2386
   43MOL   H42140825   3.513   1.893   2.371  0.2920 -0.0198  0.9455
   43MOL   H42240826   3.781   1.817   2.490 -1.3768 -0.8836  0.1293
   43MOL   H42340827   3.744   1.984   2.521 -2.3630  1.3042  1.4428
   43MOL   H42440828   3.682   1.779   2.677  0.4725 -1.2424 -0.9405
   43MOL   H42540829   3.542   1.757   2.577 -0.5237  0.2071 -0.0710
   43MOL   H42640830   3.383   2.106   2.768 -0.7136  0.4483  1.4013
   43MOL   H42740831   3.520   2.206   2.845 -4.1693  0.2957  0.8926
   43MOL   H42840832   3.564   2.322   2.618  0.1755 -1.0975 -0.0218
   43MOL   H42940833   3.407   2.337   2.666 -0.0839 -1.2072  2.1593
   43MOL   H43040834   3.350   2.134   2.524  0.0923  1.3767  1.7672
   43MOL   H43140835   3.502   2.152   2.457 -1.9217 -2.8722 -0.9620
   43MOL   H43240836   3.448   2.391   2.383  0.4286  0.0955 -0.5992
   43MOL   H43340837   3.292   2.378   2.461 -0.6316 -1.4523  0.2787
   43MOL   O43440838   3.239   2.365   2.214 -0.4073 -0.4923 -0.0442
   43MOL   C43540839   3.185   2.336   2.086  0.1432 -0.1487 -0.1183
   43MOL   C43640840   3.262   2.415   1.981 -0.2153  0.0537 -0.3270
   43MOL   C43740841   3.402   2.371   1.942  0.4093 -0.4619  0.0625
   43MOL   C43840842   3.458   2.463   1.836  0.4834 -0.4517 -0.3302
   43MOL   C43940843   3.389   2.471   1.696 -0.2497 -0.3498  1.3169
   43MOL   C44040844   3.483   2.538   1.593  0.1378  1.0601  0.1727
   43MOL   C44140845   3.418   2.607   1.465  0.0008 -0.9042  0.3719
   43MOL   C44240846   3.517   2.661   1.361  0.5292  0.5511  0.3245
   43MOL   C44340847   3.471   2.720   1.223 -0.2659  0.3431  0.9158
   43MOL   C44440848   3.589   2.780   1.142  0.1458  0.8347 -1.0107
   43MOL   O44540849   3.660   2.671   1.096 -0.5922 -0.0093 -0.0414
   43MOL   C44640850   3.784   2.655   1.138  0.0166  0.2285  0.3411
   43MOL   O44740851   3.837   2.722   1.223  0.2934  0.0755  0.3517
   43MOL   C44840852   3.874   2.554   1.062  0.5050  0.6556  0.2615
   43MOL   C44940853   3.888   2.579   0.910  0.2730  0.4069  0.4682
   43MOL   C45040854   3.937   2.718   0.879  0.4078 -0.5757  0.0767
   43MOL   C45140855   3.999   2.756   0.734 -0.0880  0.0647  0.1445
   43MOL   C45240856   4.150   2.734   0.716 -0.0128 -0.3105  0.9524
   43MOL   O45340857   4.218   2.816   0.657 -0.1337  0.3215 -0.0979
   43MOL   H45440858   3.190   2.232   2.054 -1.3594  0.4193 -2.3020
   43MOL   H45540859   3.079   2.361   2.077  0.0950  0.0899  0.9676
   43MOL   H45640860   3.256   2.522   2.001  0.6192  0.2030 -0.8204
   43MOL   H45740861   3.199   2.401   1.894  0.9403 -2.4997 -0.7982
   43MOL   H45840862   3.452   2.374   2.039 -1.6204 -2.3559  1.2239
   43MOL   H45940863   3.405   2.266   1.914 -0.3172 -0.2306 -0.9214
   43MOL   H46040864   3.561   2.436   1.814  0.9188 -0.7315  1.9325
   43MOL   H46140865   3.434   2.558   1.885  0.8094 -0.1752 -0.7088
   43MOL   H46240866   3.298   2.530   1.704  0.6403  0.8997  2.3811
   43MOL   H46340867   3.373   2.370   1.658 -2.3325  1.1134 -1.9540
   43MOL   H46440868   3.566   2.472   1.566 -0.1416 -0.5152  2.9887
   43MOL   H46540869   3.538   2.616   1.645  0.4697  1.3705 -0.6362
   43MOL   H46640870   3.358   2.693   1.494 -0.8412 -1.5505  0.5741
   43MOL   H46740871   3.355   2.528   1.422 -0.5532  0.2478 -0.9868
   43MOL   H46840872   3.592   2.582   1.357 -1.8424 -1.6851 -1.7461
   43MOL   H46940873   3.577   2.736   1.413  1.6945  1.1294 -1.7923
   43MOL   H47040874   3.416   2.654   1.156  0.6334  0.4548  0.0578
   43MOL   H47140875   3.398   2.799   1.240  0.0800  0.6295  1.0991
   43MOL   H47240876   3.639   2.833   1.223 -1.7092 -1.1341  1.4675
   43MOL   H47340877   3.554   2.854   1.069  1.1190  1.0018 -1.3204
   43MOL   H47440878   3.974   2.550   1.105  1.3560  0.4784 -1.6926
   43MOL   H47540879   3.834   2.453   1.071  3.7563 -0.6946  0.0285
   43MOL   H47640880   3.788   2.559   0.873 -0.2282  1.7437  1.0750
   43MOL   H47740881   3.966   2.516   0.867  1.1214  1.8386 -0.1105
   43MOL   H47840882   4.007   2.752   0.956  1.4743 -0.7516 -0.8132
   43MOL   H47940883   3.859   2.794   0.886  2.4909  1.5169  1.3153
   43MOL   H48040884   3.986   2.864   0.728 -1.9210 -0.2160 -1.0660
   43MOL   H48140885   3.937   2.712   0.657  0.1952  0.4417 -0.3034
   43MOL   O48240886   4.200   2.611   0.763  0.5594  0.3319  0.1973
   43MOL   C48340887   4.341   2.588   0.774  0.4848 -0.1642  0.4641
   43MOL   C48440888   4.385   2.578   0.920 -0.0919 -0.0515  0.0807
   43MOL   C48540889   4.388   2.705   1.008  0.4714 -0.1835  0.3405
   43MOL   C48640890   4.476   2.672   1.128  0.6447 -0.1172 -0.1799
   43MOL   C48740891   4.510   2.795   1.219 -0.0981 -0.0428  0.6274
   43MOL   C48840892   4.639   2.789   1.309  0.0387  0.2428  0.3773
   43MOL   C48940893   4.773   2.811   1.240  0.0743  0.2506 -0.0591
   43MOL   C49040894   4.888   2.806   1.347 -0.8670 -0.3776 -0.1107
   43MOL   C49140895   4.935   2.949   1.391 -0.1435  0.6113 -0.3797
   43MOL   C49240896   5.082   2.957   1.447  0.0623 -0.2363  0.2276
   43MOL   O49340897   5.172   2.913   1.347 -0.4771  0.1745  0.0765
   43MOL   C49440898   5.302   2.894   1.371 -0.0665 -0.7853 -0.0125
   43MOL   O49540899   5.359   2.930   1.474  0.3126  0.3874 -0.0960
   43MOL   C49640900   5.378   2.834   1.252  0.0529 -0.5016  1.3026
   43MOL   C49740901   5.377   2.917   1.111  0.4397 -0.0354 -0.5545
   43MOL   C49840902   5.466   2.855   0.998  0.2821 -0.2787  0.2934
   43MOL   C49940903   5.476   2.930   0.865 -0.2471  0.6350 -0.4146
   43MOL   C50040904   5.557   3.062   0.872 -0.1951  0.8861  0.3595
   43MOL   O50140905   5.639   3.080   0.784  0.4448 -0.4218  0.5121
   43MOL   H50240906   4.350   2.489   0.730  1.1864  0.4847 -0.8666
   43MOL   H50340907   4.414   2.654   0.728  2.7575 -1.5276  1.9841
   43MOL   H50440908   4.488   2.543   0.915  0.2215  0.8673  0.0855
   43MOL   H50540909   4.334   2.499   0.976  1.3412 -1.7388 -0.9391
   43MOL   H50640910   4.428   2.789   0.952 -0.7486 -0.8924 -1.6155
   43MOL   H50740911   4.291   2.736   1.044 -0.0418  0.0700 -1.2411
   43MOL   H50840912   4.576   2.649   1.092  0.1811 -0.7606 -1.0824
   43MOL   H50940913   4.451   2.584   1.187 -2.5687  1.4742  0.9534
   43MOL   H51040914   4.421   2.808   1.281 -0.6365  0.1301 -0.1603
   43MOL   H51140915   4.513   2.889   1.163  1.0283  0.1459  1.0053
   43MOL   H51240916   4.649   2.704   1.377  1.9246 -0.2703 -0.5123
   43MOL   H51340917   4.621   2.880   1.367 -0.0571  0.5885 -0.1894
   43MOL   H51440918   4.777   2.901   1.179  1.2666 -0.8167 -1.5920
   43MOL   H51540919   4.784   2.733   1.165 -1.9307  0.5595 -0.7275
   43MOL   H51640920   4.969   2.759   1.291 -1.1861 -2.1706  0.9101
   43MOL   H51740921   4.874   2.739   1.432  1.9060 -0.1409  0.5929
   43MOL   H51840922   4.922   3.030   1.320  0.0880  1.4672  0.5326
   43MOL   H51940923   4.870   2.973   1.476  1.8511  0.0242  1.3619
   43MOL   H52040924   5.096   2.897   1.536  0.2085 -0.6603 -0.0801
   43MOL   H52140925   5.089   3.065   1.464 -0.7245  0.2620 -2.3841
   43MOL   H52240926   5.482   2.826   1.283  0.5001  2.7586  0.8207
   43MOL   H52340927   5.339   2.734   1.235  1.7736 -0.9445 -0.1891
   43MOL   H52440928   5.410   3.015   1.147 -1.3187  0.5814 -0.5276
   43MOL   H52540929   5.277   2.936   1.072 -0.7803 -0.2895  2.3288
   43MOL   H52640930   5.455   2.748   0.982 -0.9603 -0.6512  3.3582
   43MOL   H52740931   5.566   2.858   1.042  0.0099  0.2546  0.8873
   43MOL   H52840932   5.378   2.951   0.823 -0.1982  0.1707 -0.7659
   43MOL   H52940933   5.513   2.853   0.797 -0.0780 -0.2586  0.6801
   43MOL   O53040934   5.527   3.143   0.973  0.1844 -0.2581 -0.2094
   43MOL   C53140935   5.573   3.278   0.962  0.5929 -0.4024  0.2508
   43MOL   C53240936   5.497   3.376   1.045 -0.1282 -0.0667  0.0394
   43MOL   C53340937   5.363   3.410   0.983 -0.2699 -0.1902 -0.0480
   43MOL   C53440938   5.272   3.495   1.077  0.8630 -0.3189  0.4446
   43MOL   C53540939   5.193   3.393   1.168  0.5818 -0.4347 -1.2474
   43MOL   C53640940   5.119   3.449   1.288 -0.2336  0.5451  0.3191
   43MOL   C53740941   5.046   3.338   1.364 -0.0331  0.1360 -0.0833
   43MOL   C53840942   4.957   3.393   1.477  0.7663 -0.6621 -0.1248
   43MOL   C53940943   4.881   3.279   1.541 -0.2181 -0.0778 -0.2644
   43MOL   C54040944   4.775   3.293   1.652  0.2543 -0.1733  0.4305
   43MOL   O54140945   4.848   3.328   1.764  0.5874  0.1019  0.2696
   43MOL   C54240946   4.832   3.271   1.879 -1.2434  0.5238  0.4191
   43MOL   O54340947   4.752   3.184   1.905  0.4790 -0.0351  0.6914
   43MOL   C54440948   4.914   3.333   1.987  0.2741 -0.4105 -0.3806
   43MOL   C54540949   4.949   3.239   2.097 -0.3620  0.1665  0.8110
   43MOL   C54640950   4.987   3.326   2.221  0.1136  0.2750 -0.2797
   43MOL   C54740951   5.053   3.241   2.327  0.8042 -0.3937  0.4118
   43MOL   C54840952   5.197   3.194   2.294  0.6129  0.0327  0.6857
   43MOL   O54940953   5.252   3.205   2.180 -0.0444  0.0317  0.0703
   43MOL   H55040954   5.677   3.280   0.995  0.7791 -1.5797 -0.2194
   43MOL   H55140955   5.579   3.312   0.859  1.1330 -0.3339  0.3009
   43MOL   H55240956   5.556   3.460   1.081  0.7425 -0.4427 -0.4832
   43MOL   H55340957   5.457   3.321   1.130  2.3774  1.2262  2.0999
   43MOL   H55440958   5.378   3.465   0.890 -0.0044  0.4042  0.3461
   43MOL   H55540959   5.308   3.324   0.943  0.7184 -1.7817  1.9084
   43MOL   H55640960   5.200   3.551   1.018  1.5882 -0.8757 -0.9943
   43MOL   H55740961   5.322   3.570   1.137 -0.1083  1.3433 -0.7911
   43MOL   H55840962   5.252   3.312   1.211 -0.4865  0.2301  1.6326
   43MOL   H55940963   5.118   3.346   1.106  0.5430  0.8891 -2.2245
   43MOL   H56040964   5.056   3.531   1.253  0.5745  0.2288 -1.9496
   43MOL   H56140965   5.188   3.489   1.362 -0.0928  2.0422 -0.6034
   43MOL   H56240966   5.113   3.262   1.404  1.1766  1.1341 -0.1798
   43MOL   H56340967   4.990   3.278   1.293  1.6241 -0.8714 -0.5843
   43MOL   H56440968   4.880   3.466   1.450 -0.2977 -1.3233  1.0573
   43MOL   H56540969   5.024   3.448   1.543 -1.2881  1.8173 -0.0273
   43MOL   H56640970   4.848   3.226   1.451  1.3984 -1.2010 -0.2072
   43MOL   H56740971   4.952   3.206   1.580 -1.4326 -1.5493 -0.7324
   43MOL   H56840972   4.724   3.197   1.661 -0.3505  0.1263  0.1933
   43MOL   H56940973   4.694   3.361   1.627 -0.1212 -0.4914  0.7864
   43MOL   H57040974   5.003   3.372   1.937  1.1397 -0.3454  1.1907
   43MOL   H57140975   4.849   3.406   2.034 -0.6441 -0.9408 -0.8141
   43MOL   H57240976   5.020   3.174   2.046 -1.0748  0.2491 -0.3012
   43MOL   H57340977   4.867   3.171   2.117 -0.3427  1.1883  4.8443
   43MOL   H57440978   4.908   3.377   2.277  0.8056 -0.0922  1.0439
   43MOL   H57540979   5.055   3.409   2.201  1.4210 -0.3071  1.6532
   43MOL   H57640980   5.001   3.153   2.366  0.5125 -0.4815 -0.1756
   43MOL   H57740981   5.072   3.308   2.411  0.1696  0.4018 -0.0764
   43MOL   O57840982   5.255   3.122   2.396 -0.1870 -0.5679  0.1350
   43MOL   C57940983   5.387   3.053   2.384  0.5259 -0.6317 -0.1609
   43MOL   C58040984   5.365   2.901   2.375 -0.0618 -0.1635 -0.2440
   43MOL   C58140985   5.286   2.859   2.250  0.5373 -0.2694  0.1317
   43MOL   C58240986   5.281   2.713   2.230 -0.2959  0.3100 -0.0649
   43MOL   C58340987   5.224   2.663   2.099  0.8109 -0.1155 -0.3433
   43MOL   C58440988   5.184   2.511   2.107  0.7035  0.1977  0.0976
   43MOL   C58540989   5.107   2.472   1.974  0.5910  0.0963  0.0725
   43MOL   C58640990   5.010   2.355   2.009 -0.6043  0.5994  0.6042
   43MOL   C58740991   4.961   2.288   1.878  0.2008  0.9768 -0.4505
   43MOL   C58840992   4.882   2.161   1.890 -0.0351  0.3688  0.0126
   43MOL   O58940993   4.958   2.059   1.951 -0.1820 -0.5514  0.0901
   43MOL   C59040994   4.897   1.945   1.972  0.3346  0.6549  0.9067
   43MOL   O59140995   4.782   1.911   1.946  0.1423 -0.5587 -0.0911
   43MOL   C59240996   4.997   1.846   2.026  0.3215  0.5967 -0.3441
   43MOL   C59340997   4.985   1.795   2.167  0.4027 -0.2786 -1.1534
   43MOL   C59440998   5.003   1.910   2.267  0.1682  0.3667 -0.1125
   43MOL   C59540999   5.150   1.947   2.292  0.1323 -0.0214 -0.4440
   43MOL   C59641000   5.169   2.076   2.360  0.2420 -0.3284 -0.3394
   43MOL   O59741001   5.192   2.185   2.299 -0.0901  0.0337 -0.4843
   43MOL   H59841002   5.445   3.089   2.299  2.7364 -1.7039  0.8548
   43MOL   H59941003   5.450   3.084   2.467 -1.6530  0.7841  1.0043
   43MOL   H60041004   5.309   2.875   2.464 -1.5227 -0.8740 -1.3427
   43MOL   H60141005   5.451   2.834   2.375  0.7671  0.8838 -0.4539
   43MOL   H60241006   5.183   2.892   2.262  0.4565 -0.1589 -0.8988
   43MOL   H60341007   5.331   2.904   2.162 -0.6575  0.4583 -0.1062
   43MOL   H60441008   5.253   2.664   2.324 -0.3223  1.1430  0.3679
   43MOL   H60541009   5.385   2.680   2.232 -0.6550 -0.7914  1.4501
   43MOL   H60641010   5.296   2.672   2.017  1.4885  0.4890  0.3135
   43MOL   H60741011   5.145   2.734   2.076  2.0718  1.3678 -0.1989
   43MOL   H60841012   5.127   2.491   2.198 -1.5435  2.6648 -0.6971
   43MOL   H60941013   5.272   2.447   2.113  0.6601  0.0456 -0.7298
   43MOL   H61041014   5.166   2.449   1.886 -0.5848  1.1313 -0.9996
   43MOL   H61141015   5.049   2.555   1.933 -0.8950  0.1174  2.1483
   43MOL   H61241016   4.923   2.398   2.059 -0.0328 -1.6095  3.6178
   43MOL   H61341017   5.066   2.286   2.071 -1.3171  1.3097  2.0544
   43MOL   H61441018   4.893   2.361   1.834 -0.2237 -0.4758 -2.2896
   43MOL   H61541019   5.042   2.276   1.805  0.3077  2.6443 -0.6092
   43MOL   H61641020   4.843   2.125   1.795 -0.2805 -1.0127  0.6227
   43MOL   H61741021   4.792   2.184   1.947 -0.2547  0.2817 -0.2988
   43MOL   H61841022   5.000   1.757   1.963  1.4826 -0.0965  0.6776
   43MOL   H61941023   5.097   1.891   2.022  0.8425 -0.5179  0.0797
   43MOL   H62041024   5.040   1.704   2.189  2.7261  1.1071 -1.0796
   43MOL   H62141025   4.889   1.745   2.178  0.5199 -1.1455 -3.6014
   43MOL   H62241026   4.955   1.892   2.363  0.5229  2.0759  0.4058
   43MOL   H62341027   4.960   2.004   2.232  1.2751  0.6441 -0.7642
   43MOL   H62441028   5.202   1.962   2.198 -0.0044 -3.4625 -1.1275
   43MOL   H62541029   5.197   1.862   2.341  0.7916  0.4958 -0.1610
   43MOL   O62641030   5.157   2.054   2.494 -0.1484  0.1361 -0.1184
   43MOL   C62741031   5.167   2.165   2.575 -0.4207 -0.1659 -0.3861
   43MOL   C62841032   5.114   2.132   2.719 -0.1868 -0.0106  0.0204
   43MOL   C62941033   4.955   2.128   2.726 -0.0316 -0.1691  0.0427
   43MOL   C63041034   4.901   2.069   2.856  0.6737  0.3066 -0.1566
   43MOL   C63141035   4.751   2.084   2.889 -0.5710 -0.1965 -0.2918
   43MOL   C63241036   4.696   2.042   3.030 -0.1752 -0.5608 -0.3147
   43MOL   C63341037   4.552   2.089   3.049  0.5159 -0.0268 -0.2615
   43MOL   C63441038   4.471   2.023   3.160 -0.7768  0.7765  0.7382
   43MOL   C63541039   4.316   2.022   3.169  0.0357  0.3555  1.1112
   43MOL   C63641040   4.247   1.912   3.258 -0.5638 -0.2189 -0.1335
   43MOL   O63741041   4.108   1.891   3.223 -0.5248 -0.0544 -0.0760
   43MOL   C63841042   4.036   1.786   3.265  0.7863 -0.9450 -0.4902
   43MOL   O63941043   4.085   1.697   3.336  0.1072  0.3872  0.1874
   43MOL   C64041044   3.881   1.798   3.244  0.4463  0.3407  0.0333
   43MOL   C64141045   3.843   1.770   3.090  0.2752 -0.2630 -0.0959
   43MOL   C64241046   3.852   1.627   3.044  0.4451  0.0551  0.3594
   43MOL   C64341047   3.842   1.614   2.891  0.1963  0.2393  0.0504
   43MOL   C64441048   3.963   1.658   2.809 -0.7225  0.5271 -0.2279
   43MOL   O64541049   3.948   1.730   2.712  0.4331  0.1570  0.2970
   43MOL   H64641050   5.273   2.189   2.573 -0.5017  0.2405  0.1727
   43MOL   H64741051   5.123   2.256   2.535  0.1154  0.0998 -0.3785
   43MOL   H64841052   5.145   2.217   2.780 -0.9099 -1.0253  1.8454
   43MOL   H64941053   5.164   2.043   2.758 -1.5497 -0.3841  0.9492
   43MOL   H65041054   4.930   2.234   2.730  0.6091  0.0139 -0.5925
   43MOL   H65141055   4.907   2.096   2.633 -3.0301  1.2736  1.0394
   43MOL   H65241056   4.960   2.103   2.941  1.8278 -0.4061 -0.6717
   43MOL   H65341057   4.921   1.962   2.847 -1.5302 -0.1381 -0.0822
   43MOL   H65441058   4.690   2.040   2.811  0.3784 -0.6446 -0.7808
   43MOL   H65541059   4.731   2.191   2.887 -0.7806 -0.2579 -2.8967
   43MOL   H65641060   4.753   2.082   3.114 -1.9245  0.9037  0.2090
   43MOL   H65741061   4.707   1.933   3.033 -0.4821 -0.6345 -1.7040
   43MOL   H65841062   4.505   2.076   2.952  0.5798 -1.1104 -0.1569
   43MOL   H65941063   4.540   2.193   3.079 -1.9846 -0.3186 -0.1307
   43MOL   H66041064   4.524   2.035   3.255 -0.5718 -0.5600  0.8142
   43MOL   H66141065   4.484   1.916   3.143 -0.1593  0.7217  1.4998
   43MOL   H66241066   4.280   2.118   3.207  2.8953  1.9041  0.0872
   43MOL   H66341067   4.283   1.997   3.068  1.7405 -1.4491  0.9723
   43MOL   H66441068   4.251   1.940   3.363  2.9066 -1.0931  0.0448
   43MOL   H66541069   4.309   1.822   3.258 -1.1964 -0.6758  1.3906
   43MOL   H66641070   3.828   1.724   3.304 -2.1007  1.7276 -0.4498
   43MOL   H66741071   3.846   1.894   3.281 -1.0659 -0.3661  0.4772
   43MOL   H66841072   3.911   1.829   3.029  1.6748 -1.2481  0.4786
   43MOL   H66941073   3.744   1.810   3.069  0.9782  1.6930  0.2049
   43MOL   H67041074   3.766   1.575   3.086 -0.4311  1.0283 -0.2147
   43MOL   H67141075   3.949   1.584   3.070  0.7076  0.5383  0.1802
   43MOL   H67241076   3.757   1.679   2.868 -0.6303  0.1268  2.6524
   43MOL   H67341077   3.812   1.513   2.863  0.2773  0.3734 -0.5293
   43MOL   O67441078   4.080   1.604   2.846  0.6846 -0.1389 -0.2898
   43MOL   C67541079   4.204   1.645   2.780 -0.2260 -0.2203  0.0674
   43MOL   C67641080   4.262   1.780   2.832  0.2989 -0.1855 -0.5408
   43MOL   C67741081   4.401   1.819   2.778  0.0134  0.2465 -0.3098
   43MOL   C67841082   4.412   1.824   2.625  0.2039  0.0031 -0.6279
   43MOL   C67941083   4.565   1.808   2.579 -0.7128 -0.0585 -0.2711
   43MOL   C68041084   4.585   1.796   2.432 -0.6870 -0.3596 -0.1689
   43MOL   C68141085   4.581   1.654   2.372  0.5452 -1.1246 -0.6482
   43MOL   C68241086   4.603   1.672   2.220 -0.1572 -0.1057  0.0657
   43MOL   C68341087   4.483   1.674   2.135 -0.1128  0.6415  0.4524
   43MOL   C68441088   4.530   1.698   1.994  0.8964 -0.1263 -0.1347
   43MOL   O68541089   4.423   1.676   1.896  0.5904 -0.5208 -0.5034
   43MOL   C68641090   4.389   1.553   1.846  0.8886  0.2764  0.7133
   43MOL   O68741091   4.445   1.449   1.879  0.1314 -0.3531 -0.6803
   43MOL   C68841092   4.272   1.553   1.750 -0.4119 -0.4760  0.5570
   43MOL   C68941093   4.134   1.592   1.811 -0.0007 -0.3362 -0.9487
   43MOL   C69041094   4.077   1.512   1.924 -1.0652  0.0270  0.4918
   43MOL   C69141095   3.946   1.574   1.976  0.3665  0.6030  0.1816
   43MOL   C69241096   3.825   1.543   1.885 -0.1384 -0.3980 -0.1355
   43MOL   O69341097   3.841   1.475   1.781  0.0456  0.1758 -0.6373
   43MOL   H69441098   4.277   1.564   2.787 -1.3899 -1.3308 -0.3474
   43MOL   H69541099   4.198   1.666   2.673  0.5664  2.6186  0.5353
   43MOL   H69641100   4.263   1.793   2.940  3.1585  2.1016 -0.7966
   43MOL   H69741101   4.190   1.855   2.799 -1.1606 -2.1780 -2.0123
   43MOL   H69841102   4.436   1.912   2.824  0.7873 -0.2399  0.0779
   43MOL   H69941103   4.467   1.737   2.802 -1.7217 -1.0710  0.0541
   43MOL   H70041104   4.386   1.917   2.575 -1.4490  0.0346  0.2662
   43MOL   H70141105   4.358   1.744   2.576 -0.0568 -2.0427  2.8104
   43MOL   H70241106   4.609   1.724   2.632 -0.9648 -0.1816 -0.2532
   43MOL   H70341107   4.628   1.891   2.611  1.0783 -1.6740  0.4703
   43MOL   H70441108   4.684   1.831   2.406 -0.8317  0.2658  0.1229
   43MOL   H70541109   4.517   1.859   2.375  0.8869  1.6842  0.1786
   43MOL   H70641110   4.481   1.615   2.391  0.2593 -0.5833 -1.0200
   43MOL   H70741111   4.652   1.594   2.429 -2.6776 -2.2083  2.3544
   43MOL   H70841112   4.655   1.578   2.203 -0.0082  0.0480 -0.3349
   43MOL   H70941113   4.673   1.753   2.201 -0.2351  0.8939  3.6039
   43MOL   H71041114   4.423   1.585   2.149 -1.1381  1.3683  0.7533
   43MOL   H71141115   4.410   1.753   2.156 -1.2396 -0.4092  0.5246
   43MOL   H71241116   4.613   1.634   1.965 -0.1761 -0.7813 -1.9032
   43MOL   H71341117   4.559   1.802   1.979  1.2567 -0.2814 -0.5237
   43MOL   H71441118   4.283   1.613   1.660  0.0227 -1.1460  0.1617
   43MOL   H71541119   4.267   1.451   1.713  2.7531  0.1075 -1.6609
   43MOL   H71641120   4.063   1.599   1.729  1.1293 -2.5705 -2.1740
   43MOL   H71741121   4.137   1.694   1.848  0.9018  0.3712 -2.8977
   43MOL   H71841122   4.147   1.501   2.007 -1.1324 -0.5380  0.4820
   43MOL   H71941123   4.063   1.407   1.896  1.8454  0.1185 -1.4996
   43MOL   H72041124   3.962   1.681   1.965  1.3567  0.2841 -1.6818
   43MOL   H72141125   3.928   1.545   2.080 -0.6597  2.1772  0.4648
   43MOL   O72241126   3.714   1.593   1.939  0.3728 -0.6427 -0.5146
   43MOL   C72341127   3.590   1.569   1.860  0.8121 -0.6909  0.3912
   43MOL   C72441128   3.481   1.661   1.917 -0.2602  0.3040 -0.8483
   43MOL   C72541129   3.445   1.608   2.061  0.1419  0.1675 -0.7129
   43MOL   C72641130   3.343   1.686   2.143  0.9913 -0.8630  0.4951
   43MOL   C72741131   3.320   1.633   2.284 -0.1271  0.4195  0.2323
   43MOL   C72841132   3.241   1.731   2.378 -0.5922 -0.0257 -0.0978
   43MOL   C72941133   3.108   1.789   2.331 -0.0434  0.6051  0.4470
   43MOL   C73041134   3.042   1.874   2.442  0.1874 -0.5201  0.1877
   43MOL   C73141135   2.940   1.973   2.396  0.3460  0.3811  0.2290
   43MOL   C73241136   2.876   2.064   2.505  0.4397  0.2863  0.1271
   43MOL   O73341137   2.973   2.131   2.581 -0.2382  0.3428 -0.3060
   43MOL   C73441138   2.975   2.146   2.710 -0.2135  0.0966 -0.0473
   43MOL   O73541139   2.908   2.089   2.794 -0.1383 -0.4897  0.0796
   43MOL   C73641140   3.100   2.229   2.755 -0.0962  0.3254  0.0651
   43MOL   C73741141   3.081   2.294   2.893 -0.6456 -0.1961 -0.1868
   43MOL   C73841142   3.221   2.318   2.956 -0.2409 -0.4014 -0.2284
   43MOL   C73941143   3.201   2.412   3.075 -0.4004 -0.1848 -0.2710
   43MOL   C74041144   3.335   2.478   3.118 -0.6940  0.9146  0.1035
   43MOL   O74141145   3.375   2.470   3.231 -0.7340 -0.1313 -0.0482
   43MOL   H74241146   3.599   1.584   1.753 -2.0099  0.4674  0.2568
   43MOL   H74341147   3.564   1.464   1.872 -2.0487 -0.1571 -0.5902
   43MOL   H74441148   3.391   1.658   1.856 -1.5242 -1.5273  1.0066
   43MOL   H74541149   3.521   1.763   1.919  4.0681 -1.2723 -0.0967
   43MOL   H74641150   3.425   1.501   2.053  0.8453  0.1987 -3.1389
   43MOL   H74741151   3.537   1.616   2.120 -0.2951  1.3104 -0.1773
   43MOL   H74841152   3.248   1.678   2.090  0.9192 -0.5458  0.5742
   43MOL   H74941153   3.356   1.794   2.137  2.9365 -1.0058  1.8078
   43MOL   H75041154   3.417   1.622   2.333 -0.6322  0.6848  1.3154
   43MOL   H75141155   3.284   1.531   2.291 -1.8332  0.8668 -1.6176
   43MOL   H75241156   3.310   1.814   2.391 -1.5034  0.3900  2.4870
   43MOL   H75341157   3.221   1.681   2.473  0.3576 -1.9133 -0.8706
   43MOL   H75441158   3.042   1.716   2.283 -0.4243  0.8754  0.5578
   43MOL   H75541159   3.132   1.848   2.243  0.1270  0.5293  0.4428
   43MOL   H75641160   3.120   1.933   2.490  1.5363 -2.5298  0.5204
   43MOL   H75741161   2.996   1.809   2.516  1.6932  0.1880  1.7727
   43MOL   H75841162   2.979   2.043   2.322  1.8476 -0.9386 -0.2316
   43MOL   H75941163   2.861   1.919   2.344  0.4936 -1.0050  1.4015
   43MOL   H76041164   2.812   1.996   2.562  1.9669 -0.3111  1.1452
   43MOL   H76141165   2.809   2.132   2.451  1.3836  1.5621  0.5560
   43MOL   H76241166   3.187   2.163   2.750  0.3520  0.7142  2.1895
   43MOL   H76341167   3.125   2.303   2.678  1.6884 -0.2967  0.0309
   43MOL   H76441168   3.027   2.228   2.961  1.8592 -1.9655  0.1343
   43MOL   H76541169   3.038   2.394   2.891  0.0783  0.1381  0.5008
   43MOL   H76641170   3.288   2.361   2.881  0.7439  2.7042  2.3394
   43MOL   H76741171   3.272   2.229   2.992 -1.3524 -0.1467  2.0493
   43MOL   H76841172   3.159   2.364   3.163  2.5044  0.3721  1.5059
   43MOL   H76941173   3.138   2.498   3.051  1.1021  1.4741  1.4835
   43MOL   O77041174   3.403   2.545   3.014  0.4862 -0.5877  0.0680
   43MOL   C77141175   3.530   2.598   3.038  0.4633 -0.9580 -0.0300
   43MOL   C77241176   3.626   2.542   2.935 -0.8300  0.2661 -0.2041
   43MOL   C77341177   3.608   2.587   2.796 -0.2185  0.0555 -0.1899
   43MOL   C77441178   3.731   2.545   2.718 -0.5122 -0.5731  0.5207
   43MOL   C77541179   3.770   2.625   2.588 -0.1317 -0.0317  0.1789
   43MOL   C77641180   3.903   2.588   2.528  0.2736 -0.1586 -0.1849
   43MOL   C77741181   3.890   2.453   2.446 -0.1800 -0.1722  1.2365
   43MOL   C77841182   3.856   2.486   2.296  0.1976 -0.1159 -0.1896
   43MOL   C77941183   3.847   2.359   2.210 -0.1101 -0.0365 -0.2049
   43MOL   C78041184   3.771   2.389   2.075 -0.5930 -0.1386  0.1110
   43MOL   O78141185   3.848   2.479   1.987 -0.4864 -0.0816  0.0279
   43MOL   C78241186   3.804   2.603   1.965  0.3744 -0.3879  0.3229
   43MOL   O78341187   3.702   2.655   2.017 -0.1052  0.1357 -0.2345
   43MOL   C78441188   3.883   2.676   1.861 -0.2567 -0.2056 -0.4671
   43MOL   C78541189   3.859   2.619   1.718 -0.1721 -0.2276 -0.0837
   43MOL   C78641190   3.868   2.468   1.684  0.2692 -0.2331  0.6472
   43MOL   C78741191   3.854   2.448   1.536  0.4666  0.5750 -0.7564
   43MOL   C78841192   3.804   2.312   1.502  0.2129 -0.3641 -0.2778
   43MOL   O78941193   3.809   2.211   1.575 -0.9536  0.3264  0.3644
   43MOL   H79041194   3.526   2.707   3.027  0.9459 -0.7894  1.2799
   43MOL   H79141195   3.574   2.566   3.133  0.8079 -0.8105 -0.1388
   43MOL   H79241196   3.629   2.433   2.942  1.1964  0.3609  0.5994
   43MOL   H79341197   3.723   2.564   2.978 -0.4359 -0.9444 -0.4640
   43MOL   H79441198   3.512   2.551   2.759 -1.5365  2.5624  0.6359
   43MOL   H79541199   3.590   2.694   2.797  4.0881  0.8909 -1.2276
   43MOL   H79641200   3.725   2.438   2.700 -0.6373 -0.4536 -0.1603
   43MOL   H79741201   3.815   2.561   2.786 -0.4085 -1.2447  0.5511
   43MOL   H79841202   3.777   2.732   2.612 -1.3473  0.1337 -0.1590
   43MOL   H79941203   3.683   2.628   2.523  0.8607 -0.5030 -1.1949
   43MOL   H80041204   3.973   2.576   2.611 -0.6828 -1.1533  0.4972
   43MOL   H80141205   3.940   2.665   2.461  0.6557  1.2404  1.5814
   43MOL   H80241206   3.824   2.376   2.488 -3.1643  1.5858 -0.1035
   43MOL   H80341207   3.990   2.409   2.444 -1.0839 -2.3092  1.1250
   43MOL   H80441208   3.925   2.551   2.243 -0.7835  1.9778  1.0544
   43MOL   H80541209   3.761   2.540   2.301  0.5507  0.5565 -0.7060
   43MOL   H80641210   3.948   2.322   2.190  0.1015  1.2329 -1.6377
   43MOL   H80741211   3.790   2.287   2.268  0.5069 -0.2746  0.1085
   43MOL   H80841212   3.675   2.434   2.102 -0.6721 -1.0838  1.4277
   43MOL   H80941213   3.763   2.294   2.023 -0.1890  0.4950 -1.1201
   43MOL   H81041214   3.870   2.784   1.871 -0.3230 -0.2010 -0.6081
   43MOL   H81141215   3.989   2.666   1.883 -0.3183  0.1217 -0.0262
   43MOL   H81241216   3.936   2.660   1.653  0.4945 -0.9880  0.2172
   43MOL   H81341217   3.767   2.661   1.676 -0.5545 -1.4308 -0.4568
   43MOL   H81441218   3.790   2.421   1.744  0.2724  0.4983  1.2346
   43MOL   H81541219   3.959   2.413   1.711 -0.5310 -1.8500  0.1625
   43MOL   H81641220   3.950   2.459   1.486  0.1337  1.0722 -1.2947
   43MOL   H81741221   3.779   2.513   1.490  1.8595  0.0342 -3.9529
   43MOL   O81841222   3.760   2.320   1.376 -0.2366 -0.2221  0.4513
   43MOL   C81941223   3.691   2.210   1.322 -0.2835  0.1368  0.4547
   43MOL   C82041224   3.542   2.236   1.359  0.0279  0.1643  0.4271
   43MOL   C82141225   3.441   2.156   1.271  0.6224  0.3369  0.3579
   43MOL   C82241226   3.458   2.008   1.314 -0.1464  0.3087  0.0216
   43MOL   C82341227   3.399   1.904   1.220 -0.2472  0.7467  0.1571
   43MOL   C82441228   3.444   1.757   1.242  0.3722 -0.3656 -0.6402
   43MOL   C82541229   3.389   1.691   1.372 -0.6716  0.0937  0.7261
   43MOL   C82641230   3.434   1.545   1.397 -0.0727 -0.3643 -0.0157
   43MOL   C82741231   3.388   1.475   1.525  0.5706  0.2468 -1.1882
   43MOL   C82841232   3.461   1.339   1.541  0.3205 -0.3803 -0.1846
   43MOL   O82941233   3.433   1.250   1.438 -0.2223 -0.7574 -0.0186
   43MOL   C83041234   3.337   1.161   1.454  0.1264  0.4349  0.3420
   43MOL   O83141235   3.278   1.139   1.556 -0.5436  0.0511 -0.7382
   43MOL   C83241236   3.335   1.054   1.340  0.1951  0.1639 -0.8573
   43MOL   C83341237   3.461   0.971   1.328  0.2606  0.0017  0.6137
   43MOL   C83441238   3.420   0.837   1.257 -0.1791  0.5300 -0.1115
   43MOL   C83541239   3.335   0.739   1.341  0.5735  0.5906 -0.0564
   43MOL   C83641240   3.418   0.633   1.427  0.0603 -1.6897 -0.4876
   43MOL   O83741241   3.527   0.586   1.395 -0.1470  0.5320 -0.4101
   43MOL   H83841242   3.707   2.202   1.215  1.5053 -1.4561  0.8127
   43MOL   H83941243   3.739   2.119   1.359 -0.0702 -0.0500 -0.2715
   43MOL   H84041244   3.517   2.342   1.349  3.3721  0.9459 -0.1546
   43MOL   H84141245   3.513   2.221   1.463  1.3344 -2.3798  0.4699
   43MOL   H84241246   3.340   2.196   1.275  0.5877  0.3360 -0.3468
   43MOL   H84341247   3.472   2.168   1.167  1.7979 -1.9238  0.4043
   43MOL   H84441248   3.425   2.007   1.418  1.0588 -0.0097  0.4097
   43MOL   H84541249   3.566   1.990   1.312 -0.7208 -3.1458 -1.9156
   43MOL   H84641250   3.436   1.922   1.119  1.3425 -0.5356  0.4806
   43MOL   H84741251   3.292   1.922   1.222 -0.1528  1.5577 -1.1061
   43MOL   H84841252   3.553   1.758   1.252  0.5116  0.6435 -2.0143
   43MOL   H84941253   3.425   1.695   1.154  1.3854 -3.0977  0.9974
   43MOL   H85041254   3.281   1.699   1.388 -0.8224  2.6576 -1.2153
   43MOL   H85141255   3.420   1.748   1.460 -2.5110  0.4898  1.1447
   43MOL   H85241256   3.541   1.561   1.409  0.2448 -2.7446  0.7240
   43MOL   H85341257   3.413   1.489   1.306  0.1213 -0.1115 -0.2174
   43MOL   H85441258   3.391   1.531   1.619  0.7323 -1.9213  0.1251
   43MOL   H85541259   3.283   1.457   1.505  0.5163 -1.6257  0.5982
   43MOL   H85641260   3.461   1.277   1.631  1.5340  0.0667  0.1288
   43MOL   H85741261   3.566   1.365   1.537  0.3441 -0.5798 -0.8672
   43MOL   H85841262   3.252   0.986   1.359 -0.8193  1.3839 -0.8691
   43MOL   H85941263   3.308   1.107   1.248 -0.5206  1.3753  0.0327
   43MOL   H86041264   3.505   0.964   1.428  0.5356  1.0920  0.5798
   43MOL   H86141265   3.546   1.015   1.275 -1.2350  2.3016  0.0795
   43MOL   H86241266   3.507   0.782   1.219  1.3349  3.2204 -0.6842
   43MOL   H86341267   3.364   0.865   1.168  1.2510 -0.6514 -1.4206
   43MOL   H86441268   3.269   0.687   1.272  0.6181  0.5431 -0.0635
   43MOL   H86541269   3.268   0.798   1.404 -1.3770  2.0646 -3.3608
   43MOL   O86641270   3.345   0.596   1.541  0.1698  0.4493 -0.2992
   43MOL   C86741271   3.393   0.513   1.636 -0.4407  0.0769  0.9632
   43MOL   C86841272   3.285   0.407   1.666  0.5920 -0.8138  0.0857
   43MOL   C86941273   3.169   0.475   1.740  0.4847 -0.2751 -0.0576
   43MOL   C87041274   3.049   0.372   1.757  0.2918  0.2978 -0.6795
   43MOL   C87141275   2.922   0.427   1.812 -0.0981 -0.4736  0.3127
   43MOL   C87241276   2.948   0.499   1.945 -0.1361  0.3194 -0.4326
   43MOL   C87341277   2.824   0.554   2.014  0.6564  0.2820  0.0277
   43MOL   C87441278   2.847   0.636   2.140  0.6818  0.2602  0.0556
   43MOL   C87541279   2.720   0.703   2.183 -0.1936  0.3125  0.6343
   43MOL   C87641280   2.720   0.759   2.327  0.1606  0.3225  0.3511
   43MOL   O87741281   2.818   0.857   2.325 -0.2659  0.0841 -0.5137
   43MOL   C87841282   2.789   0.977   2.266 -0.1746  0.0907  0.6398
   43MOL   O87941283   2.674   1.023   2.256 -0.3287  0.1827  0.2773
   43MOL   C88041284   2.910   1.062   2.230  0.0198 -0.4664  0.1729
   43MOL   C88141285   2.876   1.213   2.189  0.3151  0.2635 -0.2393
   43MOL   C88241286   2.802   1.227   2.060  0.8365  0.2664  0.7210
   43MOL   C88341287   2.785   1.375   2.028 -0.2994 -1.1670 -0.1773
   43MOL   C88441288   2.699   1.459   2.121  0.3494 -0.4562  0.0152
   43MOL   O88541289   2.746   1.546   2.197 -0.0094  0.3044 -0.2110
   43MOL   H88641290   3.479   0.461   1.594 -0.8522  1.0782 -1.1688
   43MOL   H88741291   3.442   0.569   1.716 -0.4150  0.8029  0.4377
   43MOL   H88841292   3.339   0.338   1.730  1.4030 -0.1681  0.1014
   43MOL   H88941293   3.247   0.363   1.574  0.6150 -1.3662  0.3408
   43MOL   H89041294   3.199   0.516   1.837  0.4790  1.1429 -0.6484
   43MOL   H89141295   3.129   0.559   1.683 -1.0178 -0.3607  0.8391
   43MOL   H89241296   3.087   0.304   1.833 -1.7351 -0.3695 -0.2337
   43MOL   H89341297   3.024   0.315   1.668  0.7720  0.9459 -1.2332
   43MOL   H89441298   2.852   0.344   1.825  0.8785 -1.4737 -0.6042
   43MOL   H89541299   2.891   0.507   1.746  0.8824  1.3837  2.0627
   43MOL   H89641300   3.015   0.581   1.924 -1.6339  1.1937 -1.8956
   43MOL   H89741301   2.998   0.432   2.016  0.9739  0.5512 -0.9937
   43MOL   H89841302   2.744   0.480   2.024  0.0215  0.8116 -1.1612
   43MOL   H89941303   2.775   0.618   1.941 -0.2186  2.3296  2.3422
   43MOL   H90041304   2.926   0.711   2.139  1.9348 -0.9816  1.7323
   43MOL   H90141305   2.883   0.563   2.213  0.6215 -1.4070 -1.5454
   43MOL   H90241306   2.694   0.782   2.113 -0.6650 -1.4196 -1.2047
   43MOL   H90341307   2.646   0.623   2.181  0.2621 -0.1111 -2.5655
   43MOL   H90441308   2.740   0.681   2.400  1.5363 -1.8366 -2.2468
   43MOL   H90541309   2.627   0.803   2.362  0.9802  1.7958  0.7155
   43MOL   H90641310   2.991   1.055   2.303  0.1665  0.4182  0.1061
   43MOL   H90741311   2.949   1.005   2.146  0.0938  0.7749 -0.6574
   43MOL   H90841312   2.970   1.269   2.188  0.0552  0.8004  1.8721
   43MOL   H90941313   2.819   1.253   2.274  1.3015  0.9969  0.0866
   43MOL   H91041314   2.706   1.176   2.053  0.1475  1.7014 -0.5546
   43MOL   H91141315   2.870   1.174   1.992 -2.0159 -3.7275  0.7830
   43MOL   H91241316   2.747   1.392   1.927 -1.8096  0.5298  0.6315
   43MOL   H91341317   2.886   1.416   2.025 -1.1369  1.0308  0.3559
   43MOL   O91441318   2.563   1.433   2.103  0.1495  0.1201 -1.0929
   43MOL   C91541319   2.467   1.508   2.176  0.0557  0.6328  0.0024
   43MOL   C91641320   2.396   1.407   2.269 -1.0126  0.1104  0.9777
   43MOL   C91741321   2.263   1.465   2.327 -0.4201 -0.2436 -0.3061
   43MOL   C91841322   2.294   1.565   2.438  0.3205 -0.0442  0.5837
   43MOL   C91941323   2.170   1.617   2.507 -0.6248 -0.8856  0.1999
   43MOL   C92041324   2.202   1.737   2.594  0.2791 -0.4263 -0.3500
   43MOL   C92141325   2.076   1.807   2.643 -0.0428 -0.8428  0.5322
   43MOL   C92241326   2.112   1.931   2.721 -0.1456 -0.2635  0.5583
   43MOL   C92341327   1.994   1.983   2.798  0.1006 -0.2401 -0.0776
   43MOL   C92441328   2.028   2.082   2.918  0.1631  0.4119  0.1866
   43MOL   O92541329   2.079   2.019   3.037 -0.1220 -0.0556  0.2050
   43MOL   C92641330   2.082   2.088   3.151  0.8217 -0.1444  0.6218
   43MOL   O92741331   2.036   2.200   3.165 -0.0685 -0.2365  0.0810
   43MOL   C92841332   2.167   2.024   3.254 -0.1508  0.1626  0.1695
   43MOL   C92941333   2.149   1.871   3.274 -0.2436  0.0314 -0.5113
   43MOL   C93041334   2.241   1.810   3.387 -0.9107 -0.2675  0.4528
   43MOL   C93141335   2.191   1.833   3.531  0.1923 -0.3647 -0.4745
   43MOL   C93241336   2.287   1.784   3.627 -0.3772  0.1845  0.3132
   43MOL   O93341337   2.262   1.679   3.685  0.4219  0.1549  0.5239
   43MOL   H93441338   2.509   1.592   2.231 -0.8564  0.4282  1.0317
   43MOL   H93541339   2.391   1.551   2.111 -0.2712  1.1231  0.7071
   43MOL   H93641340   2.465   1.371   2.346 -0.3450  1.2355  0.8999
   43MOL   H93741341   2.361   1.318   2.215  0.8008  0.5579 -0.9744
   43MOL   H93841342   2.207   1.510   2.246  0.6732  0.3882 -0.7237
   43MOL   H93941343   2.191   1.397   2.372  1.8048 -0.5226  3.0582
   43MOL   H94041344   2.364   1.641   2.407  0.3524 -0.7204 -1.0437
   43MOL   H94141345   2.352   1.516   2.516  2.1810 -1.3814 -1.5687
   43MOL   H94241346   2.114   1.541   2.562  1.6573 -1.5802  1.6401
   43MOL   H94341347   2.112   1.645   2.419  1.5783  0.6511 -0.8114
   43MOL   H94441348   2.273   1.805   2.547 -0.6699  0.8566  0.0737
   43MOL   H94541349   2.258   1.710   2.683 -0.9042  2.7242  1.4095
   43MOL   H94641350   1.998   1.752   2.695 -0.8411 -0.0675  0.1745
   43MOL   H94741351   2.018   1.834   2.555  1.6485  0.0489 -0.3381
   43MOL   H94841352   2.174   2.000   2.662 -0.6095 -2.6873 -2.9047
   43MOL   H94941353   2.189   1.919   2.798  0.1079  1.3563  0.5832
   43MOL   H95041354   1.928   2.026   2.723  0.2743  2.2242  1.1377
   43MOL   H95141355   1.938   1.898   2.839 -0.4682 -0.7163 -1.7947
   43MOL   H95241356   1.933   2.134   2.935 -0.2694 -0.3710  0.1601
   43MOL   H95341357   2.099   2.158   2.884  3.5420 -2.5161  0.3824
   43MOL   H95441358   2.271   2.047   3.229 -0.4983  0.7775 -0.7392
   43MOL   H95541359   2.149   2.071   3.350  1.9698  2.9144 -0.6822
   43MOL   H95641360   2.179   1.814   3.186 -1.0968 -0.5087 -0.4542
   43MOL   H95741361   2.046   1.846   3.298 -0.0901 -1.8870 -1.7270
   43MOL   H95841362   2.334   1.865   3.372 -1.2519  0.0615 -0.4455
   43MOL   H95941363   2.256   1.704   3.367  1.1709  0.5038 -2.3666
   43MOL   H96041364   2.102   1.775   3.552  2.3113 -3.3200  0.6590
   43MOL   H96141365   2.163   1.937   3.547 -2.9962 -1.0275 -1.4845
   43MOL   H96241366   2.380   1.840   3.619 -1.3686  1.4783 -2.7472
   44MOL     O141367   3.952   7.070   0.815 -0.0853  0.5410 -0.0466
   44MOL     C241368   4.006   7.194   0.860 -0.5978  0.6057  0.6475
   44MOL     C341369   4.085   7.176   0.995  0.0952 -0.4478 -0.2818
   44MOL     C441370   4.226   7.111   0.977  0.2937 -0.2867  0.3865
   44MOL     C541371   4.298   7.072   1.099  0.1962 -0.6632  0.1019
   44MOL     C641372   4.386   6.952   1.064  0.1676  0.4116 -0.3068
   44MOL     C741373   4.489   6.921   1.178  0.1074  0.3249  0.0291
   44MOL     C841374   4.597   6.813   1.138  1.0374 -0.8563 -0.0975
   44MOL     C941375   4.545   6.668   1.119  0.0788  0.0390 -0.1246
   44MOL    C1041376   4.662   6.563   1.114 -0.6474 -0.2784 -0.2266
   44MOL    C1141377   4.623   6.415   1.122 -0.3564 -0.1040  0.7516
   44MOL    O1241378   4.735   6.341   1.158 -0.9376  0.0832 -0.3338
   44MOL    C1341379   4.736   6.202   1.183 -0.5778 -0.8338 -0.3551
   44MOL    O1441380   4.630   6.134   1.197  0.2626  0.3142  0.4781
   44MOL    C1541381   4.874   6.134   1.180  0.4593 -0.4524  0.1576
   44MOL    C1641382   4.879   5.996   1.238 -0.0143 -0.5951  0.2269
   44MOL    C1741383   4.987   5.904   1.180 -0.7883  0.2539 -0.3767
   44MOL    C1841384   5.020   5.778   1.270  0.3270  0.3203 -0.5482
   44MOL    C1941385   4.901   5.681   1.271 -0.2134 -0.0818 -0.2993
   44MOL    O2041386   4.854   5.632   1.171  0.0147 -0.2907 -0.4020
   44MOL    H2141387   4.072   7.226   0.780 -1.2932 -1.6300 -0.9055
   44MOL    H2241388   3.929   7.271   0.851 -1.4888 -0.2325  0.9934
   44MOL    H2341389   4.030   7.107   1.057 -0.1460 -0.1156 -0.1250
   44MOL    H2441390   4.105   7.272   1.043  2.4809 -2.0581  2.0463
   44MOL    H2541391   4.208   7.020   0.919 -0.3322 -0.8767  1.4842
   44MOL    H2641392   4.291   7.171   0.914  1.8201 -1.5327  0.7599
   44MOL    H2741393   4.228   7.046   1.178  0.7157  0.2516  0.8744
   44MOL    H2841394   4.352   7.157   1.139 -0.8471 -0.3501  0.8815
   44MOL    H2941395   4.444   6.980   0.976 -1.7443  0.5483 -1.5551
   44MOL    H3041396   4.325   6.867   1.033  2.4431 -0.8411 -1.4340
   44MOL    H3141397   4.438   6.884   1.267  1.8550  0.1805  0.9753
   44MOL    H3241398   4.532   7.017   1.208 -3.0915  2.6108 -2.2254
   44MOL    H3341399   4.673   6.818   1.216 -0.7512 -1.8448  1.7707
   44MOL    H3441400   4.643   6.855   1.049  1.3391 -0.3889  0.2736
   44MOL    H3541401   4.488   6.671   1.026 -0.7603  0.5705  0.3995
   44MOL    H3641402   4.471   6.648   1.196 -0.3779 -0.3155 -0.6562
   44MOL    H3741403   4.709   6.586   1.019 -0.1102 -0.0540  0.0879
   44MOL    H3841404   4.728   6.571   1.201 -0.5224 -3.0922 -0.0314
   44MOL    H3941405   4.585   6.366   1.032  1.1666  0.3085 -0.1251
   44MOL    H4041406   4.546   6.408   1.200 -0.2743  0.7945  0.9249
   44MOL    H4141407   4.895   6.138   1.073 -1.3885  1.1980 -0.1870
   44MOL    H4241408   4.953   6.200   1.217  1.7243 -2.1597  0.5414
   44MOL    H4341409   4.785   5.942   1.221 -1.0771  0.2176  3.2314
   44MOL    H4441410   4.869   5.989   1.346 -1.1391 -2.3106  0.0351
   44MOL    H4541411   5.076   5.967   1.177  0.3988 -1.3324  0.3591
   44MOL    H4641412   4.958   5.888   1.076  0.1451  0.1765 -0.6270
   44MOL    H4741413   5.052   5.801   1.371  0.9272 -0.2420 -0.6069
   44MOL    H4841414   5.090   5.710   1.222 -0.6711 -0.4496 -0.9076
   44MOL    H4941415   3.876   7.055   0.870 -0.4204 -0.7197 -0.8478
   44MOL    O5041416   4.854   5.666   1.401  0.1101 -0.4686 -0.3994
   44MOL    C5141417   4.727   5.617   1.437 -0.0005 -0.2964 -0.1775
   44MOL    C5241418   4.737   5.462   1.451 -0.4859 -0.8689 -0.4870
   44MOL    C5341419   4.838   5.429   1.571  0.5934 -0.1282 -0.1382
   44MOL    C5441420   4.865   5.273   1.567  0.1436 -0.0308  0.8657
   44MOL    C5541421   4.937   5.229   1.694  0.4198 -0.1493 -0.0615
   44MOL    C5641422   4.979   5.078   1.696 -0.4509  0.3973  0.3069
   44MOL    C5741423   5.007   5.029   1.837 -0.0945 -0.1289  0.6136
   44MOL    C5841424   5.073   4.891   1.839 -0.5605 -0.1070  0.9478
   44MOL    C5941425   5.108   4.831   1.972  0.0334  0.1348  0.4845
   44MOL    C6041426   5.221   4.723   1.963 -0.7752  0.1057 -0.6290
   44MOL    O6141427   5.208   4.639   2.076 -0.3914 -0.3607  0.0327
   44MOL    C6241428   5.270   4.671   2.199 -0.1923 -0.2686 -0.8088
   44MOL    O6341429   5.359   4.752   2.218  0.3844 -0.4983  0.2070
   44MOL    C6441430   5.224   4.583   2.318 -0.1186 -0.1794 -0.4521
   44MOL    C6541431   5.071   4.584   2.351 -0.1149 -0.3681  0.6406
   44MOL    C6641432   5.007   4.714   2.377 -0.0173  0.1754 -0.0054
   44MOL    C6741433   4.856   4.704   2.421 -0.1833  0.2048  0.0797
   44MOL    C6841434   4.760   4.686   2.307  0.4411  0.3310  0.1582
   44MOL    O6941435   4.789   4.704   2.190 -0.3961 -0.3957  0.4166
   44MOL    H7041436   4.696   5.661   1.531 -0.4836 -1.3449  0.1707
   44MOL    H7141437   4.643   5.645   1.373 -0.5712  0.6451  0.9764
   44MOL    H7241438   4.750   5.431   1.348  0.1487 -0.4420 -0.5384
   44MOL    H7341439   4.639   5.423   1.478  0.2687 -0.2457  3.4748
   44MOL    H7441440   4.922   5.497   1.566  1.2666 -1.0009 -0.9441
   44MOL    H7541441   4.772   5.459   1.652 -0.9382 -0.1459 -1.3345
   44MOL    H7641442   4.921   5.254   1.475 -0.1552  1.4627  0.3492
   44MOL    H7741443   4.773   5.214   1.564  0.8371 -1.0956  0.6508
   44MOL    H7841444   4.864   5.243   1.774 -2.9488 -0.1005 -3.0027
   44MOL    H7941445   5.022   5.297   1.700  0.4986 -0.1127 -1.2912
   44MOL    H8041446   5.065   5.065   1.630  0.3778 -1.0620  1.6390
   44MOL    H8141447   4.900   5.015   1.656 -0.5037 -1.0034  2.5394
   44MOL    H8241448   4.914   5.007   1.890  0.7227  0.0511  2.1356
   44MOL    H8341449   5.067   5.102   1.892 -2.6999  3.0335 -0.5377
   44MOL    H8441450   5.167   4.898   1.784 -1.7497  1.9360 -0.8986
   44MOL    H8541451   5.007   4.829   1.779  0.7152  0.4779 -1.1116
   44MOL    H8641452   5.153   4.909   2.034  0.4238  2.3037 -2.4452
   44MOL    H8741453   5.017   4.784   2.011  0.3677 -2.3401 -1.5899
   44MOL    H8841454   5.316   4.776   1.972 -0.3484 -0.5005 -1.3984
   44MOL    H8941455   5.226   4.658   1.875 -0.2336 -0.7414  0.0123
   44MOL    H9041456   5.252   4.484   2.281 -1.1762 -1.1865  1.3183
   44MOL    H9141457   5.291   4.600   2.402 -1.1467 -1.6474  0.7130
   44MOL    H9241458   5.054   4.520   2.437 -1.7447  0.5392  1.0132
   44MOL    H9341459   5.028   4.542   2.261  0.0544  1.6974 -0.4358
   44MOL    H9441460   5.018   4.786   2.296  1.1484  1.9811  1.6917
   44MOL    H9541461   5.066   4.760   2.457 -2.8960  1.6773  1.3793
   44MOL    H9641462   4.824   4.789   2.481 -0.4019 -0.8409  1.4624
   44MOL    H9741463   4.838   4.617   2.483  0.9966  0.7004  1.1452
   44MOL    O9841464   4.635   4.661   2.362 -0.7749  0.0144  0.0690
   44MOL    C9941465   4.521   4.636   2.277 -0.4301  0.3260 -0.8244
   44MOL   C10041466   4.400   4.575   2.351 -0.8951 -0.2638 -0.6978
   44MOL   C10141467   4.291   4.539   2.252  0.7597  0.4482 -0.0719
   44MOL   C10241468   4.180   4.456   2.316  0.3896 -0.0785 -0.3374
   44MOL   C10341469   4.055   4.440   2.233 -0.2876 -0.1554  0.2303
   44MOL   C10441470   4.079   4.356   2.106  0.3256  0.2732  0.2875
   44MOL   C10541471   3.954   4.337   2.021  0.6489  0.1936  0.0314
   44MOL   C10641472   3.972   4.224   1.922  0.2217  0.1082  0.1197
   44MOL   C10741473   3.872   4.236   1.801  0.3739 -0.6105  0.3092
   44MOL   C10841474   3.901   4.343   1.690 -0.4464 -0.6567 -0.2160
   44MOL   O10941475   3.815   4.348   1.579  0.0515  0.4628  0.0096
   44MOL   C11041476   3.846   4.431   1.477  0.3374  1.7061 -0.2240
   44MOL   O11141477   3.952   4.497   1.469 -0.0525  0.5871 -0.5805
   44MOL   C11241478   3.741   4.429   1.373 -0.2468  0.2424  0.0330
   44MOL   C11341479   3.601   4.479   1.412  0.3459 -0.2246 -0.8338
   44MOL   C11441480   3.593   4.626   1.453 -0.3690  0.2686 -0.0688
   44MOL   C11541481   3.455   4.666   1.516 -0.8183  0.0782  0.4614
   44MOL   C11641482   3.344   4.646   1.407  0.9079  0.0897  0.8816
   44MOL   O11741483   3.273   4.546   1.407 -0.1132 -0.4812 -0.0721
   44MOL   H11841484   4.491   4.728   2.227 -2.0577  0.3212  0.1057
   44MOL   H11941485   4.552   4.567   2.199 -0.0076 -0.3792 -0.0455
   44MOL   H12041486   4.388   4.631   2.444  2.4632  0.7908 -0.8274
   44MOL   H12141487   4.436   4.479   2.388  0.4217 -0.4780 -2.4809
   44MOL   H12241488   4.247   4.629   2.208  0.9273 -0.0606 -1.3062
   44MOL   H12341489   4.325   4.479   2.168  2.4912  0.5365  0.5370
   44MOL   H12441490   4.146   4.499   2.410  0.5016 -0.0492 -0.3108
   44MOL   H12541491   4.230   4.363   2.345  2.4298  0.6160 -1.5016
   44MOL   H12641492   4.012   4.538   2.209 -0.9376 -0.4176  0.3046
   44MOL   H12741493   3.981   4.391   2.297 -0.3019 -2.1634 -1.2898
   44MOL   H12841494   4.112   4.255   2.126 -0.1656 -0.5331 -2.6732
   44MOL   H12941495   4.149   4.409   2.041 -1.3349  0.6899 -1.2026
   44MOL   H13041496   3.940   4.433   1.971  2.6562  0.6933  0.3999
   44MOL   H13141497   3.863   4.319   2.079  0.7604  0.2868  0.2335
   44MOL   H13241498   3.960   4.129   1.973  0.7828 -1.0469 -1.8285
   44MOL   H13341499   4.073   4.229   1.882  0.4064  1.7733  0.7453
   44MOL   H13441500   3.858   4.138   1.754  0.7496 -0.0792 -0.9277
   44MOL   H13541501   3.774   4.255   1.845  1.3642  1.0037  1.8582
   44MOL   H13641502   4.004   4.339   1.655 -0.0905 -0.3514  0.7826
   44MOL   H13741503   3.889   4.442   1.732 -0.3075 -0.6185 -0.2682
   44MOL   H13841504   3.782   4.481   1.286  0.5331 -0.6229 -0.1278
   44MOL   H13941505   3.730   4.328   1.333 -0.2374 -0.3818  1.5657
   44MOL   H14041506   3.565   4.423   1.499  0.2225  2.9078  1.2166
   44MOL   H14141507   3.540   4.468   1.322 -0.3256  3.2971 -0.8924
   44MOL   H14241508   3.620   4.683   1.364 -2.3642 -0.5034 -1.1991
   44MOL   H14341509   3.663   4.652   1.532 -1.6185 -0.2741  1.2317
   44MOL   H14441510   3.470   4.770   1.544  1.2367  0.2452 -1.0994
   44MOL   H14541511   3.424   4.600   1.597 -0.9868  0.3941  0.6511
   44MOL   O14641512   3.337   4.752   1.319 -0.4912 -0.0287  0.1810
   44MOL   C14741513   3.257   4.730   1.200  0.1548  0.4621  1.2363
   44MOL   C14841514   3.327   4.741   1.066  0.7126  0.0371  0.2000
   44MOL   C14941515   3.368   4.888   1.017  0.1307 -0.3903 -0.7143
   44MOL   C15041516   3.418   4.894   0.872 -0.0873  0.4114  0.1285
   44MOL   C15141517   3.320   4.834   0.767 -0.3768 -0.1968 -0.3060
   44MOL   C15241518   3.344   4.884   0.624 -0.6743  0.2234 -0.8897
   44MOL   C15341519   3.481   4.852   0.563 -0.3819 -0.0559  0.2017
   44MOL   C15441520   3.503   4.932   0.436 -0.3312 -0.3005  0.1336
   44MOL   C15541521   3.621   4.873   0.345 -0.2547  1.0889 -0.1478
   44MOL   C15641522   3.657   4.951   0.222  0.6321  0.3640 -0.3854
   44MOL   O15741523   3.776   4.891   0.174  0.8510 -0.4242 -0.5926
   44MOL   C15841524   3.786   4.856   0.052  0.2711  0.4994  0.3121
   44MOL   O15941525   3.708   4.888   7.728  0.4146 -0.2327 -0.4073
   44MOL   C16041526   3.917   4.796   0.015  0.0255 -0.1924  0.3206
   44MOL   C16141527   4.010   4.900   7.725 -0.6437 -0.7271 -0.1590
   44MOL   C16241528   4.121   4.834   7.650  0.0011  0.0332  0.0690
   44MOL   C16341529   4.226   4.940   7.617 -0.6086  0.2571 -0.2818
   44MOL   C16441530   4.366   4.882   7.581 -0.4396 -0.1850  0.8963
   44MOL   O16541531   4.422   4.924   7.472  0.6288  0.6024 -0.8038
   44MOL   H16641532   3.200   4.638   1.207 -1.1723  1.3252  1.8838
   44MOL   H16741533   3.182   4.808   1.192 -0.0346  0.1341 -0.4051
   44MOL   H16841534   3.254   4.723   0.987 -0.6292  1.1267  1.1697
   44MOL   H16941535   3.408   4.670   1.050  0.8599  0.6178 -1.8133
   44MOL   H17041536   3.286   4.960   1.024  0.9039  0.3675  0.7040
   44MOL   H17141537   3.442   4.923   1.089  0.6734  1.7845 -2.2768
   44MOL   H17241538   3.511   4.838   0.860  1.7640  3.6756 -1.4204
   44MOL   H17341539   3.434   4.998   0.846  1.5580  0.5643  1.6327
   44MOL   H17441540   3.216   4.860   0.789 -1.2187 -2.6148 -1.3326
   44MOL   H17541541   3.329   4.727   0.752  2.4174 -0.0532  0.1659
   44MOL   H17641542   3.317   4.989   0.619  0.3486  0.5480  0.1766
   44MOL   H17741543   3.262   4.857   0.557 -0.5201 -0.4878 -0.8021
   44MOL   H17841544   3.477   4.744   0.543  0.0810 -0.1229  0.4614
   44MOL   H17941545   3.558   4.880   0.635 -0.5096 -2.4830  1.3621
   44MOL   H18041546   3.521   5.036   0.463  2.1084 -0.3102 -1.2618
   44MOL   H18141547   3.413   4.929   0.374 -0.4349 -3.1217  0.3705
   44MOL   H18241548   3.715   4.878   0.400 -0.2472 -3.1878  0.3862
   44MOL   H18341549   3.598   4.769   0.321 -0.1450  1.1540 -0.5392
   44MOL   H18441550   3.673   5.052   0.260 -1.0422  0.1039  1.0817
   44MOL   H18541551   3.573   4.934   0.155 -0.7159  0.2235  1.3075
   44MOL   H18641552   3.956   4.746   0.104 -0.6607 -1.7896 -0.2573
   44MOL   H18741553   3.895   4.727   7.697 -0.1862  0.9551 -0.5910
   44MOL   H18841554   4.057   4.954   0.043  2.0730 -1.2029 -1.3627
   44MOL   H18941555   3.968   4.977   7.661  1.9666  1.0976  0.2607
   44MOL   H19041556   4.086   4.766   7.573 -0.3850 -0.4532  0.6689
   44MOL   H19141557   4.162   4.755   7.713 -0.3015 -1.1907 -1.2519
   44MOL   H19241558   4.236   5.010   7.701 -2.5024  1.2143 -0.8192
   44MOL   H19341559   4.204   5.004   7.532 -0.7292  1.3021  0.5223
   44MOL   O19441560   4.419   4.793   7.662  0.8144  0.5740  0.1230
   44MOL   C19541561   4.551   4.744   7.648 -0.0659  0.1666 -0.0194
   44MOL   C19641562   4.535   4.608   7.574  0.0959  0.3314  0.1308
   44MOL   C19741563   4.474   4.499   7.664 -0.5454 -0.0180  0.5919
   44MOL   C19841564   4.425   4.367   7.591  0.0409 -0.5144  0.4050
   44MOL   C19941565   4.312   4.292   7.668 -0.4666 -0.3476  0.8328
   44MOL   C20041566   4.255   4.176   7.591  0.4221  0.0748  0.4662
   44MOL   C20141567   4.136   4.105   7.660  0.0135 -0.3140 -0.5355
   44MOL   C20241568   3.996   4.159   7.616  0.2465  0.0041 -0.1842
   44MOL   C20341569   3.880   4.069   7.678 -0.7234 -1.1566 -0.4169
   44MOL   C20441570   3.861   4.103   0.063 -0.1324 -0.3073 -0.0263
   44MOL   O20541571   3.746   4.048   0.111  0.1287 -0.1296  0.1997
   44MOL   C20641572   3.629   4.112   0.109  0.3920  0.1062  0.0943
   44MOL   O20741573   3.612   4.224   0.065 -0.1156 -0.5401 -0.2227
   44MOL   C20841574   3.510   4.027   0.158  0.2586 -0.1051 -0.0268
   44MOL   C20941575   3.535   4.004   0.313  0.2223  0.5039  0.0793
   44MOL   C21041576   3.422   3.915   0.372 -0.2978  0.1364  0.1390
   44MOL   C21141577   3.463   3.855   0.504 -0.0710  0.3764 -0.5087
   44MOL   C21241578   3.459   3.949   0.624  0.6140 -0.2630  0.3551
   44MOL   O21341579   3.381   4.042   0.631  0.1290 -0.1300 -0.1834
   44MOL   H21441580   4.613   4.815   7.594  0.4194 -0.1923  0.0671
   44MOL   H21541581   4.605   4.737   7.742  0.0534 -1.9566 -0.2195
   44MOL   H21641582   4.631   4.568   7.541  0.1313 -0.3030  1.0098
   44MOL   H21741583   4.471   4.617   7.486 -0.9492  0.6091  0.9074
   44MOL   H21841584   4.516   4.463   7.758 -1.5381  0.5052  1.2440
   44MOL   H21941585   4.389   4.554   7.704 -0.6026  2.1231 -2.2973
   44MOL   H22041586   4.511   4.301   7.586  1.1588  0.9053  0.4717
   44MOL   H22141587   4.387   4.393   7.492 -1.4205 -0.9183  0.8474
   44MOL   H22241588   4.230   4.362   7.687 -0.4172  0.7521 -2.5192
   44MOL   H22341589   4.350   4.263   0.001  0.5796 -0.8373  0.2930
   44MOL   H22441590   4.338   4.112   7.560 -0.4211  0.5288 -2.9493
   44MOL   H22541591   4.218   4.211   7.494  0.9763  0.8779  0.5379
   44MOL   H22641592   4.159   4.112   0.002 -0.5948 -1.3084 -0.3349
   44MOL   H22741593   4.150   4.001   7.632  0.8319 -0.7797  1.4780
   44MOL   H22841594   3.983   4.155   7.508 -0.0789  0.3231 -0.1603
   44MOL   H22941595   3.975   4.264   7.634 -1.6578 -0.1609 -1.3463
   44MOL   H23041596   3.794   4.091   7.615  2.2811  4.5030 -2.9544
   44MOL   H23141597   3.909   3.966   7.663  3.7847  0.0493 -0.6104
   44MOL   H23241598   3.860   4.209   0.087 -1.8617 -0.6925  1.7954
   44MOL   H23341599   3.947   4.059   0.114  0.5726  0.4617 -0.5440
   44MOL   H23441600   3.422   4.087   0.137  1.2587  0.8812 -1.5228
   44MOL   H23541601   3.501   3.936   0.099  0.1084  1.2208 -2.1010
   44MOL   H23641602   3.545   4.103   0.357  5.1309  0.5295 -0.8188
   44MOL   H23741603   3.625   3.946   0.329  1.3771  1.8772 -1.2896
   44MOL   H23841604   3.404   3.834   0.301 -0.1748  1.8767 -1.9358
   44MOL   H23941605   3.324   3.963   0.384 -1.1421 -1.3198 -0.7538
   44MOL   H24041606   3.563   3.810   0.504 -0.3548 -0.2654 -1.7808
   44MOL   H24141607   3.402   3.766   0.520 -0.3804  0.7821  0.5591
   44MOL   O24241608   3.542   3.913   0.716  0.0947 -0.3940  0.4388
   44MOL   C24341609   3.581   4.004   0.814  0.0396  0.1303  0.1165
   44MOL   C24441610   3.633   3.929   0.937  0.2843  0.2441  0.6338
   44MOL   C24541611   3.685   4.025   1.047 -0.4596 -0.3834 -0.0515
   44MOL   C24641612   3.732   3.952   1.176 -0.4519  0.2557 -0.7666
   44MOL   C24741613   3.814   4.041   1.268  0.2367 -0.9577 -0.0579
   44MOL   C24841614   3.857   3.976   1.406 -0.2779 -0.2191 -0.2661
   44MOL   C24941615   3.746   3.967   1.513  0.0572  0.2368  0.5894
   44MOL   C25041616   3.796   3.884   1.635 -0.1900  0.3016 -0.1692
   44MOL   C25141617   3.691   3.888   1.746  0.0670  0.2482 -0.6907
   44MOL   C25241618   3.714   3.775   1.859  0.1732  0.0350  0.2109
   44MOL   O25341619   3.724   3.641   1.821 -0.1032 -0.2226  0.2171
   44MOL   C25441620   3.607   3.583   1.797  0.1289  0.6324  0.1919
   44MOL   O25541621   3.496   3.632   1.809 -0.3267 -0.2622 -0.5407
   44MOL   C25641622   3.621   3.438   1.750 -0.5774  0.4889  0.1153
   44MOL   C25741623   3.608   3.335   1.863 -0.3329  0.0731 -0.2825
   44MOL   C25841624   3.460   3.317   1.912  0.5145  0.5988  0.1480
   44MOL   C25941625   3.434   3.219   2.017 -0.2659 -0.2029 -0.4498
   44MOL   C26041626   3.295   3.242   2.078  0.1529  0.0336  0.1414
   44MOL   O26141627   3.197   3.205   2.016 -0.2806  0.0215 -0.2185
   44MOL   H26241628   3.654   4.072   0.769 -0.7301  0.8217 -0.1090
   44MOL   H26341629   3.501   4.073   0.844  0.0435 -0.7618  2.2090
   44MOL   H26441630   3.693   3.842   0.910 -2.0374 -1.3065  0.2841
   44MOL   H26541631   3.545   3.884   0.982  0.3047  0.3851  0.8126
   44MOL   H26641632   3.766   4.088   1.011 -0.1838  0.5655  2.1658
   44MOL   H26741633   3.605   4.090   1.082  0.3105  1.1895 -1.1744
   44MOL   H26841634   3.787   3.862   1.147 -0.8602  0.3619 -1.8939
   44MOL   H26941635   3.654   3.902   1.233  1.9228 -2.1403  0.4965
   44MOL   H27041636   3.755   4.133   1.275  0.8793 -0.5943  0.4888
   44MOL   H27141637   3.903   4.065   1.211  0.5417 -0.4546  0.6255
   44MOL   H27241638   3.947   4.025   1.445 -0.6078 -0.6566  1.0664
   44MOL   H27341639   3.897   3.877   1.384 -2.0619 -1.4959  1.9586
   44MOL   H27441640   3.657   3.928   1.465  1.1371 -1.3972 -0.1229
   44MOL   H27541641   3.709   4.067   1.536 -2.7578 -0.7265  0.3413
   44MOL   H27641642   3.892   3.914   1.677 -0.4335  0.0519  0.5824
   44MOL   H27741643   3.811   3.782   1.602 -1.2143 -0.2726  1.0764
   44MOL   H27841644   3.697   3.985   1.797  3.6119 -0.1135 -0.2956
   44MOL   H27941645   3.591   3.871   1.706 -0.4179  2.8627 -0.7388
   44MOL   H28041646   3.638   3.784   1.937  0.8989  0.3233  0.8871
   44MOL   H28141647   3.807   3.803   1.908 -0.4358 -0.5349  1.7313
   44MOL   H28241648   3.525   3.420   1.700 -0.4525  1.4324 -0.4672
   44MOL   H28341649   3.700   3.422   1.677 -0.7690  0.8210 -0.1663
   44MOL   H28441650   3.674   3.357   1.947  0.4629 -0.1876 -0.8362
   44MOL   H28541651   3.651   3.243   1.825 -1.8191 -0.6985 -0.1612
   44MOL   H28641652   3.397   3.284   1.830  0.7398 -1.9923  0.9802
   44MOL   H28741653   3.420   3.409   1.954 -0.1675 -0.0164  0.8678
   44MOL   H28841654   3.515   3.229   2.089 -1.1082 -0.4734  0.5469
   44MOL   H28941655   3.428   3.117   1.978 -2.0893 -0.3750  0.1863
   44MOL   O29041656   3.289   3.316   2.189  0.0188 -0.3311  0.0947
   44MOL   C29141657   3.169   3.347   2.255  0.0167  0.2369 -0.7028
   44MOL   C29241658   3.181   3.450   2.371  0.2427  0.4661 -0.4686
   44MOL   C29341659   3.275   3.402   2.480 -0.0021 -0.0388  0.0559
   44MOL   C29441660   3.291   3.511   2.590 -0.4672  0.2107 -0.3305
   44MOL   C29541661   3.365   3.450   2.709 -0.4694  0.2009 -0.2751
   44MOL   C29641662   3.519   3.462   2.707  0.4122  0.6602  0.0458
   44MOL   C29741663   3.577   3.601   2.718  0.7626 -0.4655 -0.0613
   44MOL   C29841664   3.724   3.595   2.755  0.6858  0.2538 -0.0701
   44MOL   C29941665   3.789   3.729   2.775  0.4701  0.3215  0.1623
   44MOL   C30041666   3.908   3.717   2.867 -0.5890 -1.0250 -1.4005
   44MOL   O30141667   3.983   3.836   2.876 -0.2673 -0.1017 -0.7367
   44MOL   C30241668   3.946   3.947   2.940  0.0653  0.6081 -0.3501
   44MOL   O30341669   3.842   3.963   3.002  0.2569 -0.4650 -0.1271
   44MOL   C30441670   4.039   4.064   2.899  0.1797 -0.0408  0.3584
   44MOL   C30541671   4.019   4.104   2.753  0.2474  0.1801  0.1952
   44MOL   C30641672   3.876   4.099   2.689  0.2098 -0.0060  0.0680
   44MOL   C30741673   3.768   4.197   2.743 -0.4080  0.8258  0.0579
   44MOL   C30841674   3.776   4.342   2.691  0.1809 -0.3958  0.2159
   44MOL   O30941675   3.875   4.379   2.630 -0.1388  0.1985 -0.0446
   44MOL   H31041676   3.090   3.373   2.184  1.6075 -1.6222 -3.2357
   44MOL   H31141677   3.155   3.245   2.292  2.3167 -0.2687 -1.1535
   44MOL   H31241678   3.085   3.471   2.417  0.7884  1.8782  0.0683
   44MOL   H31341679   3.234   3.542   2.345  0.0180  0.9121  0.6259
   44MOL   H31441680   3.240   3.307   2.521  1.1654 -0.5038 -0.0083
   44MOL   H31541681   3.370   3.372   2.436  0.5009 -0.4156  1.3768
   44MOL   H31641682   3.199   3.546   2.636  1.5071  1.7598  2.6119
   44MOL   H31741683   3.335   3.599   2.544 -1.2680 -0.9993 -3.5585
   44MOL   H31841684   3.334   3.347   2.727 -2.2229  0.4145 -1.9817
   44MOL   H31941685   3.348   3.509   2.799  0.0068  0.0535 -0.0843
   44MOL   H32041686   3.566   3.406   2.626  1.2751  0.5657  0.6055
   44MOL   H32141687   3.557   3.413   2.797  1.2453  1.2959  0.0444
   44MOL   H32241688   3.523   3.656   2.796  1.0900 -1.9925  1.2683
   44MOL   H32341689   3.570   3.653   2.622  2.8359  1.5692  0.8352
   44MOL   H32441690   3.783   3.537   2.684 -0.2960  0.5799 -1.1705
   44MOL   H32541691   3.739   3.546   2.851 -0.2751 -0.6903 -0.3908
   44MOL   H32641692   3.823   3.771   2.681  2.8553  0.1587  0.9228
   44MOL   H32741693   3.718   3.801   2.814  0.5080 -0.1745  1.1609
   44MOL   H32841694   3.965   3.629   2.841  0.0512 -0.7082 -1.0855
   44MOL   H32941695   3.867   3.693   2.966  0.4380  0.0960 -0.6902
   44MOL   H33041696   4.013   4.149   2.962  1.6147  1.1548 -0.6405
   44MOL   H33141697   4.142   4.032   2.914  0.5624  1.6029  1.3825
   44MOL   H33241698   4.084   4.051   2.684 -0.4409  2.0099 -1.8862
   44MOL   H33341699   4.050   4.208   2.751 -0.6173  0.4332 -0.6024
   44MOL   H33441700   3.823   4.004   2.682 -1.7813  1.0997 -0.3239
   44MOL   H33541701   3.872   4.142   2.589 -1.3946 -0.4062 -0.0599
   44MOL   H33641702   3.763   4.189   2.851  1.8773 -1.1438  0.0657
   44MOL   H33741703   3.672   4.164   2.704  0.0418 -0.9452  0.4277
   44MOL   O33841704   3.673   4.414   2.730  0.5554  0.1584 -0.2815
   44MOL   C33941705   3.667   4.555   2.719  0.1783  0.3098  0.0154
   44MOL   C34041706   3.558   4.607   2.812 -0.4530 -0.5592 -0.3838
   44MOL   C34141707   3.603   4.607   2.954 -0.2048  0.5468  0.3442
   44MOL   C34241708   3.504   4.655   3.064 -0.0487  0.1422  0.3909
   44MOL   C34341709   3.373   4.574   3.063 -0.3159  0.4920 -0.6775
   44MOL   C34441710   3.291   4.618   3.189 -0.0678 -0.2101 -0.0274
   44MOL   C34541711   3.212   4.747   3.160  0.4363 -0.4464 -0.1129
   44MOL   C34641712   3.131   4.801   3.286  0.1853  0.3026  0.3226
   44MOL   C34741713   2.981   4.816   3.259  0.3010  0.2439 -0.3342
   44MOL   C34841714   2.902   4.688   3.225 -0.1088  0.0350 -0.0308
   44MOL   O34941715   2.765   4.722   3.221 -0.3296  0.5046 -0.3505
   44MOL   C35041716   2.678   4.631   3.186  0.4707  0.4316 -0.0108
   44MOL   O35141717   2.697   4.507   3.192  0.7701  0.0965  0.1044
   44MOL   C35241718   2.538   4.691   3.151  0.4337  0.0586  0.1902
   44MOL   C35341719   2.543   4.818   3.058  0.5595 -0.4742  0.3403
   44MOL   C35441720   2.582   4.786   2.912  0.1501  0.5187 -0.7088
   44MOL   C35541721   2.561   4.898   2.803  0.7648 -1.0634  0.1509
   44MOL   C35641722   2.654   5.021   2.818 -0.4422 -0.7933 -0.1642
   44MOL   O35741723   2.646   5.120   2.737  0.0208  0.2704 -0.1704
   44MOL   H35841724   3.755   4.617   2.732 -0.5442  1.7192 -1.6508
   44MOL   H35941725   3.633   4.573   2.617  1.5894  0.4002 -0.4445
   44MOL   H36041726   3.455   4.573   2.797 -1.3150  2.0779 -0.6533
   44MOL   H36141727   3.560   4.712   2.783  1.8971 -1.4403 -3.6073
   44MOL   H36241728   3.645   4.507   2.970 -1.5742 -0.1826 -0.5197
   44MOL   H36341729   3.683   4.678   2.975 -0.1228  0.0749  1.6769
   44MOL   H36441730   3.483   4.756   3.030  0.6461  0.0012 -0.4619
   44MOL   H36541731   3.556   4.647   3.159 -1.6100 -0.6033  1.2053
   44MOL   H36641732   3.406   4.471   3.076  0.2138  0.8287  0.8985
   44MOL   H36741733   3.307   4.589   2.978 -1.1985  2.8906  0.3992
   44MOL   H36841734   3.364   4.636   3.268  1.4022  1.5540 -1.7070
   44MOL   H36941735   3.213   4.549   3.221  0.7968 -0.9832  0.4264
   44MOL   H37041736   3.147   4.715   3.078 -0.3470 -0.2535  0.4278
   44MOL   H37141737   3.274   4.830   3.125  3.0439 -1.3254  2.2398
   44MOL   H37241738   3.164   4.892   3.337  1.9123  0.4325 -0.9944
   44MOL   H37341739   3.133   4.727   3.366 -0.5966  2.1386  2.1045
   44MOL   H37441740   2.932   4.849   3.350  0.7622  1.3371 -0.4834
   44MOL   H37541741   2.965   4.896   3.187  0.8330 -1.0264 -1.8956
   44MOL   H37641742   2.929   4.605   3.290  1.8510  0.8975  0.3029
   44MOL   H37741743   2.927   4.655   3.124 -2.5792 -0.6026 -0.4587
   44MOL   H37841744   2.474   4.616   3.103 -1.3191  1.5200  0.1836
   44MOL   H37941745   2.491   4.707   3.248  1.2820 -3.2267  1.2341
   44MOL   H38041746   2.600   4.898   3.105  1.7445 -0.0854 -1.6771
   44MOL   H38141747   2.439   4.853   3.060  1.2581  1.7600 -0.8319
   44MOL   H38241748   2.527   4.700   2.873  1.0385  0.4729 -1.9176
   44MOL   H38341749   2.686   4.755   2.920 -0.9236 -2.8349  1.0952
   44MOL   H38441750   2.462   4.942   2.791  1.2187  0.3235  1.3061
   44MOL   H38541751   2.577   4.846   2.709 -0.1087 -0.1582 -0.5078
   44MOL   O38641752   2.738   5.017   2.923 -0.4370  0.3719 -0.2793
   44MOL   C38741753   2.832   5.115   2.957  0.0967  0.0192  0.0248
   44MOL   C38841754   2.952   5.109   2.869  0.5574 -0.2169  0.2949
   44MOL   C38941755   3.027   4.976   2.877  0.2683  0.0589 -0.1239
   44MOL   C39041756   3.133   4.947   2.778  0.3932  0.3469  0.2080
   44MOL   C39141757   3.185   4.803   2.775 -0.0598 -0.5375 -0.2536
   44MOL   C39241758   3.097   4.692   2.706 -0.0435  0.1651  0.9663
   44MOL   C39341759   3.145   4.543   2.722 -0.2553 -0.1058  0.0344
   44MOL   C39441760   3.082   4.447   2.620 -0.5339  0.4887 -0.2878
   44MOL   C39541761   3.138   4.297   2.601  0.1094 -0.3434  0.1935
   44MOL   C39641762   3.272   4.305   2.522 -0.1702 -0.1574 -0.7398
   44MOL   O39741763   3.325   4.179   2.520  0.0053  0.4578 -0.3574
   44MOL   C39841764   3.392   4.125   2.630  0.7335 -0.6084  0.1143
   44MOL   O39941765   3.428   4.201   2.723  0.6436 -0.0398 -0.3639
   44MOL   C40041766   3.416   3.975   2.627 -0.2731 -0.2752 -0.8857
   44MOL   C40141767   3.285   3.886   2.611 -0.3754  0.5735  0.0981
   44MOL   C40241768   3.169   3.918   2.713 -0.1443 -0.5344  0.1576
   44MOL   C40341769   3.051   3.818   2.710  0.5673  0.3236 -0.0600
   44MOL   C40441770   2.975   3.813   2.578  0.4994 -0.7769  0.3001
   44MOL   O40541771   2.984   3.719   2.500 -0.4944  0.1952  0.6872
   44MOL   H40641772   2.796   5.217   2.955 -0.8580 -0.3025  0.5595
   44MOL   H40741773   2.862   5.101   3.061 -2.2156  0.6582  0.8109
   44MOL   H40841774   3.017   5.194   2.889 -1.0567  1.2931 -0.6595
   44MOL   H40941775   2.919   5.119   2.765 -0.5605  3.4537  0.9300
   44MOL   H41041776   3.067   4.965   2.978  1.3377 -2.5335 -0.7881
   44MOL   H41141777   2.950   4.900   2.874  0.3977 -0.0474 -1.1144
   44MOL   H41241778   3.217   5.015   2.794 -0.0941  1.7611 -2.8793
   44MOL   H41341779   3.098   4.965   2.677  1.0201 -0.8677 -0.2280
   44MOL   H41441780   3.196   4.790   2.882  2.3787 -0.4469 -0.4523
   44MOL   H41541781   3.288   4.800   2.739  0.2050 -1.1192  0.5391
   44MOL   H41641782   3.086   4.720   2.602 -1.3778  1.1068  1.3559
   44MOL   H41741783   3.002   4.690   2.759 -0.0287 -0.6981  0.9751
   44MOL   H41841784   3.142   4.512   2.826  1.1097  1.8279  0.6646
   44MOL   H41941785   3.249   4.535   2.689 -0.3829 -0.1296 -0.3695
   44MOL   H42041786   3.080   4.483   2.517  1.4863  1.2902 -0.0640
   44MOL   H42141787   2.974   4.441   2.638 -0.8928  1.3182 -2.0716
   44MOL   H42241788   3.144   4.244   2.695  0.1101 -0.6478  0.0224
   44MOL   H42341789   3.069   4.239   2.540 -0.7109  0.3139  0.4852
   44MOL   H42441790   3.332   4.378   2.577 -1.8830  1.8326 -1.4681
   44MOL   H42541791   3.267   4.348   2.422 -1.2470 -1.3381 -1.2085
   44MOL   H42641792   3.479   3.946   2.543  0.8805  1.0522 -0.4932
   44MOL   H42741793   3.461   3.945   2.722 -0.5802  0.0579 -0.6313
   44MOL   H42841794   3.319   3.783   2.612  1.8872  1.2712 -0.6744
   44MOL   H42941795   3.254   3.905   2.508  0.6520  0.7216 -0.1945
   44MOL   H43041796   3.140   4.018   2.682 -1.4343 -0.7593  0.6085
   44MOL   H43141797   3.214   3.924   2.812  0.8991 -0.4738 -0.3076
   44MOL   H43241798   2.977   3.853   2.782  0.4968  0.6434 -0.2891
   44MOL   H43341799   3.073   3.715   2.737  1.1039  0.5023  0.1969
   44MOL   O43441800   2.904   3.917   2.560 -0.2901 -0.0798  0.0613
   44MOL   C43541801   2.826   3.931   2.445  0.5790 -0.0985  0.3095
   44MOL   C43641802   2.846   4.077   2.394 -0.0597  0.0705  0.2386
   44MOL   C43741803   2.755   4.164   2.481  0.4338  0.1209 -0.0079
   44MOL   C43841804   2.751   4.316   2.455 -0.6579  0.0908 -0.0479
   44MOL   C43941805   2.671   4.388   2.558 -0.0290 -0.5321  0.4046
   44MOL   C44041806   2.653   4.540   2.525  0.5478 -0.3634  0.3965
   44MOL   C44141807   2.514   4.582   2.482  0.5190  0.2218  0.0793
   44MOL   C44241808   2.415   4.606   2.595 -0.1646 -0.0043 -0.5494
   44MOL   C44341809   2.276   4.650   2.546 -0.4924  0.1519  0.4004
   44MOL   C44441810   2.169   4.667   2.656  0.0515 -0.7321 -0.4361
   44MOL   O44541811   2.061   4.736   2.602  0.4494 -0.2192 -0.2234
   44MOL   C44641812   1.958   4.776   2.681 -0.0922 -0.7877  0.9872
   44MOL   O44741813   1.951   4.762   2.799  0.3137 -0.2842  0.1086
   44MOL   C44841814   1.866   4.875   2.608  0.1770  0.0854  0.0278
   44MOL   C44941815   1.775   4.813   2.500 -0.1772 -0.1503 -0.2746
   44MOL   C45041816   1.710   4.924   2.411  0.2923  0.3776 -1.0012
   44MOL   C45141817   1.802   5.012   2.340 -0.1108 -0.8832 -0.8899
   44MOL   C45241818   1.740   5.109   2.236  0.3314  0.2341 -0.9317
   44MOL   O45341819   1.618   5.103   2.212  0.2483 -0.6753  0.6975
   44MOL   H45441820   2.838   3.863   2.360  1.8807  2.2678 -1.4693
   44MOL   H45541821   2.723   3.915   2.475  0.0221  0.7649 -1.0637
   44MOL   H45641822   2.812   4.086   2.291 -0.6959 -0.0399  0.4369
   44MOL   H45741823   2.952   4.100   2.408 -0.3723  0.9836  1.1515
   44MOL   H45841824   2.654   4.133   2.456  1.4929 -2.0285 -1.6952
   44MOL   H45941825   2.776   4.145   2.587 -0.4437 -0.1048  0.1259
   44MOL   H46041826   2.717   4.329   2.352  2.0661  3.1549 -0.6587
   44MOL   H46141827   2.854   4.350   2.454 -0.6108 -0.0486 -1.4637
   44MOL   H46241828   2.723   4.371   2.652  2.9169  0.7045 -0.9545
   44MOL   H46341829   2.572   4.347   2.580  0.3314 -0.2414  2.6532
   44MOL   H46441830   2.712   4.573   2.439  0.3011  0.2359  0.4484
   44MOL   H46541831   2.694   4.603   2.604 -2.5207 -0.0191  1.7778
   44MOL   H46641832   2.475   4.508   2.412  0.8932 -1.4995  1.6478
   44MOL   H46741833   2.515   4.677   2.428 -0.2183  0.6388  0.7881
   44MOL   H46841834   2.457   4.679   2.664 -0.3679  0.8043 -1.2574
   44MOL   H46941835   2.411   4.511   2.648 -3.0554  0.0717 -0.5465
   44MOL   H47041836   2.295   4.745   2.495 -3.5259  1.3367  1.3532
   44MOL   H47141837   2.242   4.581   2.469  0.9930 -1.6357  1.3068
   44MOL   H47241838   2.217   4.730   2.731 -1.9679 -0.7709  0.9233
   44MOL   H47341839   2.140   4.574   2.706 -2.5027  0.3132  0.1477
   44MOL   H47441840   1.804   4.927   2.680 -0.6625  0.5129 -0.9931
   44MOL   H47541841   1.928   4.952   2.562  0.6371 -0.6522 -0.6117
   44MOL   H47641842   1.709   4.744   2.553 -0.3198  0.9753  1.0265
   44MOL   H47741843   1.826   4.739   2.438 -2.7118 -0.9850 -1.4195
   44MOL   H47841844   1.652   4.984   2.482  1.1747  0.2062 -0.1157
   44MOL   H47941845   1.639   4.879   2.342 -0.7200  0.0450  0.2183
   44MOL   H48041846   1.879   4.957   2.285 -0.6915 -0.8366 -1.7577
   44MOL   H48141847   1.857   5.071   2.414  0.3168 -0.2114 -1.7206
   44MOL   O48241848   1.826   5.195   2.184  0.5706 -0.6469  0.4177
   44MOL   C48341849   1.789   5.252   2.058  0.3646 -0.3101 -0.0079
   44MOL   C48441850   1.815   5.174   1.926  0.3077  0.0847  0.9655
   44MOL   C48541851   1.955   5.188   1.875 -0.4588  0.2876  0.0997
   44MOL   C48641852   1.975   5.115   1.738  0.4187  0.3222  0.1171
   44MOL   C48741853   1.984   4.964   1.734  0.5170  0.1128 -0.2385
   44MOL   C48841854   2.085   4.891   1.815 -0.0597 -0.7940  0.1190
   44MOL   C48941855   2.078   4.736   1.806 -0.9058  0.4642 -0.1681
   44MOL   C49041856   2.196   4.670   1.881  0.3139  0.5832 -0.0610
   44MOL   C49141857   2.202   4.514   1.870  0.3852 -0.0956 -0.2115
   44MOL   C49241858   2.306   4.450   1.966 -0.1289 -0.2927  0.5554
   44MOL   O49341859   2.441   4.499   1.942 -0.4121 -0.1220  0.3482
   44MOL   C49441860   2.537   4.475   2.031  0.0961 -0.0352  0.4622
   44MOL   O49541861   2.533   4.424   2.145  0.1766  0.0643  0.0226
   44MOL   C49641862   2.672   4.527   1.977 -0.9062  0.4411 -0.7662
   44MOL   C49741863   2.699   4.681   1.982 -0.2225  0.4663 -0.0026
   44MOL   C49841864   2.698   4.728   2.127  0.2701  0.3031  0.2266
   44MOL   C49941865   2.691   4.878   2.140 -0.1856  0.2282  0.3355
   44MOL   C50041866   2.722   4.911   2.282  0.2821 -1.2813  0.0995
   44MOL   O50141867   2.665   4.862   2.379  0.4879  0.3330  0.0032
   44MOL   H50241868   1.682   5.270   2.059  0.4188 -0.0335  1.4922
   44MOL   H50341869   1.858   5.336   2.044 -1.0166  0.7666 -0.3717
   44MOL   H50441870   1.744   5.223   1.859 -0.2446  0.2529  1.6687
   44MOL   H50541871   1.786   5.069   1.919 -1.4919  0.6354 -0.3936
   44MOL   H50641872   1.969   5.296   1.860 -1.0022  0.3422 -0.0065
   44MOL   H50741873   2.032   5.171   1.950 -1.0709  0.3659  0.7527
   44MOL   H50841874   2.060   5.165   1.690 -0.0021 -1.9915 -3.2361
   44MOL   H50941875   1.899   5.154   1.670  1.5173 -1.2594 -2.0916
   44MOL   H51041876   1.993   4.927   1.632 -0.3661 -0.1064 -0.2459
   44MOL   H51141877   1.887   4.919   1.757  0.6364  1.0872  2.3314
   44MOL   H51241878   2.096   4.925   1.918 -0.0066 -2.7299  0.7763
   44MOL   H51341879   2.175   4.914   1.759 -0.1387 -1.9395 -0.4957
   44MOL   H51441880   2.063   4.701   1.704 -0.2244  2.9042 -1.1403
   44MOL   H51541881   1.982   4.708   1.850 -0.5152 -2.2553 -0.9186
   44MOL   H51641882   2.202   4.703   1.985  2.0637 -0.3742  0.1651
   44MOL   H51741883   2.285   4.706   1.829  0.1769  2.5235  0.9832
   44MOL   H51841884   2.106   4.472   1.898  0.8785 -1.4260 -0.5175
   44MOL   H51941885   2.219   4.491   1.765  3.1542 -0.9351  0.3686
   44MOL   H52041886   2.301   4.343   1.944  1.7117 -0.3111  0.0764
   44MOL   H52141887   2.272   4.468   2.068  0.0330 -3.4863  1.2432
   44MOL   H52241888   2.754   4.495   2.041  0.2491  1.5564 -1.6567
   44MOL   H52341889   2.684   4.517   1.869  1.9264 -1.3052 -0.3294
   44MOL   H52441890   2.632   4.744   1.923 -0.0886 -0.0184 -0.6757
   44MOL   H52541891   2.799   4.699   1.941 -0.7484 -1.8452 -2.4060
   44MOL   H52641892   2.789   4.690   2.173 -0.6311 -0.9763  0.9547
   44MOL   H52741893   2.615   4.689   2.185  1.3994 -0.7693  1.1520
   44MOL   H52841894   2.596   4.917   2.102  0.4412  0.4058 -1.0454
   44MOL   H52941895   2.764   4.924   2.073 -0.8035 -1.6818 -1.6915
   44MOL   O53041896   2.816   5.007   2.290 -0.0047 -0.5161 -0.6014
   44MOL   C53141897   2.866   5.037   2.422  0.1162  0.3622  0.4928
   44MOL   C53241898   2.925   5.175   2.420 -0.7620  0.5702 -0.0928
   44MOL   C53341899   2.830   5.290   2.385 -0.9803 -0.8841 -0.7514
   44MOL   C53441900   2.719   5.309   2.494 -0.7371 -0.2549 -0.1202
   44MOL   C53541901   2.623   5.415   2.465  0.1977 -0.1739  0.5790
   44MOL   C53641902   2.525   5.430   2.585 -0.5193  0.2651 -0.0273
   44MOL   C53741903   2.583   5.513   2.706 -0.0803  0.3120  0.2757
   44MOL   C53841904   2.467   5.581   2.784 -0.1729  0.9047  0.2241
   44MOL   C53941905   2.503   5.656   2.907 -0.1595  0.3576  0.3294
   44MOL   C54041906   2.382   5.736   2.962  0.3263  0.0325  0.1671
   44MOL   O54141907   2.412   5.844   3.049 -0.0180 -0.0597  0.3349
   44MOL   C54241908   2.440   5.821   3.176 -0.5076 -0.6139 -0.0869
   44MOL   O54341909   2.418   5.711   3.230  0.4817 -0.0663  0.3837
   44MOL   C54441910   2.487   5.941   3.252  0.3921 -0.1070 -0.1906
   44MOL   C54541911   2.639   5.941   3.229  0.8724  0.4062  0.2003
   44MOL   C54641912   2.685   5.989   3.092  0.4005  0.0980  0.0656
   44MOL   C54741913   2.754   6.120   3.099 -0.0079 -0.7462  0.6177
   44MOL   C54841914   2.661   6.241   3.098 -0.1522  0.3620  1.1550
   44MOL   O54941915   2.614   6.283   2.993  0.6012 -0.0622 -0.3577
   44MOL   H55041916   2.785   5.037   2.494 -0.1403  1.5526  0.2057
   44MOL   H55141917   2.946   4.971   2.456 -2.3337 -2.1146  1.6443
   44MOL   H55241918   3.007   5.172   2.347 -1.7421  0.7893 -1.2111
   44MOL   H55341919   2.969   5.200   2.516 -3.1409  3.8155  0.2316
   44MOL   H55441920   2.885   5.385   2.386  1.4187 -2.2459  0.1057
   44MOL   H55541921   2.789   5.271   2.286 -1.3794 -2.5913 -0.2705
   44MOL   H55641922   2.774   5.340   2.583 -2.1221 -1.2830  1.1131
   44MOL   H55741923   2.667   5.220   2.529  0.4179 -1.9315 -2.5509
   44MOL   H55841924   2.566   5.378   2.380  1.0154  1.1387 -0.5518
   44MOL   H55941925   2.668   5.512   2.443 -1.0423  0.4131  0.5862
   44MOL   H56041926   2.478   5.334   2.607 -1.4901 -0.1316 -3.4643
   44MOL   H56141927   2.437   5.482   2.549 -0.2598  1.0928  0.5181
   44MOL   H56241928   2.648   5.595   2.677 -0.0571 -0.1499 -0.9815
   44MOL   H56341929   2.633   5.447   2.776 -2.4397 -1.6249  0.2246
   44MOL   H56441930   2.393   5.505   2.809 -0.4373  0.9447 -0.4492
   44MOL   H56541931   2.423   5.656   2.718 -2.8374 -1.6589 -0.9989
   44MOL   H56641932   2.544   5.589   2.983  1.0926 -1.5124 -1.9259
   44MOL   H56741933   2.577   5.733   2.883  0.5418 -1.1243 -2.4990
   44MOL   H56841934   2.314   5.671   3.018  0.6899 -1.0850 -0.6684
   44MOL   H56941935   2.332   5.776   2.874 -2.7462  2.0293  2.7197
   44MOL   H57041936   2.446   6.032   3.207 -2.4949 -1.3008 -0.1011
   44MOL   H57141937   2.471   5.937   3.360  1.1531 -0.1330 -0.0786
   44MOL   H57241938   2.674   5.841   3.255  0.6189 -0.0873 -1.3284
   44MOL   H57341939   2.681   6.000   3.310  1.0464 -1.2251  1.3285
   44MOL   H57441940   2.602   5.983   3.021  1.8946 -0.5610 -1.6444
   44MOL   H57541941   2.757   5.915   3.057 -1.7622 -2.2549  0.4413
   44MOL   H57641942   2.818   6.138   3.012 -0.0954  3.1690  1.2720
   44MOL   H57741943   2.803   6.132   3.195 -2.5776 -0.7396  1.9794
   44MOL   O57841944   2.633   6.282   3.223 -0.0028  0.1562  0.0519
   44MOL   C57941945   2.575   6.410   3.236 -0.6579  0.0682 -0.0590
   44MOL   C58041946   2.691   6.508   3.263 -0.5182 -0.7902  0.7382
   44MOL   C58141947   2.795   6.470   3.372  0.3690 -0.2286 -0.0902
   44MOL   C58241948   2.893   6.578   3.408  0.6693  0.9198 -0.7865
   44MOL   C58341949   3.009   6.513   3.480  0.6101 -0.3791  0.1793
   44MOL   C58441950   3.103   6.628   3.530  0.5395 -0.0505  0.1077
   44MOL   C58541951   3.214   6.584   3.629  0.0742  0.1890 -0.0729
   44MOL   C58641952   3.158   6.547   3.762 -0.2249 -0.3056  0.1079
   44MOL   C58741953   3.265   6.511   3.872 -0.0015  0.7359  0.2270
   44MOL   C58841954   3.211   6.521   4.015 -0.4090  0.5796  0.2220
   44MOL   O58941955   3.089   6.451   4.026  0.0250 -0.4447 -0.2290
   44MOL   C59041956   3.050   6.388   4.137 -0.5406 -0.1866 -0.8730
   44MOL   O59141957   3.099   6.411   4.244 -0.2662 -0.1658 -0.7737
   44MOL   C59241958   2.932   6.300   4.114 -0.4968  0.0578 -0.2012
   44MOL   C59341959   2.981   6.154   4.093  0.8300 -0.3969 -0.1704
   44MOL   C59441960   3.051   6.137   3.956  0.8405 -1.0159  0.0026
   44MOL   C59541961   3.158   6.027   3.960 -0.1426  0.6883  0.0516
   44MOL   C59641962   3.284   6.059   4.047 -0.3120  0.1996  0.0700
   44MOL   O59741963   3.303   6.023   4.161 -0.7662  0.2180 -0.3589
   44MOL   H59841964   2.530   6.452   3.146  1.3977 -0.1126 -1.1898
   44MOL   H59941965   2.509   6.416   3.323 -1.9540  0.0906 -1.0374
   44MOL   H60041966   2.640   6.587   3.319 -1.4336 -0.2701 -0.7791
   44MOL   H60141967   2.741   6.539   3.172 -1.8003 -0.3709  0.1570
   44MOL   H60241968   2.740   6.442   3.462  1.6739  0.5564  0.9670
   44MOL   H60341969   2.852   6.389   3.327  1.9621  2.4808 -3.1905
   44MOL   H60441970   2.838   6.653   3.465  0.3763 -0.6375  1.0197
   44MOL   H60541971   2.932   6.622   3.316  0.5685  1.7346 -0.4490
   44MOL   H60641972   3.074   6.454   3.416  0.4311 -1.5610  1.0821
   44MOL   H60741973   2.971   6.444   3.554  3.5034 -2.5253 -0.2635
   44MOL   H60841974   3.051   6.716   3.568 -0.4382  0.1602 -1.6612
   44MOL   H60941975   3.158   6.653   3.439  1.6504  1.3989  1.1699
   44MOL   H61041976   3.290   6.662   3.641  1.6459 -1.4353  0.6296
   44MOL   H61141977   3.258   6.495   3.584  0.3418  0.9450 -1.3617
   44MOL   H61241978   3.092   6.460   3.758 -0.6305 -0.1996  3.2706
   44MOL   H61341979   3.100   6.632   3.796  2.6482  2.3615 -1.4236
   44MOL   H61441980   3.304   6.412   3.848 -0.0915  1.3043 -2.5122
   44MOL   H61541981   3.350   6.577   3.854 -0.1674  0.8437 -0.2004
   44MOL   H61641982   3.205   6.629   4.028  0.8337  0.9438 -1.9723
   44MOL   H61741983   3.287   6.480   4.081  0.6588  0.4552 -1.0648
   44MOL   H61841984   2.868   6.311   4.201 -1.3011  2.4451 -1.0724
   44MOL   H61941985   2.878   6.331   4.024  1.1401  0.4936 -1.0586
   44MOL   H62041986   2.891   6.091   4.096 -0.6017  1.5267 -1.6252
   44MOL   H62141987   3.037   6.124   4.181  2.7747  1.4101 -0.7591
   44MOL   H62241988   3.092   6.230   3.916 -0.2788 -0.7217 -0.4914
   44MOL   H62341989   2.962   6.112   3.898  0.2692  0.5278  0.2032
   44MOL   H62441990   3.196   5.996   3.863 -2.7836  0.4270 -0.9523
   44MOL   H62541991   3.116   5.937   4.006 -0.3683  0.7066 -0.1174
   44MOL   O62641992   3.361   6.154   3.986 -0.0040  0.1687 -0.3634
   44MOL   C62741993   3.482   6.196   4.047 -0.1772 -0.2150  0.2960
   44MOL   C62841994   3.605   6.173   3.945 -0.0824  0.4999 -0.5086
   44MOL   C62941995   3.743   6.204   3.994 -0.0229  0.4681  0.9041
   44MOL   C63041996   3.851   6.187   3.887 -0.4631  0.7543 -0.3110
   44MOL   C63141997   3.979   6.261   3.931 -0.0967 -0.7250  0.1178
   44MOL   C63241998   4.091   6.248   3.830  0.1304  0.0904  0.5313
   44MOL   C63341999   4.138   6.101   3.824  0.4259 -0.6063  0.1058
   44MOL   C63442000   4.251   6.065   3.727  0.9701  0.0917  0.4435
   44MOL   C63542001   4.212   6.081   3.578 -0.5322 -0.5432  0.2618
   44MOL   C63642002   4.327   6.050   3.489  0.3860  0.0990 -0.4123
   44MOL   O63742003   4.307   6.111   3.360  0.0398 -0.0203 -0.2312
   44MOL   C63842004   4.391   6.073   3.259 -0.4888  0.2619  0.5367
   44MOL   O63942005   4.481   5.988   3.262  0.5051  0.1184 -0.0691
   44MOL   C64042006   4.357   6.140   3.122 -0.2299 -0.1394 -0.5389
   44MOL   C64142007   4.243   6.083   3.044  0.2320  0.0079 -0.4119
   44MOL   C64242008   4.108   6.116   3.107 -0.0328 -0.5510  0.9290
   44MOL   C64342009   3.996   6.050   3.022 -0.5626 -0.8729 -0.0860
   44MOL   C64442010   3.861   6.101   3.066  0.0901  0.4321  0.2995
   44MOL   O64542011   3.772   6.020   3.097 -0.3111  0.2197  0.2760
   44MOL   H64642012   3.472   6.305   4.048  1.8019  0.0151 -1.8732
   44MOL   H64742013   3.496   6.153   4.146 -0.7120  0.3148  0.6037
   44MOL   H64842014   3.590   6.230   3.854  0.8592 -0.4586 -1.2718
   44MOL   H64942015   3.597   6.072   3.906 -0.0732 -0.0153  0.8011
   44MOL   H65042016   3.735   6.309   4.023 -3.2976  0.9995 -1.7240
   44MOL   H65142017   3.766   6.137   4.078  0.7822  0.8330  0.9768
   44MOL   H65242018   3.809   6.239   3.802  0.8656 -1.2254 -2.2368
   44MOL   H65342019   3.863   6.083   3.855 -0.1808  1.1613 -1.5617
   44MOL   H65442020   4.011   6.223   4.027 -0.1839  0.0928  0.4757
   44MOL   H65542021   3.949   6.364   3.952  0.7049 -0.4724  0.0347
   44MOL   H65642022   4.173   6.310   3.865  0.7006 -1.3324  1.7910
   44MOL   H65742023   4.068   6.288   3.731  0.7016  0.9056  0.7250
   44MOL   H65842024   4.054   6.040   3.794  1.0177 -0.9622 -0.8616
   44MOL   H65942025   4.180   6.071   3.920  1.4102 -1.8481 -0.6892
   44MOL   H66042026   4.272   5.959   3.743  0.0268 -0.1829 -0.1110
   44MOL   H66142027   4.345   6.117   3.745  1.0540 -0.2642  1.0513
   44MOL   H66242028   4.119   6.033   3.548  0.4664 -1.1834 -1.8723
   44MOL   H66342029   4.193   6.188   3.569  0.0885 -0.4402  0.1720
   44MOL   H66442030   4.332   5.943   3.474  0.2407 -0.1007  0.8660
   44MOL   H66542031   4.426   6.081   3.524 -1.4204  3.9703  1.6311
   44MOL   H66642032   4.328   6.244   3.135  0.3516 -0.2872  2.1329
   44MOL   H66742033   4.448   6.142   3.062  1.5084  0.9967  2.0550
   44MOL   H66842034   4.246   5.975   3.041 -4.3497 -0.3369  2.9974
   44MOL   H66942035   4.249   6.121   2.942 -0.3155 -0.4088 -0.6019
   44MOL   H67042036   4.094   6.224   3.117 -0.2308 -0.4175 -0.7130
   44MOL   H67142037   4.104   6.085   3.212  0.0976  1.9740  1.7127
   44MOL   H67242038   4.005   5.942   3.033 -1.5056 -0.8285  1.1279
   44MOL   H67342039   4.009   6.089   2.921 -0.5449  1.4864  0.8021
   44MOL   O67442040   3.851   6.233   3.059  0.1428  0.2383  0.0945
   44MOL   C67542041   3.728   6.297   3.112  0.8484  0.6178 -0.3105
   44MOL   C67642042   3.616   6.307   3.011 -0.3278 -0.2342 -0.2041
   44MOL   C67742043   3.552   6.181   2.951  0.3443 -1.4111  0.5388
   44MOL   C67842044   3.438   6.215   2.849 -0.2394  0.0591 -0.4150
   44MOL   C67942045   3.376   6.090   2.780  0.2972 -0.1969  0.2170
   44MOL   C68042046   3.248   6.122   2.693  0.1663  0.4028  0.2916
   44MOL   C68142047   3.197   5.998   2.624 -0.3686  0.6172 -0.5946
   44MOL   C68242048   3.067   6.024   2.534 -0.6988 -0.1391  0.5284
   44MOL   C68342049   3.030   5.902   2.458 -0.0513  0.3473  0.0289
   44MOL   C68442050   2.899   5.919   2.386 -0.4706  0.3322  0.0509
   44MOL   O68542051   2.901   6.041   2.309  0.2844  0.3676 -0.3822
   44MOL   C68642052   2.892   6.028   2.172 -0.0213 -0.4147  0.5310
   44MOL   O68742053   2.864   5.925   2.107 -0.6896 -0.3480 -0.5180
   44MOL   C68842054   2.916   6.162   2.098 -0.2803  0.0374 -0.6340
   44MOL   C68942055   2.940   6.143   1.945 -0.7283  0.3912 -0.1217
   44MOL   C69042056   2.966   6.276   1.868 -0.1111  0.0544 -0.1373
   44MOL   C69142057   2.841   6.366   1.847  0.0029  0.5504 -0.0121
   44MOL   C69242058   2.857   6.457   1.730 -0.6387  0.7788 -0.0306
   44MOL   O69342059   2.884   6.399   1.623  0.4887 -0.1461 -0.6008
   44MOL   H69442060   3.690   6.230   3.189  0.8467  2.0885  0.9730
   44MOL   H69542061   3.757   6.394   3.153  2.3910 -0.1817  0.5532
   44MOL   H69642062   3.645   6.376   2.932 -2.5992 -0.5574 -1.3614
   44MOL   H69742063   3.538   6.355   3.070 -1.5756 -3.8504  1.2648
   44MOL   H69842064   3.627   6.124   2.896  0.1349 -1.3126  0.1421
   44MOL   H69942065   3.513   6.115   3.029  0.9413 -1.3977  0.8511
   44MOL   H70042066   3.479   6.279   2.770  0.6804 -0.9785 -0.7979
   44MOL   H70142067   3.369   6.275   2.907  0.8867  0.5704  0.4123
   44MOL   H70242068   3.340   6.017   2.852 -2.0467  1.9670  1.3154
   44MOL   H70342069   3.449   6.047   2.711  0.0948  0.5846 -0.4974
   44MOL   H70442070   3.270   6.197   2.616  0.1837  1.2866  1.1474
   44MOL   H70542071   3.174   6.170   2.757 -0.1186 -0.3526  0.5324
   44MOL   H70642072   3.174   5.932   2.708  0.4660 -1.4477 -1.9463
   44MOL   H70742073   3.280   5.957   2.566  0.6710  2.1566 -0.2388
   44MOL   H70842074   3.083   6.115   2.476 -1.2985 -1.0751 -1.1365
   44MOL   H70942075   2.987   6.050   2.602 -1.7159  2.6244 -1.6245
   44MOL   H71042076   3.098   5.874   2.378 -1.2748 -0.3969 -0.7736
   44MOL   H71142077   3.024   5.816   2.525  2.9124 -0.0654 -0.1863
   44MOL   H71242078   2.812   5.906   2.450 -1.5394 -1.1833 -1.6249
   44MOL   H71342079   2.878   5.836   2.318 -0.8162  0.0914  0.4530
   44MOL   H71442080   2.822   6.217   2.106  0.0081  0.6249 -1.2353
   44MOL   H71542081   2.992   6.224   2.147  0.0433 -0.2016 -0.8330
   44MOL   H71642082   2.845   6.095   1.919 -0.5338 -0.4824  0.7362
   44MOL   H71742083   3.019   6.070   1.928  0.3261  1.3961  0.4329
   44MOL   H71842084   3.018   6.257   1.774  1.5268 -0.9391  0.9351
   44MOL   H71942085   3.044   6.325   1.927  0.3632 -1.9787  0.9768
   44MOL   H72042086   2.826   6.410   1.946  0.1103 -0.4536  0.4566
   44MOL   H72142087   2.764   6.293   1.820  0.4799  0.4107 -1.0256
   44MOL   O72242088   2.841   6.587   1.755 -0.0619 -0.2252  0.2385
   44MOL   C72342089   2.859   6.674   1.647 -0.0840 -0.4465  0.1661
   44MOL   C72442090   2.827   6.824   1.684  0.0432  0.4213  0.3825
   44MOL   C72542091   2.667   6.838   1.688  0.4429 -0.2610 -0.8333
   44MOL   C72642092   2.621   6.966   1.751  0.0210  0.1760 -0.6809
   44MOL   C72742093   2.471   6.985   1.741  0.3511 -0.6338  0.3180
   44MOL   C72842094   2.414   6.989   1.595 -0.6121  0.0263 -0.2595
   44MOL   C72942095   2.273   7.049   1.595 -0.3945  0.0061 -0.3556
   44MOL   C73042096   2.190   7.039   1.461  0.9912  0.4441  0.4889
   44MOL   C73142097   2.114   6.905   1.449  0.3090  0.5013  0.1216
   44MOL   C73242098   2.011   6.885   1.341  0.3816 -0.2791  0.7591
   44MOL   O73342099   1.906   6.976   1.356  0.3659 -0.0446 -0.7929
   44MOL   C73442100   1.857   7.057   1.266  0.0854 -0.1720  0.2229
   44MOL   O73542101   1.903   7.069   1.152 -0.2554  1.0476 -0.1622
   44MOL   C73642102   1.741   7.146   1.310  0.4497  0.0290  0.1672
   44MOL   C73742103   1.765   7.228   1.440 -0.0395 -0.8164  0.3585
   44MOL   C73842104   1.869   7.344   1.433 -0.1323 -0.2823 -0.7693
   44MOL   C73942105   1.916   7.394   1.574  0.1769  0.6456 -0.1789
   44MOL   C74042106   2.053   7.462   1.576 -0.4799 -0.1764 -0.1444
   44MOL   O74142107   2.149   7.401   1.532 -0.1771 -0.1696  0.2601
   44MOL   H74242108   2.966   6.665   1.629  0.0799  2.1660 -0.3951
   44MOL   H74342109   2.795   6.649   1.563 -1.8489  1.8329  0.7953
   44MOL   H74442110   2.887   6.878   1.610 -1.2434  0.4263 -0.6846
   44MOL   H74542111   2.871   6.849   1.780  0.8029 -0.4137  0.2543
   44MOL   H74642112   2.614   6.810   1.596 -0.8275 -0.5447 -0.0376
   44MOL   H74742113   2.646   6.754   1.754 -0.9795  0.5145 -0.2779
   44MOL   H74842114   2.667   7.054   1.706  0.9773  0.1674  0.2611
   44MOL   H74942115   2.648   6.960   1.857  1.0229  2.4663 -0.7573
   44MOL   H75042116   2.434   7.071   1.797 -2.8467  0.6311 -3.4922
   44MOL   H75142117   2.437   6.902   1.804 -0.1663 -0.4731  0.2504
   44MOL   H75242118   2.407   6.895   1.540 -0.8659 -0.1694  0.1124
   44MOL   H75342119   2.477   7.057   1.537 -1.2063 -0.8084 -1.9381
   44MOL   H75442120   2.269   7.154   1.625  0.0275 -0.4145  1.2073
   44MOL   H75542121   2.211   6.995   1.666  2.3463 -0.5984  1.6936
   44MOL   H75642122   2.255   7.059   1.376 -0.3349  1.5941 -0.2748
   44MOL   H75742123   2.123   7.124   1.448 -0.7172 -1.1156 -1.2694
   44MOL   H75842124   2.189   6.829   1.429  0.6820  0.4858  1.5305
   44MOL   H75942125   2.073   6.868   1.543  0.0680  0.6823  0.0878
   44MOL   H76042126   1.981   6.783   1.364  1.2962 -0.5911  0.5668
   44MOL   H76142127   2.056   6.883   1.242 -0.0646 -2.2134  0.5837
   44MOL   H76242128   1.706   7.208   1.227  1.5900  0.4649  0.0026
   44MOL   H76342129   1.655   7.085   1.338  1.4174 -0.4270  2.2428
   44MOL   H76442130   1.788   7.167   1.527 -1.1786 -1.1380  0.4467
   44MOL   H76542131   1.675   7.277   1.477  0.9552  0.3890  1.2119
   44MOL   H76642132   1.827   7.421   1.368  0.0854  0.6031  0.1126
   44MOL   H76742133   1.962   7.308   1.390  1.3682  1.6355  0.7680
   44MOL   H76842134   1.914   7.316   1.650  1.8830 -1.7883 -2.5114
   44MOL   H76942135   1.848   7.474   1.602 -0.5665 -0.0750  0.0994
   44MOL   O77042136   2.058   7.584   1.631 -0.0360  0.2269  0.2626
   44MOL   C77142137   2.188   7.641   1.649  0.2891 -0.3943 -0.0509
   44MOL   C77242138   2.221   7.758   1.545  0.6523  0.3809 -0.2268
   44MOL   C77342139   2.223   7.706   1.408  0.4800  0.4342  0.0238
   44MOL   C77442140   2.330   0.013   1.323 -0.0417 -0.5015 -0.5657
   44MOL   C77542141   2.325   7.737   1.177 -0.2115 -0.8960  0.2524
   44MOL   C77642142   2.374   0.073   1.081  0.1564 -0.7849 -0.3473
   44MOL   C77742143   2.516   0.101   1.101 -0.1824 -0.2164  0.8058
   44MOL   C77842144   2.569   0.199   0.994 -0.1981  0.3901  0.3330
   44MOL   C77942145   2.679   0.292   1.038  0.1930 -0.3160  0.9482
   44MOL   C78042146   2.742   0.378   0.922 -0.0122 -0.3436  0.1660
   44MOL   O78142147   2.648   0.471   0.868 -0.0320  0.0052  0.2764
   44MOL   C78242148   2.632   0.595   0.922 -0.5403  0.1710  0.3416
   44MOL   O78342149   2.700   0.645   1.016 -0.5781  0.6992  0.9713
   44MOL   C78442150   2.529   0.669   0.835  0.2756 -0.9329  0.0787
   44MOL   C78542151   2.555   0.816   0.832 -0.1727 -0.5503 -0.1381
   44MOL   C78642152   2.655   0.862   0.728 -0.0523  0.0371 -0.2337
   44MOL   C78742153   2.682   1.010   0.744  0.4510  0.0733  0.0428
   44MOL   C78842154   2.785   1.057   0.639  0.5261  0.1439  0.0388
   44MOL   O78942155   2.755   1.125   0.544  0.3479  0.2740  0.1269
   44MOL   H79042156   2.176   7.684   1.749 -2.1909 -0.5018 -0.2610
   44MOL   H79142157   2.266   7.565   1.647  0.1326 -0.5364 -3.1952
   44MOL   H79242158   2.312   0.042   1.577  0.4790  0.3999  0.2402
   44MOL   H79342159   2.140   0.066   1.551 -0.0340 -0.3022 -1.0435
   44MOL   H79442160   2.248   7.600   1.404 -0.4403  0.1341  1.7861
   44MOL   H79542161   2.124   7.712   1.363  0.1723 -1.5561  0.3635
   44MOL   H79642162   2.428   0.004   1.369  0.0035  0.8981 -0.3899
   44MOL   H79742163   2.310   0.120   1.328  0.1938 -0.4561 -0.6354
   44MOL   H79842164   2.221   7.718   1.149 -1.2106  0.7659  2.6246
   44MOL   H79942165   2.382   7.644   1.172  0.0008 -0.7176 -0.6905
   44MOL   H80042166   2.331   0.172   1.089  0.0232 -0.8984  0.4274
   44MOL   H80142167   2.353   0.038   0.980 -2.4053 -0.5481  0.0484
   44MOL   H80242168   2.579   0.012   1.108  0.5834  0.4063  2.0656
   44MOL   H80342169   2.531   0.152   1.196  3.7517  0.1786  0.0377
   44MOL   H80442170   2.493   0.262   0.947  0.7362  0.0630 -1.6750
   44MOL   H80542171   2.605   0.135   0.914 -1.2649  1.0326 -0.6894
   44MOL   H80642172   2.645   0.356   1.119 -0.2577 -0.7945  1.1417
   44MOL   H80742173   2.759   0.229   1.079  0.8179  1.4022  2.4737
   44MOL   H80842174   2.770   0.306   0.844 -0.3359  0.8451 -1.0785
   44MOL   H80942175   2.833   0.431   0.951 -1.4573  1.8513  0.8546
   44MOL   H81042176   2.505   0.625   0.738 -2.2425  1.3515 -0.3907
   44MOL   H81142177   2.442   0.665   0.901  0.2104 -1.2948 -0.0272
   44MOL   H81242178   2.568   0.854   0.933  1.4128 -0.2481 -0.4461
   44MOL   H81342179   2.460   0.861   0.803 -0.5794 -0.6983  0.9467
   44MOL   H81442180   2.608   0.847   0.631 -1.3093 -0.9236  0.5050
   44MOL   H81542181   2.749   0.807   0.735 -1.2330 -1.9172  0.6550
   44MOL   H81642182   2.718   1.032   0.845 -0.6182 -0.4670  0.5372
   44MOL   H81742183   2.594   1.072   0.728 -0.1528 -0.7936  0.0356
   44MOL   O81842184   2.908   1.005   0.672 -0.2493 -0.5120  0.1138
   44MOL   C81942185   3.019   1.043   0.593 -0.1271  0.4875  0.0460
   44MOL   C82042186   3.033   0.957   0.461 -0.0053  0.1949 -0.4069
   44MOL   C82142187   3.096   0.815   0.479 -0.4679 -0.2044  0.1627
   44MOL   C82242188   3.017   0.720   0.571  0.6590 -0.8503 -0.4391
   44MOL   C82342189   3.073   0.582   0.582  0.3982  0.1316 -0.1189
   44MOL   C82442190   2.995   0.498   0.682  0.2451  0.1854 -0.7165
   44MOL   C82542191   3.067   0.368   0.718 -0.0263 -0.4216  0.1860
   44MOL   C82642192   3.040   0.265   0.607  0.3324  0.0177 -0.3930
   44MOL   C82742193   3.091   0.129   0.659 -0.2111  0.2246 -0.1739
   44MOL   C82842194   3.123   0.033   0.543 -0.2515  0.5925  0.0138
   44MOL   O82942195   3.015   7.755   0.461  0.2462 -0.1610 -0.6640
   44MOL   C83042196   3.044   7.703   0.336  1.1383 -0.3256 -0.3913
   44MOL   O83142197   3.155   7.666   0.306 -0.3525  0.2684  0.4309
   44MOL   C83242198   2.930   7.709   0.241  0.2778  0.2080 -0.0745
   44MOL   C83342199   2.806   7.639   0.295 -0.1015  0.2880  0.1966
   44MOL   C83442200   2.826   7.500   0.357 -1.2290  0.4632  0.3221
   44MOL   C83542201   2.697   7.403   0.347 -0.9593  0.2290  0.6817
   44MOL   C83642202   2.581   7.433   0.442 -0.2894 -0.4486 -0.3497
   44MOL   O83742203   2.476   7.468   0.390  0.1559  0.1939  0.1574
   44MOL   H83842204   3.013   1.149   0.567  2.7042  0.7551  0.3611
   44MOL   H83942205   3.107   1.046   0.658 -1.1592 -2.2747  1.6574
   44MOL   H84042206   3.096   1.021   0.398 -1.5883  2.0047 -0.1882
   44MOL   H84142207   2.934   0.941   0.420  0.3971 -0.8009 -1.0250
   44MOL   H84242208   3.113   0.772   0.381  0.0289 -2.6323  1.2788
   44MOL   H84342209   3.198   0.835   0.511 -0.2878  1.2646 -1.2494
   44MOL   H84442210   2.920   0.709   0.523  0.1614  2.1384 -0.1989
   44MOL   H84542211   2.992   0.774   0.662  1.4699 -3.2619  1.2738
   44MOL   H84642212   3.175   0.590   0.621  0.7539  0.7774 -1.1489
   44MOL   H84742213   3.073   0.540   0.481  1.4285  0.5570 -0.3076
   44MOL   H84842214   2.893   0.468   0.660  0.2982 -0.8097  0.3179
   44MOL   H84942215   2.988   0.556   0.774 -0.3480  2.6349 -2.2606
   44MOL   H85042216   3.017   0.335   0.809  0.0053 -0.0798  0.3278
   44MOL   H85142217   3.167   0.390   0.754  0.4358  1.2521 -2.0045
   44MOL   H85242218   3.102   0.304   0.526 -0.6349  1.6061 -0.4030
   44MOL   H85342219   2.935   0.269   0.577  0.5680  1.7841 -1.0754
   44MOL   H85442220   3.182   0.149   0.715  0.2879 -0.2202 -0.8369
   44MOL   H85542221   3.017   0.087   0.728  0.6562 -1.2246 -0.1143
   44MOL   H85642222   3.162   7.709   0.594 -3.0034 -1.0085 -0.5250
   44MOL   H85742223   3.199   0.073   0.476  0.2124 -1.0875 -0.4999
   44MOL   H85842224   2.909   0.048   0.217 -0.1360  0.2758  0.5850
   44MOL   H85942225   2.965   7.668   0.146  1.5894 -1.2849  1.0286
   44MOL   H86042226   2.744   7.629   0.206  1.2844  0.1059 -0.7762
   44MOL   H86142227   2.758   7.708   0.364  0.1372  1.1995 -0.5192
   44MOL   H86242228   2.858   7.510   0.460  3.2656  1.0489 -1.0086
   44MOL   H86342229   2.905   7.446   0.306 -1.0118 -0.9539  2.1291
   44MOL   H86442230   2.735   7.301   0.357  0.2191  0.5327 -0.5520
   44MOL   H86542231   2.672   7.398   0.241 -0.1200 -0.4438  0.5017
   44MOL   O86642232   2.600   7.401   0.566  0.2384  0.5314 -0.2682
   44MOL   C86742233   2.496   7.419   0.658 -0.7725 -0.2561 -0.4187
   44MOL   C86842234   2.512   7.564   0.716 -0.9274  0.1246  0.2126
   44MOL   C86942235   2.654   7.604   0.768 -0.5865  0.3169  0.2112
   44MOL   C87042236   2.698   7.560   0.907 -0.2304  0.6250 -0.0117
   44MOL   C87142237   2.849   7.590   0.928 -0.1817 -0.3485  0.5907
   44MOL   C87242238   2.890   7.557   1.072 -0.7791 -0.3421  0.0596
   44MOL   C87342239   3.037   7.562   1.107  0.1541 -0.1267 -0.1089
   44MOL   C87442240   3.092   7.485   1.231  0.0935 -0.1576  0.3885
   44MOL   C87542241   3.246   7.501   1.249  0.4961  0.4817  0.5192
   44MOL   C87642242   3.279   7.416   1.363 -0.9216  0.9154  0.2904
   44MOL   O87742243   3.419   7.438   1.388 -0.1975  0.6702 -0.0147
   44MOL   C87842244   3.467   7.413   1.515  0.2323 -0.0536 -0.3365
   44MOL   O87942245   3.404   7.372   1.612 -0.0501  0.0502  0.0562
   44MOL   C88042246   3.617   7.447   1.518  0.6627  0.8683 -0.2801
   44MOL   C88142247   3.647   7.597   1.525  0.3699  0.3685 -0.0464
   44MOL   C88242248   3.612   7.658   1.666 -0.7192  0.1156 -0.5314
   44MOL   C88342249   3.601   0.056   1.652 -0.7991  0.4389 -0.4260
   44MOL   C88442250   3.475   0.108   1.582  0.8818  0.1383 -0.3481
   44MOL   O88542251   3.460   0.227   1.558  0.3817 -0.0224  0.0609
   44MOL   H88642252   2.401   7.400   0.608  0.2544 -1.9680 -1.7783
   44MOL   H88742253   2.499   7.343   0.736  0.2317 -0.3517 -0.5514
   44MOL   H88842254   2.441   7.589   0.795 -1.8887 -1.7722 -0.0212
   44MOL   H88942255   2.472   7.636   0.646 -2.1770 -1.5456 -0.8159
   44MOL   H89042256   2.731   7.573   0.698  0.2998  0.3219  1.1743
   44MOL   H89142257   2.660   7.713   0.767 -2.0351  0.3990  0.0680
   44MOL   H89242258   2.686   7.452   0.912  0.1398  0.6031  0.5203
   44MOL   H89342259   2.641   7.613   0.984 -1.7011 -0.6584 -0.1923
   44MOL   H89442260   2.862   7.698   0.924  0.9443 -0.5048 -0.2037
   44MOL   H89542261   2.912   7.554   0.847 -0.2095 -0.3235  0.5580
   44MOL   H89642262   2.864   7.451   1.084 -0.2888 -0.9343 -3.6287
   44MOL   H89742263   2.830   7.612   1.145  0.5303  1.2441 -0.0566
   44MOL   H89842264   3.064   7.667   1.102  3.1130 -0.8035  0.5810
   44MOL   H89942265   3.090   7.519   1.023 -2.1522  1.4678 -2.4676
   44MOL   H90042266   3.051   7.386   1.212 -0.5599  0.0216  0.8600
   44MOL   H90142267   3.040   7.523   1.319 -0.0921  0.8034 -0.1287
   44MOL   H90242268   3.307   7.487   1.159 -0.1455  0.6083  0.0585
   44MOL   H90342269   3.265   7.603   1.282  0.2896 -0.3385  3.2492
   44MOL   H90442270   3.253   7.315   1.331  1.4581  0.7079 -1.0955
   44MOL   H90542271   3.218   7.441   1.450 -1.7699 -4.0672  1.2595
   44MOL   H90642272   3.638   7.395   1.612 -0.1185 -0.1617 -0.6565
   44MOL   H90742273   3.673   7.392   1.442 -0.6199  1.2124 -1.4885
   44MOL   H90842274   3.589   7.648   1.448 -0.5528  1.4294  1.3214
   44MOL   H90942275   3.751   7.607   1.493  0.2030 -1.7278 -1.3544
   44MOL   H91042276   3.683   7.624   1.742  0.3269  1.6674 -0.8008
   44MOL   H91142277   3.514   7.629   1.706 -0.2704 -1.1562 -0.3213
   44MOL   H91242278   3.690   0.094   1.601  0.6143 -2.7830 -0.4279
   44MOL   H91342279   3.589   0.088   1.755  1.0697  0.0996 -0.0957
   44MOL   O91442280   3.386   0.015   1.549 -0.1019  0.0954 -0.6559
   44MOL   C91542281   3.257   0.056   1.504  0.3395 -0.0883  0.4197
   44MOL   C91642282   3.156   7.723   1.572 -0.2128  0.3330  0.1313
   44MOL   C91742283   3.153   7.735   1.726  0.3789  0.0647 -0.2103
   44MOL   C91842284   3.057   7.636   1.799 -1.1015  0.4101 -0.5187
   44MOL   C91942285   3.037   7.677   1.952  0.2245 -0.6021  0.0935
   44MOL   C92042286   2.943   0.030   1.973 -0.7681  0.2161 -0.2734
   44MOL   C92142287   2.906   0.049   2.120  0.6348  0.0943  0.0061
   44MOL   C92242288   2.860   0.193   2.147  0.3441 -0.3972  0.4675
   44MOL   C92342289   2.798   0.200   2.291 -0.5050 -0.2691  0.1553
   44MOL   C92442290   2.760   0.338   2.350 -0.2033  0.0694 -0.1946
   44MOL   O92542291   2.685   0.303   2.468 -0.0054 -0.4389 -0.5247
   44MOL   C92642292   2.643   0.399   2.551 -0.5904  0.2409 -0.2910
   44MOL   O92742293   2.646   0.519   2.538 -0.4681  0.1794  0.6553
   44MOL   C92842294   2.588   0.336   2.684 -0.3542  0.8179  0.2467
   44MOL   C92942295   2.681   0.349   2.811 -0.2679  0.3971  0.3284
   44MOL   C93042296   2.824   0.284   2.797 -0.1364  1.0105 -0.7447
   44MOL   C93142297   2.837   0.132   2.770 -0.1018  0.6309 -0.0452
   44MOL   C93242298   2.984   0.080   2.758  0.1135  0.2549 -0.5338
   44MOL   O93342299   3.067   0.133   2.683 -0.1455  0.0765  0.2679
   44MOL   H93442300   3.237   0.157   1.538 -0.9566 -0.1031 -0.2631
   44MOL   H93542301   3.238   0.056   1.396  1.3832  1.5197  0.2183
   44MOL   H93642302   3.180   7.620   1.544 -0.4996 -0.2867  2.0227
   44MOL   H93742303   3.054   7.731   1.535  0.5915 -0.3415 -2.2737
   44MOL   H93842304   3.257   7.740   1.758  0.2294  3.0595 -0.0985
   44MOL   H93942305   3.118   0.072   1.741 -0.4933 -0.0460 -1.3973
   44MOL   H94042306   3.104   7.537   1.797 -1.2186  0.3666 -1.0700
   44MOL   H94142307   2.965   7.618   1.744 -0.4824  1.4952 -1.9388
   44MOL   H94242308   3.133   7.689   2.002  0.8513  0.2155 -1.2691
   44MOL   H94342309   2.985   7.594   2.000 -0.5646  0.0311  0.3405
   44MOL   H94442310   2.850   0.008   1.920  1.3549  0.4297 -4.2761
   44MOL   H94542311   2.976   0.118   1.918  2.0351 -0.7610 -0.2446
   44MOL   H94642312   2.995   0.033   2.181 -0.3200 -2.3175  0.8098
   44MOL   H94742313   2.841   7.731   2.147  0.5764  0.2845  0.4484
   44MOL   H94842314   2.798   0.231   2.066  0.8403  0.1459  0.3420
   44MOL   H94942315   2.944   0.261   2.156 -1.5907  1.9677  1.1749
   44MOL   H95042316   2.708   0.140   2.277 -0.2514 -0.6902  0.3174
   44MOL   H95142317   2.866   0.141   2.353 -1.9840  0.0951  2.1803
   44MOL   H95242318   2.701   0.398   2.281 -0.0528  3.0527  2.1717
   44MOL   H95342319   2.846   0.400   2.375 -1.2772  1.9758 -1.1804
   44MOL   H95442320   2.488   0.370   2.710 -0.2540  2.7137 -1.7173
   44MOL   H95542321   2.554   0.233   2.673 -1.4825  1.4746 -3.1297
   44MOL   H95642322   2.632   0.303   2.897  0.4150  0.0674  0.5461
   44MOL   H95742323   2.686   0.457   2.829  1.5544  0.8031 -2.3323
   44MOL   H95842324   2.869   0.291   2.896 -2.9453  2.5827  0.4885
   44MOL   H95942325   2.891   0.331   2.725 -0.5423 -0.1512 -1.9007
   44MOL   H96042326   2.785   0.096   2.681  0.7229 -1.0359  0.1169
   44MOL   H96142327   2.800   0.077   2.857  1.5869 -1.1189 -0.3786
   44MOL   H96242328   2.998   7.754   2.816  0.0648 -0.2212 -1.2558
   45MOL     O142329   3.884   6.486   5.129  0.2404 -0.0141  0.2313
   45MOL     C242330   3.899   6.627   5.132  0.3979  0.7070  0.0982
   45MOL     C342331   4.049   6.674   5.135  1.2118  0.1023 -0.5716
   45MOL     C442332   4.124   6.666   5.271 -0.0112 -0.2828  0.5602
   45MOL     C542333   4.273   6.701   5.266 -0.2426 -0.2994  0.4338
   45MOL     C642334   4.363   6.597   5.201  0.4966  0.0144  0.5779
   45MOL     C742335   4.390   6.608   5.051  0.4909 -0.0122  0.0705
   45MOL     C842336   4.524   6.682   5.032 -0.2835  0.0819 -0.4034
   45MOL     C942337   4.528   6.825   5.091 -0.1695  0.3768  0.2092
   45MOL    C1042338   4.436   6.923   5.015 -0.7028 -0.4588  0.6092
   45MOL    C1142339   4.439   7.068   5.072  0.5509  0.0921 -0.8154
   45MOL    O1242340   4.379   7.064   5.197 -0.1561 -0.1748  0.4246
   45MOL    C1342341   4.398   7.160   5.282 -0.1432 -0.0946 -0.3377
   45MOL    O1442342   4.471   7.259   5.269 -0.6203 -0.1437 -0.0997
   45MOL    C1542343   4.330   7.131   5.415 -0.3203  0.4454  0.1809
   45MOL    C1642344   4.179   7.106   5.396  0.0548 -0.0112 -0.3023
   45MOL    C1742345   4.115   7.088   5.530  0.1509 -0.4923  0.3026
   45MOL    C1842346   4.139   6.965   5.607  0.0928 -0.9485 -0.1177
   45MOL    C1942347   4.201   6.973   5.752 -0.3075  0.0680 -0.2199
   45MOL    O2042348   4.319   6.936   5.776  0.3573 -0.9418 -0.4938
   45MOL    H2142349   3.845   6.672   5.050  0.3597  1.1306  0.3534
   45MOL    H2242350   3.860   6.667   5.226 -0.5200 -2.2188  1.0468
   45MOL    H2342351   4.047   6.778   5.103  1.8266  0.8930  1.8640
   45MOL    H2442352   4.104   6.627   5.053 -0.2548  0.9286 -2.0743
   45MOL    H2542353   4.083   6.746   5.332  1.6179  0.9558  0.0924
   45MOL    H2642354   4.120   6.570   5.322  0.3839 -0.8428 -0.4330
   45MOL    H2742355   4.302   6.705   5.371 -0.1499  4.7647  0.2991
   45MOL    H2842356   4.282   6.804   5.234  0.5124 -0.0731  1.3525
   45MOL    H2942357   4.313   6.504   5.229 -0.0513 -0.1688 -0.9873
   45MOL    H3042358   4.461   6.604   5.249  1.0362  2.6765 -0.8397
   45MOL    H3142359   4.300   6.643   5.001 -1.0719  0.4697  3.1580
   45MOL    H3242360   4.408   6.506   5.016  2.6480  0.5117 -0.4579
   45MOL    H3342361   4.551   6.672   4.927  3.8665 -2.0133  0.7635
   45MOL    H3442362   4.603   6.619   5.072  1.0565  1.9199 -0.0856
   45MOL    H3542363   4.630   6.861   5.107  0.5689 -1.9993  1.1359
   45MOL    H3642364   4.493   6.825   5.194 -0.4784  0.2041  0.1020
   45MOL    H3742365   4.459   6.935   4.910  0.2256 -0.3257  0.8277
   45MOL    H3842366   4.334   6.883   5.009 -1.0310  0.8109 -3.3531
   45MOL    H3942367   4.395   7.152   5.018  0.2632  0.1362 -0.5165
   45MOL    H4042368   4.547   7.085   5.072  0.7199 -0.7434  1.3274
   45MOL    H4142369   4.365   7.043   5.469 -1.1600  0.5014  0.8245
   45MOL    H4242370   4.355   7.215   5.481 -1.7905 -0.3117  1.7548
   45MOL    H4342371   4.158   7.019   5.333 -1.6034  1.8998 -2.4435
   45MOL    H4442372   4.133   7.191   5.346  2.4019  1.1067 -0.6274
   45MOL    H4542373   4.009   7.084   5.504  0.1827 -1.8019  0.3715
   45MOL    H4642374   4.120   7.179   5.589  0.6247  1.1349 -2.1512
   45MOL    H4742375   4.214   6.915   5.546  1.5231  2.3780 -1.1790
   45MOL    H4842376   4.048   6.905   5.605 -0.6798  0.0261  3.1047
   45MOL    H4942377   3.917   6.449   5.049  1.5119 -0.3399  0.8869
   45MOL    O5042378   4.112   7.018   5.840 -0.3592  0.4680  0.2495
   45MOL    C5142379   4.152   7.041   5.974 -0.0177 -0.2697 -1.0250
   45MOL    C5242380   4.032   7.096   6.048 -0.4140 -0.4665 -0.0280
   45MOL    C5342381   4.078   7.141   6.186  0.1374  0.2991  0.6336
   45MOL    C5442382   3.988   7.216   6.276  0.1329  0.5010  0.8407
   45MOL    C5542383   4.070   7.249   6.409 -0.0015  1.2033 -0.3128
   45MOL    C5642384   3.998   7.330   6.518 -0.1542 -0.3755  0.8887
   45MOL    C5742385   4.066   7.351   6.656 -0.1158  0.2424  0.2373
   45MOL    C5842386   4.204   7.425   6.658  0.4310  0.2015  0.2657
   45MOL    C5942387   4.178   7.570   6.642 -0.7425 -0.4289 -0.1294
   45MOL    C6042388   4.301   7.667   6.634  0.4468  0.3865  0.5980
   45MOL    O6142389   4.355   7.685   6.505  0.0039  0.0929  0.3042
   45MOL    C6242390   4.477   7.632   6.475  0.1097  0.2892 -0.3238
   45MOL    O6342391   4.554   7.576   6.551  0.5309 -0.5003  0.4074
   45MOL    C6442392   4.509   7.647   6.331  0.5761  0.2586  0.0238
   45MOL    C6542393   4.531   0.029   6.290  0.0492  0.0226 -0.4698
   45MOL    C6642394   4.527   0.048   6.136  0.0320 -0.0552 -0.1429
   45MOL    C6742395   4.564   0.194   6.091  0.3619  0.3065  0.3581
   45MOL    C6842396   4.465   0.306   6.126  0.2131 -0.2669  0.1315
   45MOL    O6942397   4.487   0.414   6.181 -0.4935  0.6364 -0.2456
   45MOL    H7042398   4.203   6.955   6.018 -0.7082  1.4328  3.3386
   45MOL    H7142399   4.226   7.121   5.976  1.4662 -1.6515  2.2769
   45MOL    H7242400   3.958   7.016   6.042 -0.6011 -0.2802 -0.2007
   45MOL    H7342401   3.997   7.186   5.998  0.5428  0.1922  0.4812
   45MOL    H7442402   4.105   7.046   6.232 -0.5354 -0.0441  0.3277
   45MOL    H7542403   4.172   7.196   6.176  0.6461 -0.9572 -2.0692
   45MOL    H7642404   3.898   7.157   6.292 -0.3312  0.8907 -0.2844
   45MOL    H7742405   3.951   7.302   6.219  2.5569  0.9096 -0.1606
   45MOL    H7842406   4.164   7.293   6.377  0.4662  1.2763  1.1283
   45MOL    H7942407   4.113   7.158   6.451 -1.4637  0.5107 -0.2658
   45MOL    H8042408   3.912   7.271   6.550 -0.9823  1.2041  1.6461
   45MOL    H8142409   3.958   7.421   6.474  0.5310 -0.3788  0.2452
   45MOL    H8242410   4.075   7.256   6.708 -0.7134  0.7611  1.2982
   45MOL    H8342411   3.989   7.394   6.720 -0.9299 -2.1940  0.9179
   45MOL    H8442412   4.274   7.392   6.582  0.1487  1.2277 -0.4464
   45MOL    H8542413   4.259   7.410   6.751  1.4919  0.0032 -0.3826
   45MOL    H8642414   4.119   7.588   6.552  1.4200 -0.0040 -1.5224
   45MOL    H8742415   4.100   7.606   6.708  1.1782 -0.9072  2.4613
   45MOL    H8842416   4.386   7.643   6.697  0.7716  0.0574  0.0407
   45MOL    H8942417   4.259   7.765   6.659 -2.9641 -1.0729  0.8700
   45MOL    H9042418   4.604   7.607   6.297  0.4047 -1.4056  1.4553
   45MOL    H9142419   4.425   7.618   6.268 -0.7641  3.7660  0.0516
   45MOL    H9242420   4.627   0.062   6.330  0.2279 -1.3361  0.2454
   45MOL    H9342421   4.448   0.090   6.327  0.2840  0.2426 -0.3050
   45MOL    H9442422   4.430   0.021   6.096 -0.2575  2.8117 -1.4934
   45MOL    H9542423   4.591   7.739   6.088 -0.1928 -1.1498  1.2053
   45MOL    H9642424   4.581   0.183   5.984 -2.1040 -1.8227  0.1311
   45MOL    H9742425   4.667   0.222   6.115  0.0926 -1.0114  3.2105
   45MOL    O9842426   4.341   0.263   6.084 -0.0289 -0.3113 -0.1866
   45MOL    C9942427   4.217   0.333   6.101 -0.4638  0.5888 -0.0769
   45MOL   C10042428   4.112   0.235   6.155  0.5066  0.6247 -0.3695
   45MOL   C10142429   4.127   0.186   6.299 -0.0630 -0.7044 -0.0492
   45MOL   C10242430   3.986   0.178   6.365 -0.2120  0.2309  0.1653
   45MOL   C10342431   4.000   0.141   6.510  0.6210  0.3872  0.2550
   45MOL   C10442432   3.871   0.090   6.568  0.7384 -0.0718 -0.7358
   45MOL   C10542433   3.885   0.058   6.714  0.4915 -0.3742 -0.7147
   45MOL   C10642434   3.792   7.705   6.758  0.5292  0.4646  0.5448
   45MOL   C10742435   3.644   7.736   6.750 -0.0012  0.0402  0.4184
   45MOL   C10842436   3.553   7.615   6.785 -0.0774 -0.6094  0.0925
   45MOL   O10942437   3.603   7.512   6.701  0.3208  0.6607 -0.0129
   45MOL   C11042438   3.559   7.393   6.734  0.3849 -0.2715 -0.2572
   45MOL   O11142439   3.478   7.369   6.823 -0.0401  0.6490 -0.3290
   45MOL   C11242440   3.619   7.285   6.640  0.0795  0.8893  0.3279
   45MOL   C11342441   3.603   7.316   6.494  0.3160 -0.1730 -0.6630
   45MOL   C11442442   3.478   7.253   6.434 -0.6064  0.0920 -0.0819
   45MOL   C11542443   3.452   7.286   6.295 -0.7452 -0.3556  0.0089
   45MOL   C11642444   3.567   7.234   6.202  0.4587  0.8262  0.0712
   45MOL   O11742445   3.614   7.118   6.198 -0.6848  0.3251 -0.0895
   45MOL   H11842446   4.225   0.415   6.172  1.3227 -0.0772  0.5375
   45MOL   H11942447   4.183   0.376   6.007 -1.5416  1.0381  0.5149
   45MOL   H12042448   4.077   0.151   6.095 -0.5656  1.0451 -0.3469
   45MOL   H12142449   4.026   0.303   6.149 -1.2502 -1.1823  2.8367
   45MOL   H12242450   4.179   0.091   6.307  0.5239 -0.3767  0.0101
   45MOL   H12342451   4.186   0.266   6.343  1.3063 -1.6868 -0.0891
   45MOL   H12442452   3.924   0.098   6.325 -0.5084 -0.5986  2.2318
   45MOL   H12542453   3.940   0.277   6.357 -0.4490  0.0469 -0.8905
   45MOL   H12642454   4.040   0.228   6.561 -0.2826  0.8781  0.1355
   45MOL   H12742455   4.079   0.068   6.524  1.6597  1.7430  1.5366
   45MOL   H12842456   3.820   0.006   6.521 -0.1938  1.3976 -2.4155
   45MOL   H12942457   3.796   0.169   6.570 -0.4122 -1.1206 -1.4864
   45MOL   H13042458   3.867   0.149   6.772  1.1714 -0.6950 -0.0055
   45MOL   H13142459   3.986   0.025   6.735 -0.1027 -1.6723  0.1650
   45MOL   H13242460   3.806   7.668   6.859  0.4636  0.0017  0.3862
   45MOL   H13342461   3.826   7.622   6.696 -0.8006  0.4438 -0.1629
   45MOL   H13442462   3.620   0.049   6.822 -1.2799  1.8456 -1.8964
   45MOL   H13542463   3.617   0.009   6.652 -0.4177 -0.2507  0.4211
   45MOL   H13642464   3.447   7.630   6.767 -0.7627 -2.2849  2.5455
   45MOL   H13742465   3.555   7.597   6.892 -0.9908 -2.1503 -0.1444
   45MOL   H13842466   3.723   7.267   6.669 -0.4179 -1.8957  0.5905
   45MOL   H13942467   3.571   7.192   6.671 -0.9100  1.4903  0.6387
   45MOL   H14042468   3.690   7.288   6.436  0.2991 -1.1039 -0.2498
   45MOL   H14142469   3.602   7.424   6.475  2.6271  0.5542  2.9181
   45MOL   H14242470   3.389   7.285   6.490 -1.5299  0.2191 -1.6012
   45MOL   H14342471   3.487   7.144   6.443  2.6477  0.3372 -0.0726
   45MOL   H14442472   3.423   7.390   6.280 -0.8248 -0.1849  1.2346
   45MOL   H14542473   3.360   7.237   6.264 -1.7092  1.1676  0.3807
   45MOL   O14642474   3.599   7.330   6.103  0.3784 -0.0375  0.1231
   45MOL   C14742475   3.681   7.292   5.994  0.3840  0.2783 -0.0723
   45MOL   C14842476   3.676   7.407   5.895 -0.1232  0.0384  0.2211
   45MOL   C14942477   3.795   7.414   5.796 -0.3131 -0.0338  0.3522
   45MOL   C15042478   3.807   7.545   5.729 -0.0977 -0.1088  0.2560
   45MOL   C15142479   3.937   7.574   5.648 -0.6610 -0.2342  0.6472
   45MOL   C15242480   3.935   7.521   5.502 -0.1115  0.6298 -0.1554
   45MOL   C15342481   4.064   7.551   5.427 -0.2994 -0.3712 -0.1892
   45MOL   C15442482   4.073   7.499   5.291  0.2032 -0.2457  0.4622
   45MOL   C15542483   4.222   7.517   5.245  0.1180  0.3144  0.9825
   45MOL   C15642484   4.241   7.484   5.098  0.0957  0.2166  0.4028
   45MOL   O15742485   4.193   7.353   5.082 -0.0746  0.2914  0.4174
   45MOL   C15842486   4.162   7.319   4.955 -0.6302 -0.0864  0.0444
   45MOL   O15942487   4.167   7.378   4.850 -0.0606  0.3701 -0.0268
   45MOL   C16042488   4.115   7.172   4.953  0.5391 -0.0717 -0.1775
   45MOL   C16142489   4.003   7.139   5.056  0.5414  0.4326 -0.0278
   45MOL   C16242490   3.870   7.097   5.000  0.2774 -0.1701  0.7736
   45MOL   C16342491   3.769   7.064   5.108  0.3013  0.6008  0.1680
   45MOL   C16442492   3.635   7.020   5.055 -0.1831  0.0128  0.8391
   45MOL   O16542493   3.612   6.904   5.010 -0.2278 -0.3138  0.3868
   45MOL   H16642494   3.781   7.265   6.029  0.5865  0.6682 -0.3535
   45MOL   H16742495   3.632   7.207   5.946 -1.3565  1.7628 -0.9480
   45MOL   H16842496   3.669   7.501   5.949 -0.4455  0.2029 -0.1050
   45MOL   H16942497   3.585   7.393   5.837 -1.6997 -1.0967  2.8878
   45MOL   H17042498   3.882   7.390   5.857  1.1169  1.3503 -1.1250
   45MOL   H17142499   3.782   7.334   5.722 -2.2704  0.9722 -0.4310
   45MOL   H17242500   3.792   7.622   5.805  0.1187  0.0004  0.1876
   45MOL   H17342501   3.721   7.557   5.663 -1.3736 -0.6564  1.7815
   45MOL   H17442502   4.028   7.540   5.696  0.3938 -1.2996 -2.0202
   45MOL   H17542503   3.943   7.682   5.635  0.5599 -0.5239 -1.4043
   45MOL   H17642504   3.851   7.569   5.451  0.8136  1.7936 -0.6126
   45MOL   H17742505   3.913   7.415   5.491  0.1203  0.7033 -1.4007
   45MOL   H17842506   4.145   7.510   5.487  1.4229  1.0272 -1.4901
   45MOL   H17942507   4.071   7.660   5.434  0.7978 -0.5194  1.0710
   45MOL   H18042508   4.001   7.549   5.227 -0.3444 -0.2732  1.0606
   45MOL   H18142509   4.039   7.396   5.281  0.9912 -0.4832  0.1701
   45MOL   H18242510   4.262   7.619   5.246 -0.3591  0.5418 -0.9083
   45MOL   H18342511   4.291   7.453   5.300  0.0215 -0.2416  0.4693
   45MOL   H18442512   4.341   7.498   5.055  0.2498 -0.9075  0.3781
   45MOL   H18542513   4.178   7.548   5.035 -0.4220  1.5744  2.2515
   45MOL   H18642514   4.082   7.140   4.854  1.2480 -1.3940 -0.0006
   45MOL   H18742515   4.204   7.113   4.974  0.9505  1.4301  2.6166
   45MOL   H18842516   3.993   7.223   5.125 -3.0809  1.1694 -1.3703
   45MOL   H18942517   4.032   7.058   5.123  2.7821  2.0738  1.0622
   45MOL   H19042518   3.888   7.006   4.943  0.9111  0.3178  0.1872
   45MOL   H19142519   3.820   7.159   4.926  2.8884 -1.3768 -2.0986
   45MOL   H19242520   3.750   7.146   5.178 -1.5102 -1.5889  2.3150
   45MOL   H19342521   3.814   6.984   5.167 -0.4868 -1.8349 -2.4921
   45MOL   O19442522   3.537   7.119   5.059  0.7994  0.1508  0.6550
   45MOL   C19542523   3.407   7.086   5.017  0.0363  0.1482  0.2686
   45MOL   C19642524   3.302   7.180   5.074  0.6727  0.8711 -0.4213
   45MOL   C19742525   3.155   7.148   5.030  0.7013  0.4440 -0.3599
   45MOL   C19842526   3.067   7.272   5.051 -0.0073 -0.4906  0.2141
   45MOL   C19942527   2.918   7.238   5.059  0.4995  0.0333  0.5775
   45MOL   C20042528   2.819   7.350   5.019 -0.1512 -0.8428 -0.0958
   45MOL   C20142529   2.674   7.313   5.048 -0.0133 -0.0306  0.2604
   45MOL   C20242530   2.630   7.353   5.195  0.4305 -0.4000 -0.3101
   45MOL   C20342531   2.498   7.295   5.239 -0.3796  0.2004 -0.4305
   45MOL   C20442532   2.481   7.327   5.392  0.5176  0.3262 -0.5468
   45MOL   O20542533   2.451   7.460   5.396  0.1749 -0.3817 -0.4807
   45MOL   C20642534   2.326   7.507   5.376  0.3620 -0.2944  0.3104
   45MOL   O20742535   2.234   7.432   5.350 -0.3316 -0.4572  0.1332
   45MOL   C20842536   2.286   7.650   5.400 -0.4505  0.2953 -0.1279
   45MOL   C20942537   2.387   7.728   5.477 -0.2818 -0.7825 -0.1664
   45MOL   C21042538   2.522   7.763   5.416 -0.4757 -0.1109 -0.3289
   45MOL   C21142539   2.609   0.101   5.486  0.2328 -0.1595  0.0303
   45MOL   C21242540   2.624   0.070   5.635 -0.2949  0.1242 -0.1910
   45MOL   O21342541   2.590   0.148   5.727 -0.5060 -0.0001 -0.5398
   45MOL   H21442542   3.400   7.075   4.909  2.7183 -1.5151  0.2386
   45MOL   H21542543   3.375   6.987   5.048  0.8213  0.1389  1.0517
   45MOL   H21642544   3.334   7.279   5.043 -0.7324  1.0751 -1.2464
   45MOL   H21742545   3.302   7.180   5.183  0.3755 -0.8401 -0.4017
   45MOL   H21842546   3.152   7.111   4.928 -0.3663 -0.1969 -0.0949
   45MOL   H21942547   3.118   7.071   5.098 -0.1422  0.4874 -0.7694
   45MOL   H22042548   3.074   7.332   4.960  0.2164 -0.2706  0.3787
   45MOL   H22142549   3.102   7.347   5.122  0.5839 -0.3149 -0.2552
   45MOL   H22242550   2.889   7.189   5.152 -1.5413 -1.2322 -0.6854
   45MOL   H22342551   2.902   7.159   4.985  1.6283 -0.7641  1.1783
   45MOL   H22442552   2.832   7.392   4.920  1.7020  0.2859  0.5780
   45MOL   H22542553   2.849   7.437   5.078  3.7419 -3.2112  1.6172
   45MOL   H22642554   2.662   7.205   5.039 -2.0249 -0.0584  2.7852
   45MOL   H22742555   2.601   7.364   4.985 -0.3016  1.7671  1.9814
   45MOL   H22842556   2.633   7.460   5.214 -2.9055 -0.1479 -0.8639
   45MOL   H22942557   2.704   7.316   5.266 -1.6450 -2.1643  1.0069
   45MOL   H23042558   2.420   7.332   5.174 -0.9781 -1.6968 -0.8455
   45MOL   H23142559   2.507   7.186   5.228  0.3018  0.3242 -1.1218
   45MOL   H23242560   2.564   7.301   5.458  0.3446 -0.6653 -0.7216
   45MOL   H23342561   2.397   7.272   5.433 -0.0511 -0.7193 -3.0412
   45MOL   H23442562   2.261   7.710   5.313 -0.4734  2.2037  1.1682
   45MOL   H23542563   2.196   7.632   5.459 -0.7972  1.0431 -0.4301
   45MOL   H23642564   2.421   7.675   5.566 -1.2704  1.1740  1.4233
   45MOL   H23742565   2.339   0.049   5.526  1.5456  0.6819 -0.8567
   45MOL   H23842566   2.496   0.024   5.313  1.3538 -0.5349 -0.9218
   45MOL   H23942567   2.587   7.675   5.413  1.4141  1.2563 -0.9250
   45MOL   H24042568   2.568   0.199   5.463 -1.7554 -0.6829  1.1682
   45MOL   H24142569   2.715   0.108   5.465  0.1677  0.2957 -0.1586
   45MOL   O24242570   2.705   7.719   5.654 -0.2818  0.1028 -0.7845
   45MOL   C24342571   2.744   7.675   5.790 -0.0943  0.0762 -0.0263
   45MOL   C24442572   2.878   7.725   5.829 -0.4184  0.7089  1.0993
   45MOL   C24542573   2.914   7.679   5.972  0.5587 -0.0978 -0.6275
   45MOL   C24642574   3.058   7.668   6.007  0.6060 -0.8156 -0.2627
   45MOL   C24742575   3.138   0.036   6.022  1.0625 -0.3456 -0.0304
   45MOL   C24842576   3.290   0.029   6.062  0.1987 -0.1378 -0.2631
   45MOL   C24942577   3.318   7.707   6.184  0.3372 -0.4111 -0.1737
   45MOL   C25042578   3.465   7.727   6.241  0.6349  0.0957  0.1753
   45MOL   C25142579   3.577   7.679   6.147 -0.3541  0.4224  0.0046
   45MOL   C25242580   3.711   7.714   6.211 -0.5889 -0.6683  1.0141
   45MOL   O25342581   3.806   7.644   6.131  0.2449  0.4928 -0.2267
   45MOL   C25442582   3.931   7.606   6.178 -0.3319  0.1060 -0.3508
   45MOL   O25542583   3.977   7.627   6.289  0.0003  0.4047 -0.4740
   45MOL   C25642584   4.007   7.541   6.062 -0.2842 -0.6446 -0.6193
   45MOL   C25742585   4.160   7.534   6.093  0.1912  0.0285  0.0765
   45MOL   C25842586   4.240   7.467   5.986 -0.2427  0.0347 -0.6148
   45MOL   C25942587   4.281   7.558   5.870 -0.1925 -0.0409  0.4387
   45MOL   C26042588   4.343   7.481   5.754 -0.5514 -0.4445  0.7061
   45MOL   O26142589   4.304   7.365   5.731 -0.6769  0.3290  0.5161
   45MOL   H26242590   2.659   7.698   5.854 -2.7465 -1.9646 -2.6332
   45MOL   H26342591   2.738   7.566   5.788 -1.3588  0.1094  1.5407
   45MOL   H26442592   2.894   0.068   5.821  1.3672  0.3973  0.1602
   45MOL   H26542593   2.950   7.676   5.763  0.0192  1.2322  1.1799
   45MOL   H26642594   2.876   7.750   6.045  2.5284 -0.5712  0.8951
   45MOL   H26742595   2.868   7.581   5.987 -1.5629  0.8135 -1.0107
   45MOL   H26842596   3.116   7.616   5.930  2.0299 -1.3458  1.1250
   45MOL   H26942597   3.067   7.616   6.103 -0.3877  0.5715  0.5911
   45MOL   H27042598   3.079   0.098   6.090  1.2921 -1.0823  0.8603
   45MOL   H27142599   3.115   0.084   5.927 -1.0327 -0.3491  0.4639
   45MOL   H27242600   3.321   0.130   6.089 -0.8394 -0.3711  1.9083
   45MOL   H27342601   3.361   0.005   5.983 -2.0578 -4.3106 -1.1454
   45MOL   H27442602   3.302   7.600   6.167 -0.9584 -0.3227  0.4723
   45MOL   H27542603   3.247   7.735   6.262  0.8727 -0.6413  0.4038
   45MOL   H27642604   3.471   7.678   6.338  1.0005  0.2049  0.2083
   45MOL   H27742605   3.474   0.067   6.270  1.3019 -0.5890  2.5580
   45MOL   H27842606   3.560   7.572   6.138  0.1987  0.1675  1.8614
   45MOL   H27942607   3.581   7.719   6.045  3.4012  3.3189  1.1733
   45MOL   H28042608   3.718   7.670   6.310 -0.8178  0.3205  1.4825
   45MOL   H28142609   3.720   0.058   6.205 -0.6810 -0.7023  0.2669
   45MOL   H28242610   3.964   7.441   6.059 -2.2121  0.1719 -1.0271
   45MOL   H28342611   3.997   7.605   5.974  1.0212  1.5243  0.7720
   45MOL   H28442612   4.158   7.487   6.191 -1.1031  0.1743  0.1375
   45MOL   H28542613   4.195   7.636   6.105  1.8051 -0.0339 -3.4003
   45MOL   H28642614   4.168   7.392   5.951 -0.3863 -0.7690  1.3586
   45MOL   H28742615   4.322   7.409   6.027 -0.2315  0.5116  0.0318
   45MOL   H28842616   4.354   7.631   5.905  0.1870  0.9239 -2.1911
   45MOL   H28942617   4.196   7.615   5.832  0.9353  1.3723 -0.0065
   45MOL   O29042618   4.429   7.551   5.682  0.0386 -0.0236  0.6929
   45MOL   C29142619   4.473   7.504   5.560  0.0138 -0.3437 -0.2258
   45MOL   C29242620   4.568   7.615   5.496  0.4151 -0.5239  0.3760
   45MOL   C29342621   4.575   7.607   5.345 -0.3242 -0.6673 -1.1132
   45MOL   C29442622   4.642   7.718   5.266 -0.0577 -0.0130  0.4572
   45MOL   C29542623   4.788   7.717   5.275 -0.0730 -0.0504  0.1008
   45MOL   C29642624   4.854   0.067   5.198 -0.1552 -0.6493 -0.5956
   45MOL   C29742625   5.002   0.071   5.190 -0.0311  0.5471  0.0115
   45MOL   C29842626   5.038   0.150   5.066  0.0763 -0.7960 -0.4091
   45MOL   C29942627   5.195   0.140   5.027  0.1240  0.0164  0.1557
   45MOL   C30042628   5.231   0.223   4.900  0.1760  0.8030 -0.8949
   45MOL   O30142629   5.204   0.360   4.929  0.4274 -0.6506  0.3809
   45MOL   C30242630   5.238   0.449   4.835 -0.0682  0.4742 -0.1479
   45MOL   O30342631   5.314   0.418   4.745 -0.4645 -0.4676 -0.1635
   45MOL   C30442632   5.189   0.591   4.852  0.2229 -0.0553 -0.2639
   45MOL   C30542633   5.293   0.698   4.878  0.2884 -0.7954  0.3414
   45MOL   C30642634   5.374   0.679   5.006  0.2137 -0.3570 -0.0753
   45MOL   C30742635   5.413   0.810   5.075 -0.1570 -0.0070 -0.3364
   45MOL   C30842636   5.302   0.889   5.150 -0.6396  0.1706 -0.3762
   45MOL   O30942637   5.183   0.868   5.129  0.0331 -0.0355  0.0472
   45MOL   H31042638   4.523   7.410   5.582 -2.6383 -1.7948 -0.1309
   45MOL   H31142639   4.390   7.503   5.488  1.1888  1.7271 -1.6754
   45MOL   H31242640   4.661   7.613   5.553 -0.0608  0.3475  1.1936
   45MOL   H31342641   4.527   7.713   5.519 -3.0589 -1.4604 -1.4312
   45MOL   H31442642   4.631   7.518   5.315 -1.9550 -2.0578 -0.1217
   45MOL   H31542643   4.477   7.584   5.304 -0.4467 -2.1196 -0.0208
   45MOL   H31642644   4.607   0.050   5.302 -2.1767  0.0028 -1.5288
   45MOL   H31742645   4.624   7.707   5.159 -0.4891  0.1015  0.5177
   45MOL   H31842646   4.827   7.622   5.237  2.0577 -0.6753  3.6456
   45MOL   H31942647   4.823   7.714   5.378 -0.8397 -1.6562  0.3251
   45MOL   H32042648   4.815   0.161   5.238  0.5439  0.0679 -1.5665
   45MOL   H32142649   4.816   0.064   5.095  1.3503 -1.1946 -1.1437
   45MOL   H32242650   5.047   7.736   5.191 -1.1014  0.0490 -0.4730
   45MOL   H32342651   5.032   0.129   5.277 -1.9949  0.9633  0.4269
   45MOL   H32442652   5.015   0.256   5.076  3.9232 -0.0633  1.7720
   45MOL   H32542653   4.982   0.121   4.977  1.3244  1.3350 -1.9376
   45MOL   H32642654   5.256   0.175   5.110  0.6763 -0.4401 -0.0504
   45MOL   H32742655   5.226   0.036   5.013 -0.1721  0.0072 -0.4479
   45MOL   H32842656   5.167   0.201   4.814 -0.4130 -3.2418  0.4798
   45MOL   H32942657   5.332   0.199   4.868  1.3446 -0.4970  3.4498
   45MOL   H33042658   5.131   0.601   4.760 -0.4529  0.2997  0.1958
   45MOL   H33142659   5.113   0.599   4.930  0.1441 -1.6698 -0.1524
   45MOL   H33242660   5.246   0.795   4.897 -1.9066 -1.2780 -2.3557
   45MOL   H33342661   5.367   0.713   4.800  0.9695  0.6913  1.2437
   45MOL   H33442662   5.465   0.625   4.979 -0.0757 -0.3828 -1.0050
   45MOL   H33542663   5.330   0.610   5.078  0.1291 -1.4561 -1.1485
   45MOL   H33642664   5.459   0.874   5.000 -1.1261  0.0454 -0.8960
   45MOL   H33742665   5.490   0.795   5.150 -0.1184  0.8233 -0.2009
   45MOL   O33842666   5.354   0.975   5.239 -0.5136  0.5144 -0.1840
   45MOL   C33942667   5.273   1.060   5.314  0.2584  0.1075 -0.0015
   45MOL   C34042668   5.345   1.150   5.413 -0.3992  0.1363 -0.0680
   45MOL   C34142669   5.354   1.099   5.560 -0.0848  0.3664  0.6614
   45MOL   C34242670   5.440   1.190   5.649  0.2442 -0.0584  0.0514
   45MOL   C34342671   5.596   1.170   5.654  0.0704  0.1237  0.6179
   45MOL   C34442672   5.631   1.041   5.737  0.2389 -0.0848 -0.0869
   45MOL   C34542673   5.783   1.031   5.776  0.7222  0.4201  0.5462
   45MOL   C34642674   5.874   1.016   5.656 -0.2762 -0.6540 -0.7409
   45MOL   C34742675   6.016   0.982   5.695 -0.2325  0.3947  0.5768
   45MOL   C34842676   6.107   0.971   5.573  1.0760 -0.2347  0.4434
   45MOL   O34942677   6.233   0.924   5.615  0.4233  0.3198  0.1535
   45MOL   C35042678   6.276   0.801   5.592  0.1915 -0.9698  0.3616
   45MOL   O35142679   6.211   0.716   5.533  0.2974  0.6016  0.0958
   45MOL   C35242680   6.412   0.766   5.644  0.0477  0.1576 -0.2539
   45MOL   C35342681   6.522   0.803   5.540 -0.1540 -0.3436  0.1061
   45MOL   C35442682   6.665   0.761   5.576 -0.1919 -0.5822 -0.1098
   45MOL   C35542683   6.772   0.803   5.468 -1.1225 -0.6884  0.3310
   45MOL   C35642684   6.895   0.718   5.457  0.0923 -0.5297 -0.1372
   45MOL   O35742685   6.904   0.609   5.519 -0.1165 -0.0658  0.1468
   45MOL   H35842686   5.210   1.120   5.248  0.8957 -1.3712 -1.9992
   45MOL   H35942687   5.205   1.000   5.375  0.1503 -0.0235 -0.2502
   45MOL   H36042688   5.292   1.245   5.414 -0.8498 -0.1173  1.7314
   45MOL   H36142689   5.444   1.167   5.372  0.2710 -0.1217  1.4364
   45MOL   H36242690   5.256   1.095   5.606 -0.0722 -1.9346  0.5522
   45MOL   H36342691   5.383   0.994   5.566  1.8915  0.7611 -1.1941
   45MOL   H36442692   5.408   1.196   5.753  2.9367 -0.3069  0.9298
   45MOL   H36542693   5.413   1.293   5.625  0.0037  0.1933  1.3403
   45MOL   H36642694   5.634   1.264   5.694  1.6754  0.3175 -1.2559
   45MOL   H36742695   5.634   1.158   5.552 -1.5183  0.3062 -0.0210
   45MOL   H36842696   5.610   0.962   5.665 -0.9132  0.1001  0.0364
   45MOL   H36942697   5.563   1.036   5.822  0.0413  0.1668 -0.2320
   45MOL   H37042698   5.794   0.939   5.833 -0.2441 -1.6263 -2.4473
   45MOL   H37142699   5.823   1.110   5.839  1.0208  0.1697  0.6717
   45MOL   H37242700   5.875   1.111   5.602  2.9995 -0.6895 -0.8380
   45MOL   H37342701   5.825   0.947   5.587  0.4971 -3.2459  1.2278
   45MOL   H37442702   6.052   1.060   5.761 -2.0311  2.3020 -0.6493
   45MOL   H37542703   6.015   0.887   5.750  0.8611  2.0511  3.5649
   45MOL   H37642704   6.115   1.066   5.521 -0.8460 -0.9958 -1.3096
   45MOL   H37742705   6.060   0.910   5.496  1.5607  1.4173 -1.1763
   45MOL   H37842706   6.419   0.819   5.738 -0.6782 -0.9723  0.4488
   45MOL   H37942707   6.424   0.661   5.672  0.2608 -0.2845 -1.9135
   45MOL   H38042708   6.519   0.911   5.522  0.9562 -0.7056 -2.4211
   45MOL   H38142709   6.490   0.761   5.445  1.5230 -1.5337  0.0547
   45MOL   H38242710   6.678   0.653   5.584  1.1521 -0.4399 -0.1874
   45MOL   H38342711   6.694   0.806   5.671 -0.3735  0.9792 -0.7797
   45MOL   H38442712   6.792   0.910   5.473  0.5749 -0.9665 -0.2931
   45MOL   H38542713   6.727   0.793   5.370 -0.4956 -0.2616 -0.0005
   45MOL   O38642714   6.981   0.765   5.368 -0.2934  0.0596 -0.1594
   45MOL   C38742715   7.108   0.700   5.350  1.0567 -0.5704 -0.5996
   45MOL   C38842716   7.125   0.666   5.200  0.0069  0.6606  0.2472
   45MOL   C38942717   7.279   0.661   5.165 -0.0803  0.7225 -1.4266
   45MOL   C39042718   7.316   0.616   5.024 -0.1101  0.2729  0.0138
   45MOL   C39142719   7.464   0.628   4.996  0.0115 -0.2597 -0.2704
   45MOL   C39242720   7.509   0.585   4.859  0.3153  0.3812 -0.3936
   45MOL   C39342721   7.659   0.577   4.837  0.5288 -0.9683  0.0726
   45MOL   C39442722   7.710   0.551   4.697  0.2434  0.1309 -0.0904
   45MOL   C39542723   0.096   0.524   4.703  0.0115 -0.3514 -0.4993
   45MOL   C39642724   0.165   0.531   4.560 -0.4727  0.4299 -0.1000
   45MOL   O39742725   0.101   0.424   4.485 -0.3104  0.6569  0.3480
   45MOL   C39842726   0.099   0.435   4.351 -0.7235 -0.0624 -0.6900
   45MOL   O39942727   0.120   0.541   4.285  0.4837 -0.9624 -0.1076
   45MOL   C40042728   0.046   0.316   4.280 -0.4617  0.3279 -0.3392
   45MOL   C40142729   7.660   0.289   4.275 -0.2833  0.2030  0.9142
   45MOL   C40242730   7.622   0.155   4.219  0.2963  0.2776 -0.0273
   45MOL   C40342731   7.478   0.145   4.160 -0.0454 -0.0409  0.8306
   45MOL   C40442732   7.359   0.129   4.255  0.1868 -0.2990  0.2261
   45MOL   O40542733   7.246   0.110   4.211 -0.2163  0.5267  0.2738
   45MOL   H40642734   7.177   0.774   5.389 -1.0202  0.0468  2.0693
   45MOL   H40742735   7.131   0.613   5.411 -0.3571 -1.5908 -1.4861
   45MOL   H40842736   7.074   0.736   5.134 -0.7013 -0.3207 -0.2614
   45MOL   H40942737   7.078   0.568   5.197 -0.2385  0.6992  2.2719
   45MOL   H41042738   7.317   0.761   5.187  0.9079 -0.3112  1.9062
   45MOL   H41142739   7.314   0.586   5.236 -3.3242  0.5600  0.0825
   45MOL   H41242740   7.263   0.681   4.955  0.3541 -1.0680 -1.6370
   45MOL   H41342741   7.282   0.514   5.006  1.1910  0.1299 -1.7330
   45MOL   H41442742   7.502   0.560   5.072  2.5775 -0.8295 -1.9774
   45MOL   H41542743   7.515   0.716   5.033  0.5288 -1.7815  2.7686
   45MOL   H41642744   7.464   0.654   4.787  1.4510  0.3724 -1.1267
   45MOL   H41742745   7.454   0.495   4.830  0.5008 -0.0205  0.4982
   45MOL   H41842746   7.688   0.491   4.898  1.5728  0.4976  1.7104
   45MOL   H41942747   7.715   0.661   4.880 -0.8088  0.7814 -1.5051
   45MOL   H42042748   7.689   0.642   4.641 -0.2280  0.6029  0.8549
   45MOL   H42142749   7.658   0.464   4.657  0.1295  0.5278 -0.8185
   45MOL   H42242750   0.141   0.600   4.767  0.9314  0.7114 -2.3818
   45MOL   H42342751   0.113   0.425   4.744 -3.2430 -1.8199 -2.4970
   45MOL   H42442752   0.273   0.514   4.554 -0.8378 -1.3997 -2.4158
   45MOL   H42542753   0.142   0.628   4.516  0.8223  0.9180  0.2692
   45MOL   H42642754   0.083   0.329   4.178  1.8240  0.0267  0.4134
   45MOL   H42742755   0.098   0.230   4.322  0.2406  0.6149 -0.6075
   45MOL   H42842756   7.620   0.355   4.198 -1.2140 -2.8379 -1.2876
   45MOL   H42942757   7.610   0.311   4.369 -1.6090 -0.6767  0.4296
   45MOL   H43042758   7.633   0.089   4.305 -2.4280 -0.5646 -0.2925
   45MOL   H43142759   7.692   0.118   4.143 -0.5163  0.0291 -0.6550
   45MOL   H43242760   7.484   0.052   4.104  1.3699  1.3585 -1.4474
   45MOL   H43342761   7.469   0.217   4.079  3.5689  1.9102  2.0384
   45MOL   O43442762   7.392   0.130   4.385  0.5044 -0.1477 -0.1743
   45MOL   C43542763   7.302   0.133   4.492  0.1986  0.3742 -0.2851
   45MOL   C43642764   7.368   0.161   4.627 -0.4002 -0.6181 -0.5511
   45MOL   C43742765   7.263   0.147   4.737 -0.7992  0.2790 -0.0499
   45MOL   C43842766   7.321   0.205   4.875 -0.4654  0.0652  0.0361
   45MOL   C43942767   7.230   0.185   5.001 -0.8876  0.3968 -0.7760
   45MOL   C44042768   7.293   0.229   5.135  0.2743  0.0566 -0.0672
   45MOL   C44142769   7.209   0.187   5.258 -0.8148 -0.1007 -0.5555
   45MOL   C44242770   7.271   0.230   5.399  0.0692 -0.0173 -0.4230
   45MOL   C44342771   7.243   0.373   5.442 -0.3299  0.5357  0.0922
   45MOL   C44442772   7.252   0.391   5.594 -0.0887 -0.4603 -0.7544
   45MOL   O44542773   7.240   0.525   5.630 -0.3712  0.1613 -0.0808
   45MOL   C44642774   7.236   0.554   5.766 -0.0718 -0.1036  0.1664
   45MOL   O44742775   7.241   0.469   5.862  0.0951 -0.6087  0.1283
   45MOL   C44842776   7.200   0.704   5.802 -0.0688  0.0827 -0.0264
   45MOL   C44942777   7.312   0.804   5.813 -0.4583 -0.1305 -0.4390
   45MOL   C45042778   7.397   0.813   5.684  0.5671  0.3002  1.0134
   45MOL   C45142779   7.501   0.928   5.708  0.6874  1.1535 -0.0843
   45MOL   C45242780   7.601   0.928   5.597  0.4615 -0.5179 -0.6144
   45MOL   O45342781   7.707   0.867   5.618 -0.5481 -0.2869  0.1731
   45MOL   H45442782   7.214   0.193   4.470  0.5724  1.1929  0.4431
   45MOL   H45542783   7.260   0.032   4.497 -0.4196  0.6929  1.1123
   45MOL   H45642784   7.419   0.258   4.629  2.6604 -2.1402 -1.1817
   45MOL   H45742785   7.444   0.083   4.617  0.9266  0.8122 -2.0091
   45MOL   H45842786   7.171   0.199   4.711 -2.2003 -2.0112  0.1467
   45MOL   H45942787   7.228   0.044   4.748  0.5942 -0.3022 -0.9464
   45MOL   H46042788   7.335   0.313   4.874 -1.6699  0.2225 -1.0021
   45MOL   H46142789   7.420   0.169   4.900 -0.9894 -1.8804 -0.6526
   45MOL   H46242790   7.224   0.076   4.997  0.9576  0.3163 -1.6574
   45MOL   H46342791   7.129   0.221   4.979 -1.2922 -0.5312 -0.4609
   45MOL   H46442792   7.320   0.333   5.148  0.0108  0.0520  0.5374
   45MOL   H46542793   7.394   0.189   5.136  0.9610  1.7730  1.0108
   45MOL   H46642794   7.218   0.078   5.262  1.2965  0.0799  0.4137
   45MOL   H46742795   7.104   0.213   5.243 -0.9857 -0.1342  0.5360
   45MOL   H46842796   7.377   0.204   5.402 -0.4195 -2.3072 -2.1910
   45MOL   H46942797   7.222   0.175   5.479 -4.7715  0.4832 -2.8899
   45MOL   H47042798   7.319   0.434   5.393  1.4485 -0.0277  2.0540
   45MOL   H47142799   7.146   0.413   5.413  0.6352  3.2551  0.5014
   45MOL   H47242800   7.346   0.350   5.630 -0.4283  1.3429  2.4035
   45MOL   H47342801   7.171   0.334   5.638 -0.5258 -0.1698 -1.1815
   45MOL   H47442802   7.128   0.742   5.729  0.2193 -1.4624 -1.1331
   45MOL   H47542803   7.153   0.699   5.900  1.6395 -0.9594  0.7574
   45MOL   H47642804   7.378   0.774   5.894 -0.3832  1.2123  0.0105
   45MOL   H47742805   7.268   0.902   5.829  1.5555  0.5919  0.8231
   45MOL   H47842806   7.333   0.843   5.602  2.7769 -0.2834 -0.9704
   45MOL   H47942807   7.450   0.721   5.660 -1.0552 -1.0516  2.4500
   45MOL   H48042808   7.562   0.916   5.798 -0.7462  0.1022  0.7602
   45MOL   H48142809   7.458   1.027   5.721 -0.0654  1.1438 -2.3319
   45MOL   O48242810   7.576   1.000   5.487  0.5686  0.0430 -0.3758
   45MOL   C48342811   7.685   1.020   5.398 -0.1643 -0.2235 -1.2086
   45MOL   C48442812   7.639   1.013   5.253  0.0545  1.0741 -0.7524
   45MOL   C48542813   7.743   0.982   5.145 -0.0207 -0.5004  0.9645
   45MOL   C48642814   7.701   0.998   4.998  0.0503 -1.0132 -0.0659
   45MOL   C48742815   0.046   0.969   4.897 -0.0709 -0.4316  0.4490
   45MOL   C48842816   7.759   0.962   4.751  0.3155  0.9338 -0.2612
   45MOL   C48942817   0.105   0.914   4.647 -0.6491  0.2350  0.9261
   45MOL   C49042818   0.053   0.891   4.502 -0.6414 -0.7927 -1.1158
   45MOL   C49142819   0.155   0.919   4.389  0.5453 -0.4799 -0.3544
   45MOL   C49242820   0.100   0.888   4.250 -0.7537  0.1184 -0.6056
   45MOL   O49342821   7.749   0.966   4.237 -0.3050  0.0695  0.4024
   45MOL   C49442822   7.706   0.989   4.106  0.2226 -0.0594  0.3657
   45MOL   O49542823   0.003   0.954   4.007  0.4350  0.3552 -0.6333
   45MOL   C49642824   7.572   1.062   4.103 -0.3294 -0.4922  0.4826
   45MOL   C49742825   7.456   0.981   4.165  0.5070 -0.2651 -0.4183
   45MOL   C49842826   7.318   1.053   4.146  0.0621 -0.0633 -0.6024
   45MOL   C49942827   7.203   1.032   4.254  0.1628  0.2092 -0.0831
   45MOL   C50042828   7.100   0.932   4.221  0.7813  0.2742  0.4684
   45MOL   O50142829   7.125   0.829   4.163 -0.4860 -0.3239 -0.2811
   45MOL   H50242830   7.720   1.123   5.406  0.2402 -0.4868  0.6183
   45MOL   H50342831   0.012   0.963   5.414 -0.6181  0.0353  2.7328
   45MOL   H50442832   7.602   1.113   5.235 -1.4097  1.1659  2.3831
   45MOL   H50542833   7.567   0.932   5.243  0.4328  0.6083  0.2290
   45MOL   H50642834   0.069   1.040   5.165  0.7128 -1.6814  1.0542
   45MOL   H50742835   0.011   0.881   5.166 -1.4027 -1.4553 -1.3610
   45MOL   H50842836   7.660   1.097   4.978 -0.5314 -0.6583  2.6710
   45MOL   H50942837   7.612   0.935   4.983 -0.8116  0.3442 -0.8012
   45MOL   H51042838   0.083   0.870   4.923  1.7781  0.2604  0.5141
   45MOL   H51142839   0.134   1.033   4.898 -1.6270  1.7992  1.0403
   45MOL   H51242840   7.720   1.062   4.738 -0.8194  0.3635 -1.2679
   45MOL   H51342841   7.693   0.875   4.749  2.2353 -0.7508  3.6298
   45MOL   H51442842   0.150   0.820   4.680  0.7517  0.5440 -0.0559
   45MOL   H51542843   0.190   0.982   4.653  2.1718 -3.2663  3.3616
   45MOL   H51642844   7.732   0.955   4.479  1.0640  1.1843 -2.1229
   45MOL   H51742845   0.003   0.794   4.499 -2.5321 -0.2219  4.5428
   45MOL   H51842846   0.203   1.016   4.401  0.9493 -0.6408 -0.6481
   45MOL   H51942847   0.243   0.855   4.395  0.1240 -0.9830  0.5578
   45MOL   H52042848   0.063   0.786   4.241  1.3377 -0.5287 -2.4762
   45MOL   H52142849   0.176   0.914   4.176  2.4957 -0.0995  2.5368
   45MOL   H52242850   7.572   1.149   4.168 -3.1938 -1.4058  1.7799
   45MOL   H52342851   7.562   1.084   3.996  1.8772  0.5606  0.4753
   45MOL   H52442852   7.474   0.958   4.270 -0.0940 -0.3334 -0.3246
   45MOL   H52542853   7.450   0.885   4.114  0.5085 -1.0057  0.9458
   45MOL   H52642854   7.282   1.037   4.045 -3.9832 -1.2897  0.9253
   45MOL   H52742855   7.338   1.161   4.148 -0.0590 -0.0528  0.9743
   45MOL   H52842856   7.152   1.127   4.268 -0.7474 -0.3362  0.3844
   45MOL   H52942857   7.251   1.015   4.351  2.9593  0.8767 -1.2826
   45MOL   O53042858   6.975   0.979   4.248  0.1700  0.4259 -0.0662
   45MOL   C53142859   6.859   0.903   4.211 -0.1632  0.1954  0.2172
   45MOL   C53242860   6.741   0.950   4.293  0.1564 -0.7407  0.4795
   45MOL   C53342861   6.766   0.921   4.442 -0.1507  0.0591 -0.0456
   45MOL   C53442862   6.643   0.962   4.518  1.0394  0.2767 -0.4056
   45MOL   C53542863   6.662   0.919   4.665  0.2577  0.3509 -0.0148
   45MOL   C53642864   6.773   0.989   4.734  0.4318 -0.4243 -0.3101
   45MOL   C53742865   6.764   0.977   4.890 -0.1435  0.1872 -0.3321
   45MOL   C53842866   6.877   1.044   4.964  0.0102 -0.1893  0.7200
   45MOL   C53942867   6.887   1.020   5.115 -0.1093 -0.0607 -0.2670
   45MOL   C54042868   6.997   1.102   5.189  0.3554  0.1074  0.6508
   45MOL   O54142869   7.119   1.077   5.116  0.3969 -0.3613  0.2304
   45MOL   C54242870   7.232   1.127   5.157 -0.0307  0.0153  0.4091
   45MOL   O54342871   7.250   1.207   5.245  0.1682 -0.3359 -0.0608
   45MOL   C54442872   7.349   1.079   5.068 -0.1276 -0.6264 -0.7181
   45MOL   C54542873   7.319   1.106   4.922  0.4988  0.3356 -0.5033
   45MOL   C54642874   7.356   0.980   4.836  0.3356  0.3019 -0.4960
   45MOL   C54742875   7.339   1.007   4.690  0.1277  0.8009 -0.8731
   45MOL   C54842876   7.197   1.025   4.648 -0.3644 -0.1040  0.3354
   45MOL   O54942877   7.108   0.945   4.677 -0.5166 -0.2798 -0.1300
   45MOL   H55042878   6.837   0.913   4.105 -0.6962 -0.9135  0.2207
   45MOL   H55142879   6.874   0.798   4.238  1.7415  0.5283  0.4939
   45MOL   H55242880   6.661   0.890   4.250 -1.8719  1.4675  1.0753
   45MOL   H55342881   6.735   1.055   4.265  0.2726 -0.5782  1.0553
   45MOL   H55442882   6.785   0.818   4.470  0.2794 -0.3419 -1.7712
   45MOL   H55542883   6.855   0.975   4.477  0.8018 -1.6530  0.2040
   45MOL   H55642884   6.554   0.918   4.473  0.3840  0.7993  0.3692
   45MOL   H55742885   6.627   1.070   4.521  2.6811  0.5219  0.6316
   45MOL   H55842886   6.672   0.811   4.680  1.1800  0.6458  1.4873
   45MOL   H55942887   6.571   0.961   4.708  1.2371  1.6518  0.8096
   45MOL   H56042888   6.771   1.097   4.721 -0.6367 -0.1205  2.0023
   45MOL   H56142889   6.873   0.956   4.706  0.1745 -1.2109 -0.3167
   45MOL   H56242890   6.769   0.872   4.918 -0.8951  1.1217  3.5621
   45MOL   H56342891   6.666   1.005   4.929  0.1157  0.0004  0.4597
   45MOL   H56442892   6.878   1.151   4.944 -1.7694  0.0590  1.7966
   45MOL   H56542893   6.961   0.995   4.917 -1.2851 -1.1432 -0.6122
   45MOL   H56642894   6.788   1.048   5.152 -0.3042 -0.6643 -0.3198
   45MOL   H56742895   6.899   0.916   5.145 -0.3817 -0.2968 -0.9719
   45MOL   H56842896   6.993   1.063   5.290  2.9061 -2.7128 -0.2652
   45MOL   H56942897   6.960   1.204   5.187  0.3276  0.0894 -3.0195
   45MOL   H57042898   7.439   1.132   5.100  0.3754 -0.9067 -1.6501
   45MOL   H57142899   7.356   0.972   5.086 -2.7874 -0.8858 -1.0663
   45MOL   H57242900   7.379   1.189   4.885  0.0825  0.7231 -0.3218
   45MOL   H57342901   7.215   1.133   4.901  0.2157  1.0807  1.6915
   45MOL   H57442902   7.289   0.898   4.859  0.6317 -0.0311 -0.8195
   45MOL   H57542903   7.452   0.933   4.858  0.2058 -0.8495 -2.3518
   45MOL   H57642904   7.367   0.923   4.626 -1.8180 -2.6543  2.6331
   45MOL   H57742905   7.398   1.096   4.667  0.4498  0.8249  0.0095
   45MOL   O57842906   7.189   1.148   4.593  0.0630 -0.3012  0.1196
   45MOL   C57942907   7.061   1.199   4.562 -0.5374  0.2342  0.0228
   45MOL   C58042908   7.080   1.338   4.499  0.2308 -0.0010  0.1555
   45MOL   C58142909   6.949   1.373   4.415 -0.7503  0.1410  0.1573
   45MOL   C58242910   6.958   1.510   4.357  0.2437 -0.5834 -0.4166
   45MOL   C58342911   6.832   1.545   4.273  0.7233 -0.1509 -0.1183
   45MOL   C58442912   6.839   1.688   4.226  0.3168 -0.2276  0.6101
   45MOL   C58542913   6.743   1.717   4.108  0.6081  0.0999 -0.3954
   45MOL   C58642914   6.706   1.868   4.101  0.2210  0.4971  0.4439
   45MOL   C58742915   6.608   1.912   3.994  0.4819 -0.8234  0.0230
   45MOL   C58842916   6.608   2.065   3.981  0.1340 -0.4253 -0.5605
   45MOL   O58942917   6.511   2.112   3.885 -0.4222 -0.0845  0.0725
   45MOL   C59042918   6.378   2.107   3.907 -0.1012 -0.7410  0.0120
   45MOL   O59142919   6.311   2.057   4.005 -0.3013  0.3108 -0.3568
   45MOL   C59242920   6.294   2.168   3.794  0.4576  0.5692 -0.4886
   45MOL   C59342921   6.322   2.096   3.669  0.2348  0.5537  0.8546
   45MOL   C59442922   6.246   1.963   3.673  0.2919 -0.2336  0.5611
   45MOL   C59542923   6.264   1.875   3.554  0.3206  0.0023  0.6551
   45MOL   C59642924   6.391   1.794   3.570  0.3037  0.0473  0.4779
   45MOL   O59742925   6.499   1.839   3.531  0.9761 -0.0343 -0.6216
   45MOL   H59842926   7.012   1.124   4.500 -0.7513  1.4507 -1.2968
   45MOL   H59942927   6.998   1.198   4.651  0.0772  1.9767  0.4870
   45MOL   H60042928   7.165   1.340   4.430  1.7223  1.2044  1.9751
   45MOL   H60142929   7.100   1.410   4.578 -1.2005 -0.2286  0.7322
   45MOL   H60242930   6.941   1.312   4.325 -1.5913  1.0668 -0.4093
   45MOL   H60342931   6.858   1.366   4.474 -1.8386  0.2828 -1.4731
   45MOL   H60442932   7.043   1.506   4.288  0.0170 -5.0297 -0.5664
   45MOL   H60542933   6.987   1.582   4.433 -2.2543 -0.4687  0.4474
   45MOL   H60642934   6.734   1.523   4.317  1.5675 -0.3385  1.7272
   45MOL   H60742935   6.833   1.478   4.187  2.1749 -1.0672  0.5977
   45MOL   H60842936   6.944   1.701   4.200  0.6672 -0.5276  1.8521
   45MOL   H60942937   6.817   1.753   4.310  2.2972  0.4074  0.6612
   45MOL   H61042938   6.645   1.675   4.130  0.1327 -0.2290 -3.0404
   45MOL   H61142939   6.775   1.681   4.010  1.8679  1.2426 -0.4248
   45MOL   H61242940   6.793   1.934   4.101  1.0897 -0.6369 -0.7631
   45MOL   H61342941   6.660   1.889   4.198  1.4618  1.7491  0.7884
   45MOL   H61442942   6.653   1.878   3.901 -1.0174  0.9374 -1.3737
   45MOL   H61542943   6.513   1.861   4.010 -2.1400  3.0484 -2.4733
   45MOL   H61642944   6.703   2.095   3.937 -0.5507 -0.7545 -2.2705
   45MOL   H61742945   6.595   2.110   4.079  0.4835 -1.9339  0.2044
   45MOL   H61842946   6.187   2.170   3.815  0.5953  1.2722  0.1333
   45MOL   H61942947   6.324   2.270   3.773 -3.1016  1.5113 -1.3309
   45MOL   H62042948   6.427   2.079   3.645 -0.0751 -0.9621  0.4879
   45MOL   H62142949   6.276   2.162   3.596  1.4756  0.1071 -0.3552
   45MOL   H62242950   6.140   1.988   3.684  0.1831  0.0452 -0.9727
   45MOL   H62342951   6.268   1.903   3.762  1.4733 -0.8693 -0.1482
   45MOL   H62442952   6.281   1.928   3.461  1.6172 -0.8518  0.3903
   45MOL   H62542953   6.185   1.801   3.543  0.9397 -0.3149 -1.9279
   45MOL   O62642954   6.370   1.677   3.636  0.1833 -0.3448  0.5367
   45MOL   C62742955   6.478   1.593   3.662 -0.3836  0.8919 -0.6498
   45MOL   C62842956   6.428   1.457   3.703 -0.5154 -0.1750  0.9652
   45MOL   C62942957   6.343   1.457   3.830  0.3571  0.1937  0.5979
   45MOL   C63042958   6.271   1.319   3.839  0.4908 -0.7287 -0.5972
   45MOL   C63142959   6.182   1.313   3.959  0.4422  0.5977  0.7059
   45MOL   C63242960   6.076   1.201   3.971 -0.0399  0.4214  0.2420
   45MOL   C63342961   5.980   1.213   4.086  0.1195  0.1755 -0.2315
   45MOL   C63442962   5.868   1.112   4.091 -0.1219 -0.0019 -0.4217
   45MOL   C63542963   5.751   1.178   4.162  0.4721  0.9607  0.5822
   45MOL   C63642964   5.644   1.073   4.200 -0.4790  0.1426  0.5620
   45MOL   O63742965   5.666   0.993   4.313 -0.2723 -0.1996  0.2807
   45MOL   C63842966   5.651   1.043   4.438  0.5388  0.3323  0.2223
   45MOL   O63942967   5.604   1.153   4.466 -0.4894 -0.1059  0.4584
   45MOL   C64042968   5.694   0.937   4.545  0.8033  0.0769  0.0774
   45MOL   C64142969   5.598   0.814   4.547 -0.1453  0.2517 -1.0005
   45MOL   C64242970   5.633   0.691   4.459  0.3527  0.7302  0.2496
   45MOL   C64342971   5.528   0.577   4.480 -0.5449  0.4101  0.6313
   45MOL   C64442972   5.396   0.616   4.403 -0.0406  0.0192 -0.0562
   45MOL   O64542973   5.289   0.645   4.456  0.0254  0.0007  0.2891
   45MOL   H64642974   6.548   1.597   3.578 -0.1009  1.9560 -0.3591
   45MOL   H64742975   6.543   1.628   3.742 -0.3602 -0.5051 -0.0423
   45MOL   H64842976   6.516   1.393   3.710 -0.7508 -0.7297 -0.7668
   45MOL   H64942977   6.376   1.415   3.617 -0.3865  2.7113 -0.5967
   45MOL   H65042978   6.412   1.464   3.915  0.3501 -0.0696  0.6269
   45MOL   H65142979   6.271   1.537   3.843  1.9448  1.3903  2.3505
   45MOL   H65242980   6.337   1.232   3.837  0.6758 -0.5705 -1.7898
   45MOL   H65342981   6.213   1.318   3.746  0.1482 -0.4055 -0.3883
   45MOL   H65442982   6.129   1.408   3.972  0.9652  0.8172  1.2298
   45MOL   H65542983   6.238   1.301   4.051  0.8737 -1.0378  0.2403
   45MOL   H65642984   6.128   1.105   3.966 -0.3888  0.2494 -0.2316
   45MOL   H65742985   6.026   1.208   3.874  2.4490  2.0019 -0.9623
   45MOL   H65842986   5.944   1.315   4.072 -1.4159 -0.4387 -0.8523
   45MOL   H65942987   6.034   1.201   4.180  2.5437  0.4387 -1.5578
   45MOL   H66042988   5.909   1.022   4.138 -0.1451 -0.0889 -0.5681
   45MOL   H66142989   5.841   1.097   3.987  1.0941 -0.4922 -0.6835
   45MOL   H66242990   5.779   1.239   4.247 -1.3278  2.1928  0.3332
   45MOL   H66342991   5.717   1.256   4.094  0.7034  0.7220  0.1917
   45MOL   H66442992   5.631   0.999   4.122  1.1772  0.6150 -0.1747
   45MOL   H66542993   5.552   1.128   4.220 -1.0211 -0.3859 -0.4616
   45MOL   H66642994   5.794   0.908   4.514  0.6279  1.8563 -2.3928
   45MOL   H66742995   5.701   0.977   4.646  1.4782 -1.9330  0.8523
   45MOL   H66842996   5.491   0.833   4.539 -0.5423 -2.2860 -2.2013
   45MOL   H66942997   5.605   0.778   4.650  0.1782  3.0727  0.0044
   45MOL   H67042998   5.728   0.654   4.496  0.6065  0.3693 -0.7765
   45MOL   H67142999   5.636   0.716   4.353 -2.3705  0.7902  0.1474
   45MOL   H67243000   5.507   0.564   4.586 -0.4438 -0.2529  0.5697
   45MOL   H67343001   5.558   0.479   4.444  1.3852  0.3848  2.1853
   45MOL   O67443002   5.415   0.623   4.267 -0.4371 -0.3579 -0.1885
   45MOL   C67543003   5.303   0.649   4.186  0.8844  0.3833  0.6077
   45MOL   C67643004   5.358   0.647   4.044 -0.1519  0.0927  0.3575
   45MOL   C67743005   5.459   0.758   4.012  0.0897 -0.0794  0.3915
   45MOL   C67843006   5.495   0.785   3.866 -0.0073 -0.3141  0.0893
   45MOL   C67943007   5.607   0.884   3.849 -0.7582 -0.2465 -1.4477
   45MOL   C68043008   5.661   0.888   3.708 -0.3705 -0.5759  0.5418
   45MOL   C68143009   5.789   0.970   3.716 -0.2917  0.8574  0.3895
   45MOL   C68243010   5.856   0.984   3.579  0.0889  0.2675  0.0384
   45MOL   C68343011   6.008   1.024   3.586 -0.3157 -0.4100 -1.0990
   45MOL   C68443012   6.076   1.025   3.446 -0.2915  0.2972 -0.2007
   45MOL   O68543013   5.989   1.083   3.358 -0.5847 -0.2128  0.3320
   45MOL   C68643014   6.031   1.106   3.237  0.1285 -0.4480 -0.0681
   45MOL   O68743015   6.143   1.093   3.197 -0.5141 -0.5033  0.5143
   45MOL   C68843016   5.916   1.156   3.148 -0.1649  0.3170 -0.3190
   45MOL   C68943017   5.806   1.050   3.129  0.1007  0.2081 -0.0666
   45MOL   C69043018   5.714   1.069   3.013 -0.4060  0.0807  0.6334
   45MOL   C69143019   5.622   0.951   2.997 -0.3447  0.5286  0.3600
   45MOL   C69243020   5.527   0.978   2.881 -0.4425  0.0362  0.4806
   45MOL   O69343021   5.404   0.983   2.896  0.3304 -0.6299 -0.1783
   45MOL   H69443022   5.227   0.571   4.193  2.0618 -0.8843 -0.5931
   45MOL   H69543023   5.251   0.743   4.202  1.0744  0.7198 -0.7324
   45MOL   H69643024   5.273   0.663   3.977 -0.0522  1.1656  0.4822
   45MOL   H69743025   5.399   0.550   4.015 -0.5904  0.4854 -1.6296
   45MOL   H69843026   5.426   0.852   4.056  1.7167  0.4098  0.6191
   45MOL   H69943027   5.553   0.735   4.063  0.5248 -0.4691 -0.5833
   45MOL   H70043028   5.404   0.826   3.822  0.2378  0.0609 -0.0770
   45MOL   H70143029   5.516   0.689   3.820 -1.7261 -0.2958 -0.7552
   45MOL   H70243030   5.688   0.852   3.915 -1.4986 -0.7352 -0.7650
   45MOL   H70343031   5.594   0.985   3.888  0.8824 -1.8427  3.5673
   45MOL   H70443032   5.585   0.942   3.652  1.4958  3.0133  1.2918
   45MOL   H70543033   5.673   0.794   3.655 -0.6881  0.0773 -0.7037
   45MOL   H70643034   5.856   0.919   3.784  0.9558  1.8108 -0.1129
   45MOL   H70743035   5.774   1.069   3.759  0.2948  1.0558  0.1388
   45MOL   H70843036   5.796   1.052   3.519 -0.8472  1.2612  2.0438
   45MOL   H70943037   5.850   0.892   3.521 -0.0154  0.4499 -0.2409
   45MOL   H71043038   6.005   1.127   3.621  1.6791 -1.0086  0.9041
   45MOL   H71143039   6.068   0.972   3.661  0.8698  1.4443 -0.7202
   45MOL   H71243040   6.082   0.918   3.424 -0.1690  0.3508 -0.4287
   45MOL   H71343041   6.172   1.077   3.449  0.2127 -0.5535 -1.0154
   45MOL   H71443042   5.867   1.245   3.187  1.6349  1.6386 -0.9967
   45MOL   H71543043   5.959   1.175   3.049  2.1031  0.0820  0.5916
   45MOL   H71643044   5.752   1.045   3.223  0.0305 -1.7400 -0.1867
   45MOL   H71743045   5.849   0.951   3.113 -1.3549 -0.2026 -1.6502
   45MOL   H71843046   5.770   1.080   2.921 -0.3455  0.2486  0.6900
   45MOL   H71943047   5.664   1.165   3.028 -0.2176  0.3563 -0.4834
   45MOL   H72043048   5.578   0.928   3.093 -0.9613  0.6937  0.1187
   45MOL   H72143049   5.676   0.861   2.964 -1.8876  0.2513 -1.5186
   45MOL   O72243050   5.591   0.977   2.764  0.0051 -0.2497 -0.0842
   45MOL   C72343051   5.537   0.993   2.633  0.4212  0.0800  0.6084
   45MOL   C72443052   5.648   1.041   2.539 -0.3649 -0.0703 -0.2177
   45MOL   C72543053   5.746   1.146   2.588  0.3758 -1.0596 -0.2178
   45MOL   C72643054   5.660   1.255   2.656 -0.0262 -0.8052  0.1300
   45MOL   C72743055   5.744   1.376   2.695  0.6402 -0.4552 -0.0015
   45MOL   C72843056   5.660   1.510   2.716  0.3370  1.0483  0.1872
   45MOL   C72943057   5.545   1.512   2.817  0.3080 -0.2896 -0.2181
   45MOL   C73043058   5.451   1.633   2.803  0.0925  0.7726  0.0910
   45MOL   C73143059   5.327   1.621   2.893 -0.3009  0.2016 -0.3163
   45MOL   C73243060   5.229   1.738   2.891 -0.6170  0.1174 -0.0564
   45MOL   O73343061   5.154   1.731   2.771 -0.0606 -0.3761 -0.1619
   45MOL   C73443062   5.028   1.704   2.774  0.6349  0.3462 -0.4272
   45MOL   O73543063   4.961   1.673   2.873 -0.1101  0.6938 -0.3965
   45MOL   C73643064   4.966   1.695   2.635  0.7758 -0.2275  0.8799
   45MOL   C73743065   4.980   1.553   2.584 -0.3155 -0.0968 -0.0889
   45MOL   C73843066   5.110   1.531   2.504 -0.2669 -0.2179 -0.1851
   45MOL   C73943067   5.100   1.401   2.416  0.0872 -0.2341 -0.7638
   45MOL   C74043068   5.142   1.283   2.509 -0.9655  0.6469  0.4312
   45MOL   O74143069   5.251   1.226   2.500  0.3552 -0.3677  0.2262
   45MOL   H74243070   5.510   0.895   2.593  1.8350  1.1083 -2.9504
   45MOL   H74343071   5.457   1.066   2.624  0.6256  0.0528 -1.7111
   45MOL   H74443072   5.599   1.084   2.452 -1.9880 -1.2193  0.1154
   45MOL   H74543073   5.712   0.962   2.501 -0.0133  0.4152 -0.6421
   45MOL   H74643074   5.820   1.099   2.653 -0.7181 -2.9165 -0.3099
   45MOL   H74743075   5.802   1.188   2.504  1.0404  0.2261  0.8313
   45MOL   H74843076   5.602   1.213   2.739  0.9039 -0.5504  0.9121
   45MOL   H74943077   5.590   1.283   2.577  0.1413  0.2234  0.3500
   45MOL   H75043078   5.835   1.386   2.635  2.0315  2.4794  2.4398
   45MOL   H75143079   5.787   1.358   2.794 -0.9683  1.0914  1.0029
   45MOL   H75243080   5.614   1.534   2.620  0.0791 -1.9806 -0.5026
   45MOL   H75343081   5.733   1.591   2.726  0.8377  0.6649 -0.3116
   45MOL   H75443082   5.600   1.502   2.911 -1.1942  0.9759  0.8297
   45MOL   H75543083   5.477   1.428   2.812 -0.4156  0.2582  0.3210
   45MOL   H75643084   5.411   1.637   2.701  1.6953  3.1797 -0.4776
   45MOL   H75743085   5.510   1.722   2.822  3.4737 -1.3538 -0.1094
   45MOL   H75843086   5.273   1.528   2.907 -0.8923  0.8110  1.6842
   45MOL   H75943087   5.366   1.629   2.995 -0.1546 -0.7740 -0.2883
   45MOL   H76043088   5.288   1.830   2.894  0.7059 -0.7290  0.3436
   45MOL   H76143089   5.158   1.748   2.974 -0.6366  0.7960 -0.1584
   45MOL   H76243090   4.862   1.728   2.631  1.1564  1.0595  1.2778
   45MOL   H76343091   5.023   1.760   2.568 -1.1763  0.3270 -0.2793
   45MOL   H76443092   4.895   1.528   2.520 -0.1512  0.6566 -0.6125
   45MOL   H76543093   4.977   1.472   2.656  1.5772  0.1831  0.3315
   45MOL   H76643094   5.199   1.535   2.567  0.7097  1.0829 -1.6391
   45MOL   H76743095   5.139   1.610   2.435 -1.0786 -0.3103 -0.6458
   45MOL   H76843096   5.179   1.410   2.340 -0.3089  1.6791 -0.9634
   45MOL   H76943097   5.004   1.388   2.366 -0.5661 -1.0806  0.6900
   45MOL   O77043098   5.050   1.250   2.600 -0.4085  0.5860  0.2251
   45MOL   C77143099   5.080   1.158   2.704 -0.4450  0.4146 -0.5786
   45MOL   C77243100   5.007   1.030   2.674 -0.0173  0.1753  0.4004
   45MOL   C77343101   4.859   1.050   2.650  0.1765  0.5246 -0.3399
   45MOL   C77443102   4.789   0.915   2.610 -0.2777 -0.0914  0.1558
   45MOL   C77543103   4.763   0.898   2.457 -0.6543 -0.1317  0.3602
   45MOL   C77643104   4.699   0.771   2.417 -0.1064 -0.3975 -0.1711
   45MOL   C77743105   4.666   0.761   2.270  0.4197 -0.4522 -0.4281
   45MOL   C77843106   4.563   0.645   2.242  0.1533  0.8524 -0.3724
   45MOL   C77943107   4.501   0.652   2.109  0.6683  0.4002  0.2057
   45MOL   C78043108   4.398   0.532   2.091 -0.0562  0.2478 -0.0299
   45MOL   O78143109   4.331   0.523   1.965  0.0905 -0.2855  0.2717
   45MOL   C78243110   4.201   0.569   1.963  0.3310 -0.1640  0.0201
   45MOL   O78343111   4.134   0.603   2.058 -0.3438  0.0103 -0.2606
   45MOL   C78443112   4.140   0.582   1.826  0.7787  0.2760 -0.3434
   45MOL   C78543113   4.226   0.632   1.704 -0.0755 -0.3904  0.3531
   45MOL   C78643114   4.333   0.531   1.655 -0.4708 -0.6106  0.0908
   45MOL   C78743115   4.403   0.578   1.520 -0.9204  0.2285 -0.5660
   45MOL   C78843116   4.517   0.676   1.551  0.3540 -0.0373 -0.7117
   45MOL   O78943117   4.502   0.800   1.533 -0.0952  0.0145  0.3844
   45MOL   H79043118   5.188   1.146   2.717 -0.7078 -0.9890  0.4763
   45MOL   H79143119   5.041   1.187   2.802  0.4957  1.0823 -0.3893
   45MOL   H79243120   5.025   0.953   2.749 -1.5885 -2.4798 -1.8157
   45MOL   H79343121   5.031   0.993   2.574  2.4029 -0.3568  1.1466
   45MOL   H79443122   4.817   1.084   2.745  0.8515 -2.7881  1.2504
   45MOL   H79543123   4.839   1.132   2.581 -0.8655  1.1459  0.6811
   45MOL   H79643124   4.697   0.913   2.668  0.3977  0.5622  1.2684
   45MOL   H79743125   4.849   0.827   2.634  1.1286  0.9452  0.4874
   45MOL   H79843126   4.857   0.908   2.404 -1.4048 -0.0025 -0.9921
   45MOL   H79943127   4.708   0.988   2.430  1.1207  0.5238 -1.1864
   45MOL   H80043128   4.604   0.765   2.470  0.8092  3.2854  1.9991
   45MOL   H80143129   4.759   0.685   2.448  0.9933  0.1626 -0.7261
   45MOL   H80243130   4.762   0.739   2.223  1.0089  0.2817  0.4057
   45MOL   H80343131   4.617   0.855   2.246  0.3839 -0.4526 -0.3572
   45MOL   H80443132   4.483   0.647   2.316  1.4828  1.7949  1.0593
   45MOL   H80543133   4.614   0.549   2.251 -0.2311  0.7505  0.8963
   45MOL   H80643134   4.457   0.752   2.100  0.9394  0.6320  1.3840
   45MOL   H80743135   4.577   0.641   2.031 -0.5976 -2.6723 -0.6567
   45MOL   H80843136   4.323   0.529   2.171 -0.1676 -0.0524 -0.1445
   45MOL   H80943137   4.451   0.437   2.101  3.1671  1.6187 -3.1267
   45MOL   H81043138   4.104   0.482   1.801  0.6458  0.1054  0.4868
   45MOL   H81143139   4.054   0.647   1.837 -1.2893 -2.8065  3.0431
   45MOL   H81243140   4.276   0.727   1.721  1.4029 -1.1040  0.1371
   45MOL   H81343141   4.161   0.656   1.620 -1.7750 -1.8789  1.2108
   45MOL   H81443142   4.304   0.427   1.649  2.5627 -1.5814  1.0432
   45MOL   H81543143   4.413   0.530   1.730  0.7321  0.8431 -1.1256
   45MOL   H81643144   4.322   0.618   1.458 -0.0144  3.5701  0.2835
   45MOL   H81743145   4.447   0.492   1.470 -1.5636 -0.5907  0.2499
   45MOL   O81843146   4.618   0.616   1.608  0.0964 -0.9717  0.4658
   45MOL   C81943147   4.734   0.692   1.641  0.1885  0.1857 -0.3085
   45MOL   C82043148   4.814   0.617   1.751 -0.7672 -0.1569 -0.2496
   45MOL   C82143149   4.931   0.717   1.791 -0.1304  0.0624 -1.1775
   45MOL   C82243150   5.009   0.671   1.912 -0.0438 -0.6906 -0.0037
   45MOL   C82343151   4.941   0.708   2.042  0.8325 -0.2615 -0.7486
   45MOL   C82443152   4.981   0.604   2.159 -0.3165  0.6727  0.3140
   45MOL   C82543153   4.909   0.469   2.154  0.1491 -0.1111 -0.3056
   45MOL   C82643154   4.987   0.356   2.214 -0.2733 -0.2026  0.4414
   45MOL   C82743155   5.099   0.315   2.116  0.2289 -0.4275 -0.2095
   45MOL   C82843156   5.164   0.178   2.147 -0.1117 -0.6126  0.7609
   45MOL   O82943157   5.065   0.086   2.119  0.7819  0.0510  0.7757
   45MOL   C83043158   5.018   0.006   2.220  0.3049 -0.5818 -0.1388
   45MOL   O83143159   5.058   7.756   2.334  0.6894 -0.1383  0.1597
   45MOL   C83243160   4.907   7.681   2.162 -0.5913  0.4407  0.3736
   45MOL   C83343161   4.800   7.629   2.265 -0.2852 -0.4028  0.4617
   45MOL   C83443162   4.682   7.724   2.268 -0.1150  0.1929 -0.0642
   45MOL   C83543163   4.717   0.081   2.354 -0.0355  0.1873 -0.2677
   45MOL   C83643164   4.612   0.192   2.345 -0.7639  0.5510 -0.2324
   45MOL   O83743165   4.591   0.254   2.241  0.7159  0.0958  0.6046
   45MOL   H83843166   4.792   0.719   1.553  0.0231 -2.2515 -1.2069
   45MOL   H83943167   4.708   0.790   1.681 -1.5652  0.0255 -1.0294
   45MOL   H84043168   4.856   0.530   1.700 -0.4657  0.3286 -0.8471
   45MOL   H84143169   4.745   0.585   1.829 -0.8932 -1.2828 -0.8068
   45MOL   H84243170   4.996   0.723   1.704  0.5406 -0.2569 -0.7026
   45MOL   H84343171   4.896   0.818   1.810  0.4967  0.3948 -1.8103
   45MOL   H84443172   5.106   0.721   1.911 -0.5375  0.3057  1.4717
   45MOL   H84543173   5.028   0.564   1.905 -0.0976 -0.6617 -0.6386
   45MOL   H84643174   4.834   0.694   2.025  0.8141  0.4730 -1.2265
   45MOL   H84743175   4.959   0.814   2.059  2.8942 -0.2045 -2.9972
   45MOL   H84843176   4.966   0.661   2.251  1.8381 -0.3715  1.3564
   45MOL   H84943177   5.088   0.584   2.157 -0.7484 -1.6747 -0.3016
   45MOL   H85043178   4.874   0.448   2.053 -2.0892 -0.9142  0.6156
   45MOL   H85143179   4.817   0.483   2.211  1.7797  2.4479  1.7838
   45MOL   H85243180   4.917   0.276   2.238  1.7525 -2.8110 -1.9483
   45MOL   H85343181   5.021   0.390   2.312  0.1476 -1.2614  0.6770
   45MOL   H85443182   5.059   0.314   2.014  0.0207  1.1666 -0.1675
   45MOL   H85543183   5.172   0.396   2.120 -1.0753  0.7793 -0.1611
   45MOL   H85643184   5.208   0.182   2.247 -0.0916 -1.0211  0.7656
   45MOL   H85743185   5.253   0.160   2.087  2.0442  0.1125  3.6107
   45MOL   H85843186   4.863   7.751   2.091 -2.4971 -1.2797 -0.1941
   45MOL   H85943187   4.952   7.595   2.111 -1.7058  1.3325 -2.2149
   45MOL   H86043188   4.853   7.605   2.357 -0.7688 -0.6264  0.6846
   45MOL   H86143189   4.781   7.526   2.234 -1.4154 -0.6453  1.9416
   45MOL   H86243190   4.599   7.673   2.317 -0.2366 -0.5463 -1.0218
   45MOL   H86343191   4.646   7.743   2.166  0.7278 -1.2270 -0.6434
   45MOL   H86443192   4.809   0.130   2.323  0.1828 -0.0125  0.0491
   45MOL   H86543193   4.739   0.028   2.447 -1.9016  1.1219  0.7359
   45MOL   O86643194   4.547   0.205   2.466  0.1394  0.2256  0.1167
   45MOL   C86743195   4.452   0.305   2.475 -0.3078  0.4449 -0.2673
   45MOL   C86843196   4.462   0.368   2.617 -0.6935  0.1293 -0.2225
   45MOL   C86943197   4.405   0.510   2.634  0.6888 -0.1218 -0.1330
   45MOL   C87043198   4.460   0.593   2.751  0.5881 -0.4459  0.0388
   45MOL   C87143199   4.403   0.735   2.755 -0.2191 -0.1416  1.1641
   45MOL   C87243200   4.462   0.826   2.863 -0.3132  0.0203 -0.4902
   45MOL   C87343201   4.443   0.977   2.836 -0.0320 -0.3451  0.0312
   45MOL   C87443202   4.297   1.019   2.853  0.1215 -0.3904  0.4161
   45MOL   C87543203   4.284   1.172   2.871 -0.5564  0.1130 -0.1385
   45MOL   C87643204   4.147   1.226   2.896  0.2735 -0.3262  0.0845
   45MOL   O87743205   4.065   1.198   2.788 -1.0926 -0.6163 -0.0345
   45MOL   C87843206   3.939   1.237   2.787 -0.9147  0.1018 -0.4937
   45MOL   O87943207   3.878   1.273   2.883 -0.5136 -0.1680 -0.4683
   45MOL   C88043208   3.865   1.207   2.653 -0.2210 -0.4762 -0.3897
   45MOL   C88143209   3.832   1.335   2.564 -0.3024 -0.9422 -0.8254
   45MOL   C88243210   3.959   1.398   2.508  0.3309 -0.4162  0.1751
   45MOL   C88343211   3.932   1.518   2.409 -0.3276  0.5200 -0.2704
   45MOL   C88443212   4.054   1.599   2.381 -0.3972  0.5538 -0.6089
   45MOL   O88543213   4.163   1.560   2.402 -0.5371 -0.2308 -0.4346
   45MOL   H88643214   4.460   0.377   2.394  0.9893  0.1660 -0.4168
   45MOL   H88743215   4.355   0.257   2.464 -1.6234  3.0342 -0.0670
   45MOL   H88843216   4.570   0.365   2.637 -0.8360 -3.8217  0.4022
   45MOL   H88943217   4.433   0.304   2.700  2.5269  1.0795  1.7521
   45MOL   H89043218   4.424   0.559   2.538 -0.6779  0.5577 -0.0681
   45MOL   H89143219   4.296   0.505   2.642  0.4916 -0.3859 -2.5243
   45MOL   H89243220   4.568   0.608   2.744  0.3114  0.4815 -3.1954
   45MOL   H89343221   4.447   0.540   2.845  2.5935  0.5203  0.8865
   45MOL   H89443222   4.294   0.733   2.748 -0.1027  0.6997 -2.0203
   45MOL   H89543223   4.430   0.777   2.658 -0.5459 -0.9001  0.7351
   45MOL   H89643224   4.569   0.808   2.872 -0.7533 -1.5628  2.0004
   45MOL   H89743225   4.422   0.799   2.961  0.2275  1.5192  0.1593
   45MOL   H89843226   4.469   0.995   2.731  1.5102  1.1005  0.6209
   45MOL   H89943227   4.517   1.036   2.890 -0.4553 -0.1744  0.4216
   45MOL   H90043228   4.266   0.984   2.952  0.9186  0.0554  0.8328
   45MOL   H90143229   4.238   0.974   2.774 -1.4324 -1.4719  2.1484
   45MOL   H90243230   4.343   1.209   2.955  0.5070  0.5773 -1.0938
   45MOL   H90343231   4.314   1.221   2.779 -0.7920 -2.1283 -1.4318
   45MOL   H90443232   4.155   1.329   2.929  0.3046 -0.7652  1.4542
   45MOL   H90543233   4.121   1.172   2.987 -2.0450  2.5739  1.2133
   45MOL   H90643234   3.920   1.135   2.593  2.2520 -0.1908  1.4680
   45MOL   H90743235   3.777   1.147   2.680 -0.4871  0.5876  1.1937
   45MOL   H90843236   3.785   1.415   2.621  1.0432  0.1256 -1.1692
   45MOL   H90943237   3.763   1.312   2.483 -0.2966 -2.5477 -0.3830
   45MOL   H91043238   4.006   1.320   2.447  0.6628  0.7691 -1.1327
   45MOL   H91143239   4.022   1.431   2.590  1.4410 -4.3087  0.9943
   45MOL   H91243240   3.857   1.587   2.445 -1.0788  0.3736 -1.5204
   45MOL   H91343241   3.916   1.474   2.310  1.9308  2.0781 -1.3725
   45MOL   O91443242   4.018   1.717   2.330  0.2239 -0.1230 -1.0226
   45MOL   C91543243   4.116   1.819   2.323  0.3771  0.7063 -0.0401
   45MOL   C91643244   4.096   1.914   2.445 -0.4147 -0.0784  0.1209
   45MOL   C91743245   4.175   2.041   2.421 -0.1190  0.0367  0.2125
   45MOL   C91843246   4.189   2.125   2.555  0.2258 -0.3521 -0.3446
   45MOL   C91943247   4.054   2.149   2.630 -0.6278 -0.2355 -0.6838
   45MOL   C92043248   4.067   2.265   2.732  0.5014  0.1260 -0.5870
   45MOL   C92143249   4.165   2.249   2.845  0.3667 -0.2188 -0.3170
   45MOL   C92243250   4.209   2.376   2.914  0.2572 -0.1044  0.3620
   45MOL   C92343251   4.116   2.411   3.030  0.0021 -0.2497 -0.0340
   45MOL   C92443252   4.123   2.554   3.068  0.0973  0.6628  0.1514
   45MOL   O92543253   4.077   2.648   2.970  0.2249 -0.2166  0.5307
   45MOL   C92643254   4.061   2.776   3.016  0.0546  0.1556  0.0314
   45MOL   O92743255   4.086   2.819   3.133 -0.2644 -0.0278 -0.2633
   45MOL   C92843256   4.022   2.877   2.911  0.7874  0.0374  0.1035
   45MOL   C92943257   4.130   2.896   2.801  0.4314 -0.9945  0.5737
   45MOL   C93043258   4.237   2.998   2.842 -1.0808 -0.4283 -0.0417
   45MOL   C93143259   4.353   3.014   2.733  0.5080  0.5754  0.8122
   45MOL   C93243260   4.465   2.925   2.764 -0.0427 -0.7113 -0.0745
   45MOL   O93343261   4.543   2.939   2.861 -0.5361  0.1848 -0.0875
   45MOL   H93443262   4.217   1.783   2.305 -0.0679 -1.2309  1.2229
   45MOL   H93543263   4.093   1.886   2.241  1.4341  0.4946 -0.5173
   45MOL   H93643264   4.129   1.862   2.535  1.4776  0.8072 -0.0381
   45MOL   H93743265   3.999   1.957   2.469 -1.2856 -1.2032 -1.2742
   45MOL   H93843266   4.275   2.010   2.389  0.4325  1.5401  0.4489
   45MOL   H93943267   4.136   2.099   2.338  0.8553 -1.2931 -1.2184
   45MOL   H94043268   4.225   2.227   2.541 -2.9307  0.5139 -3.0100
   45MOL   H94143269   4.255   2.078   2.626 -1.1996  0.7148  1.7382
   45MOL   H94243270   4.045   2.058   2.689 -0.8983 -0.1761 -0.6356
   45MOL   H94343271   3.961   2.165   2.576 -0.1366 -2.2739 -2.1829
   45MOL   H94443272   3.969   2.280   2.778  1.3092 -1.3876  1.6825
   45MOL   H94543273   4.096   2.357   2.681 -1.4260  1.2924  0.3699
   45MOL   H94643274   4.263   2.221   2.804  0.0916  1.4842 -2.2155
   45MOL   H94743275   4.137   2.171   2.916  1.5135 -0.6746 -0.3459
   45MOL   H94843276   4.212   2.454   2.838 -2.3982  0.9489  1.2837
   45MOL   H94943277   4.305   2.365   2.966 -0.0247 -0.5325  0.7950
   45MOL   H95043278   4.014   2.401   2.992  0.2689 -1.6194 -0.3946
   45MOL   H95143279   4.115   2.347   3.118 -0.5889 -0.3819 -0.1335
   45MOL   H95243280   4.220   2.585   3.108  1.0598 -0.4526 -1.2666
   45MOL   H95343281   4.057   2.554   3.155 -0.5973 -2.7230 -0.2722
   45MOL   H95443282   3.925   2.840   2.880 -1.1163  3.9006  1.1684
   45MOL   H95543283   4.012   2.971   2.966  0.0230 -0.0147  0.0553
   45MOL   H95643284   4.085   2.930   2.708  1.7182  2.6621  1.1701
   45MOL   H95743285   4.176   2.800   2.779 -0.2421 -1.0169 -0.7678
   45MOL   H95843286   4.278   2.957   2.934  0.3659 -1.4126 -1.0908
   45MOL   H95943287   4.194   3.096   2.862 -0.7072 -0.4248  0.7554
   45MOL   H96043288   4.396   3.114   2.737  0.9758  0.4127 -0.1741
   45MOL   H96143289   4.323   2.992   2.631 -0.4070  0.2086  1.1589
   45MOL   H96243290   4.471   2.846   2.690  2.3206 -1.6530  1.0762
   46MOL     O143291   5.160   2.202   5.326  0.5327 -0.1683 -0.8592
   46MOL     C243292   5.155   2.062   5.310 -0.3166  0.0660  0.4504
   46MOL     C343293   5.122   2.021   5.165  0.4864 -0.9610 -0.4760
   46MOL     C443294   5.147   1.875   5.128 -0.7096 -0.0752 -0.1629
   46MOL     C543295   5.148   1.869   4.975  0.0286 -0.8246 -0.1800
   46MOL     C643296   5.176   1.723   4.922  0.4644  0.4527  0.0691
   46MOL     C743297   5.240   1.713   4.780  0.0531  0.2066  0.0646
   46MOL     C843298   5.288   1.578   4.735  0.1874  0.1428 -0.1624
   46MOL     C943299   5.332   1.580   4.597 -0.2591 -0.5541 -0.1163
   46MOL    C1043300   5.376   1.444   4.544  0.4459  0.7304 -0.4245
   46MOL    C1143301   5.425   1.435   4.399  0.2092  0.6952  0.5859
   46MOL    O1243302   5.552   1.497   4.371  0.5470 -0.1993  0.1839
   46MOL    C1343303   5.580   1.516   4.241 -0.0773 -0.0917 -1.1604
   46MOL    O1443304   5.514   1.468   4.147  0.6728 -0.1360  0.5487
   46MOL    C1543305   5.703   1.604   4.221 -0.3278 -0.3679  0.3992
   46MOL    C1643306   5.819   1.558   4.304  0.2929 -0.9328  0.3865
   46MOL    C1743307   5.947   1.635   4.255  0.3935  0.2816  0.6228
   46MOL    C1843308   6.086   1.581   4.323  0.1302  0.4490  0.1870
   46MOL    C1943309   6.211   1.647   4.260  0.2367  0.1788  0.0564
   46MOL    O2043310   6.278   1.598   4.167 -0.1169 -0.3679 -0.5112
   46MOL    H2143311   5.253   2.023   5.337  0.9920  2.5528 -0.5518
   46MOL    H2243312   5.084   2.013   5.378 -1.6743 -1.5014 -2.0369
   46MOL    H2343313   5.184   2.075   5.094  0.1421 -1.2248 -0.9806
   46MOL    H2443314   5.020   2.046   5.136  0.2718 -1.3873 -0.1065
   46MOL    H2543315   5.240   1.846   5.177  0.4453  0.2544 -2.1351
   46MOL    H2643316   5.076   1.803   5.170 -0.5624 -0.7901 -1.1468
   46MOL    H2743317   5.222   1.935   4.931 -0.3127  1.0603  1.9778
   46MOL    H2843318   5.058   1.908   4.928 -1.0834  0.7038  3.0500
   46MOL    H2943319   5.083   1.667   4.932 -1.1302  3.1360  0.6096
   46MOL    H3043320   5.243   1.676   4.994 -2.5525 -2.5015  1.1266
   46MOL    H3143321   5.326   1.779   4.778  2.4298 -2.7801 -1.9620
   46MOL    H3243322   5.174   1.751   4.702  0.5803 -1.2751 -1.1254
   46MOL    H3343323   5.204   1.510   4.751 -0.6013  0.7193 -1.6893
   46MOL    H3443324   5.365   1.547   4.805  0.1418  1.0898  0.3019
   46MOL    H3543325   5.411   1.655   4.587 -0.5291 -0.3365 -0.5961
   46MOL    H3643326   5.255   1.625   4.535  0.1029 -0.5038 -0.5372
   46MOL    H3743327   5.463   1.419   4.605  0.2480  1.8050  0.3089
   46MOL    H3843328   5.298   1.367   4.543 -0.0952  1.2740 -0.6059
   46MOL    H3943329   5.346   1.469   4.332  0.5715  2.0349  0.8160
   46MOL    H4043330   5.437   1.330   4.372  0.6375  0.8350  0.2115
   46MOL    H4143331   5.727   1.603   4.114  2.1992 -0.5485  0.9425
   46MOL    H4243332   5.674   1.704   4.254 -0.2663  0.2831 -1.4432
   46MOL    H4343333   5.837   1.451   4.298 -0.6093 -1.0905  0.4396
   46MOL    H4443334   5.808   1.582   4.409  1.2833  0.4587  0.1941
   46MOL    H4543335   5.915   1.738   4.273 -0.4740  0.0932  0.1523
   46MOL    H4643336   5.956   1.629   4.147  0.1602  0.4876  0.5899
   46MOL    H4743337   6.079   1.472   4.327  0.4231  0.4390  0.3779
   46MOL    H4843338   6.092   1.614   4.426 -1.8673  2.8692 -0.4146
   46MOL    H4943339   5.168   2.228   5.417  0.4416 -0.2146 -0.8374
   46MOL    O5043340   6.238   1.769   4.325  0.1156 -0.2778 -0.6464
   46MOL    C5143341   6.358   1.837   4.286 -1.1591  0.3074 -1.2047
   46MOL    C5243342   6.452   1.834   4.414 -0.4161 -0.7830 -0.3380
   46MOL    C5343343   6.500   1.689   4.460 -0.3621 -0.3587 -0.3814
   46MOL    C5443344   6.623   1.703   4.545  0.4140 -0.2597  0.0643
   46MOL    C5543345   6.641   1.580   4.634 -0.3991  0.2439 -0.1075
   46MOL    C5643346   6.735   1.616   4.753  0.4025  0.3796  0.0936
   46MOL    C5743347   6.747   1.498   4.857 -0.7864 -0.1286  0.1482
   46MOL    C5843348   6.617   1.450   4.922 -0.4098  0.1409  0.5084
   46MOL    C5943349   6.513   1.555   4.939 -0.0279  0.1072 -0.3554
   46MOL    C6043350   6.395   1.520   5.021 -0.1346 -0.2530  0.3664
   46MOL    O6143351   6.303   1.625   5.048 -0.4836  0.0781 -0.1106
   46MOL    C6243352   6.169   1.599   5.056 -0.6709 -0.6482  0.0598
   46MOL    O6343353   6.124   1.487   5.039  0.0844  0.4659 -0.3808
   46MOL    C6443354   6.085   1.718   5.091 -0.1293 -1.1385 -0.0204
   46MOL    C6543355   6.009   1.727   5.223 -0.2530 -0.3837  0.8102
   46MOL    C6643356   6.097   1.698   5.344 -0.0938 -0.4110  0.3959
   46MOL    C6743357   6.024   1.723   5.471 -0.9764  0.4096 -0.1493
   46MOL    C6843358   6.094   1.673   5.594 -0.5906 -0.1406 -0.2335
   46MOL    O6943359   6.104   1.748   5.691  0.2726  0.3848 -0.2625
   46MOL    H7043360   6.415   1.781   4.212  1.7912  0.3496  0.9507
   46MOL    H7143361   6.340   1.942   4.263 -1.6493  0.0700 -1.9210
   46MOL    H7243362   6.392   1.879   4.494  0.1122 -0.9186  0.1349
   46MOL    H7343363   6.532   1.906   4.400 -0.1921 -1.0558 -0.4452
   46MOL    H7443364   6.415   1.636   4.503 -0.9227  1.1933  0.4790
   46MOL    H7543365   6.526   1.642   4.365  2.0836 -0.4693  0.3361
   46MOL    H7643366   6.608   1.792   4.607  0.6665  0.8572 -1.4271
   46MOL    H7743367   6.714   1.724   4.490  1.4940  0.5640  2.1189
   46MOL    H7843368   6.697   1.514   4.567  1.6330  1.0210  0.7869
   46MOL    H7943369   6.546   1.537   4.665 -0.8959  1.5267  0.1788
   46MOL    H8043370   6.695   1.700   4.808 -1.2114  0.6807 -1.4806
   46MOL    H8143371   6.830   1.658   4.719  0.2218  0.0581 -0.8466
   46MOL    H8243372   6.813   1.526   4.939  1.5677 -1.7327 -1.1449
   46MOL    H8343373   6.781   1.411   4.801  1.6187  0.1921  1.0435
   46MOL    H8443374   6.656   1.411   5.016 -1.0414 -0.8521  0.3644
   46MOL    H8543375   6.585   1.368   4.857 -1.0047 -0.5081  1.6102
   46MOL    H8643376   6.568   1.636   4.987  0.4351 -0.4283  0.0248
   46MOL    H8743377   6.493   1.605   4.844  0.1600  2.1550  0.6403
   46MOL    H8843378   6.448   1.495   5.113 -0.1728  1.7009  0.9445
   46MOL    H8943379   6.346   1.431   4.982  0.6266 -0.2680 -0.5721
   46MOL    H9043380   6.135   1.814   5.079 -1.5220 -0.5325 -1.0841
   46MOL    H9143381   6.015   1.726   5.008  0.9070 -1.9376 -0.9842
   46MOL    H9243382   5.932   1.652   5.204 -1.5981  1.3855 -0.8638
   46MOL    H9343383   5.957   1.822   5.233 -0.6028 -0.5449  0.5062
   46MOL    H9443384   6.178   1.771   5.348 -1.2530  1.0043 -1.4423
   46MOL    H9543385   6.129   1.594   5.335 -3.9226 -1.4834 -2.0966
   46MOL    H9643386   5.928   1.671   5.470 -0.3903 -0.7968  2.3648
   46MOL    H9743387   6.004   1.830   5.479 -1.2622  0.3292  0.2484
   46MOL    O9843388   6.151   1.546   5.593  0.3457 -0.2088  0.2323
   46MOL    C9943389   6.204   1.495   5.706  0.1498 -0.1990 -0.1570
   46MOL   C10043390   6.103   1.401   5.782 -0.2132 -0.0545 -0.5066
   46MOL   C10143391   6.033   1.477   5.896  0.0013 -0.0179 -0.5897
   46MOL   C10243392   5.923   1.394   5.961  0.6761 -0.2441 -0.6200
   46MOL   C10343393   5.845   1.468   6.062  0.1097  0.2024 -0.4370
   46MOL   C10443394   5.747   1.373   6.123 -0.1406  0.4016  0.5621
   46MOL   C10543395   5.665   1.436   6.236 -1.0366 -0.8276 -0.2596
   46MOL   C10643396   5.561   1.355   6.318 -0.3013 -0.2545 -0.3218
   46MOL   C10743397   5.621   1.263   6.422  0.2252 -0.1019  0.9470
   46MOL   C10843398   5.651   1.119   6.393 -0.1794 -0.0067  0.4825
   46MOL   O10943399   5.529   1.052   6.364 -0.6595 -0.2272  0.3742
   46MOL   C11043400   5.494   1.010   6.242  0.0066  0.6482  0.4187
   46MOL   O11143401   5.570   1.018   6.141 -0.2785 -0.0523 -0.4152
   46MOL   C11243402   5.349   0.949   6.232  0.7115  0.5883  0.4939
   46MOL   C11343403   5.287   0.968   6.094 -0.0792 -0.4754  0.3548
   46MOL   C11443404   5.245   1.107   6.059  0.4859  0.1394 -0.0848
   46MOL   C11543405   5.164   1.111   5.930  0.0859  0.1833  0.1441
   46MOL   C11643406   5.018   1.063   5.942  0.2732 -0.4058  0.3615
   46MOL   O11743407   4.952   1.069   6.045 -0.0157  0.1126 -0.2450
   46MOL   H11843408   6.291   1.440   5.672 -0.2959 -0.6176 -0.6228
   46MOL   H11943409   6.236   1.580   5.767 -1.2089  1.1400 -1.2823
   46MOL   H12043410   6.142   1.306   5.817  0.3871  0.4238  0.1207
   46MOL   H12143411   6.017   1.372   5.721 -0.9989 -2.3086  1.5990
   46MOL   H12243412   6.112   1.498   5.968  0.9358  2.1746 -2.2111
   46MOL   H12343413   5.990   1.568   5.855  0.2831 -0.4241 -1.8063
   46MOL   H12443414   5.964   1.305   6.009  0.8011  0.5152  0.7168
   46MOL   H12543415   5.852   1.361   5.885 -0.8010  1.6013 -0.0862
   46MOL   H12643416   5.787   1.551   6.020 -0.2071  1.2780  2.0792
   46MOL   H12743417   5.901   1.520   6.139 -0.2067 -1.1543  0.7205
   46MOL   H12843418   5.806   1.292   6.165  0.2007 -0.9262 -2.3629
   46MOL   H12943419   5.686   1.326   6.046  2.1856 -1.5617 -0.1678
   46MOL   H13043420   5.608   1.516   6.189 -2.4609 -1.9529 -0.4964
   46MOL   H13143421   5.732   1.486   6.307 -0.5176 -1.4944 -0.2782
   46MOL   H13243422   5.497   1.296   6.252  1.6558 -0.6639 -1.8877
   46MOL   H13343423   5.508   1.428   6.379 -0.6640 -1.0504  0.3162
   46MOL   H13443424   5.707   1.321   6.456  0.7337  0.0312 -0.5475
   46MOL   H13543425   5.559   1.279   6.511  1.6416 -0.8413  2.0900
   46MOL   H13643426   5.698   1.077   6.482 -0.0875 -0.1302  0.3756
   46MOL   H13743427   5.729   1.102   6.318 -1.2401  1.1386 -0.9058
   46MOL   H13843428   5.353   0.840   6.241 -1.2578  0.7943  4.5636
   46MOL   H13943429   5.290   0.992   6.312 -0.1058  0.8178 -0.2170
   46MOL   H14043430   5.200   0.905   6.077 -1.3304  0.8859  1.5427
   46MOL   H14143431   5.360   0.938   6.018  3.6800 -0.6588  3.8548
   46MOL   H14243432   5.329   1.175   6.048  0.3728  0.5241  1.3200
   46MOL   H14343433   5.181   1.144   6.139 -1.4857 -0.9171 -1.1335
   46MOL   H14443434   5.216   1.062   5.848  0.7964  1.1869 -0.0178
   46MOL   H14543435   5.162   1.217   5.902 -0.7774  0.4499  1.1830
   46MOL   O14643436   4.978   1.009   5.832  0.3635  0.0239 -0.0248
   46MOL   C14743437   4.839   0.977   5.825 -0.6961  0.1931  0.7815
   46MOL   C14843438   4.798   0.956   5.677  0.8941 -0.4090 -0.2186
   46MOL   C14943439   4.872   0.846   5.603  0.2193  0.7238  0.4694
   46MOL   C15043440   4.820   0.813   5.457  0.8017  0.1077  0.2424
   46MOL   C15143441   4.785   0.933   5.368  0.0909  0.5654  0.3142
   46MOL   C15243442   4.738   0.901   5.222 -0.3198 -0.4101 -0.1373
   46MOL   C15343443   4.854   0.887   5.124  0.9096 -0.0997  0.1163
   46MOL   C15443444   4.801   0.909   4.977  0.6865 -0.3918 -0.5816
   46MOL   C15543445   4.910   0.852   4.878 -0.5422 -0.0127 -0.2141
   46MOL   C15643446   4.863   0.877   4.731 -0.8572 -0.0600  0.1773
   46MOL   O15743447   4.928   0.785   4.645 -0.1127  0.0522 -0.8162
   46MOL   C15843448   4.883   0.769   4.520  0.2407  0.5226 -0.6703
   46MOL   O15943449   4.776   0.811   4.481 -0.0636  0.1927  0.2489
   46MOL   C16043450   4.976   0.673   4.432  0.1621  0.8357  0.6470
   46MOL   C16143451   4.933   0.640   4.290 -0.2683 -0.1927  0.5607
   46MOL   C16243452   4.813   0.545   4.275 -0.0837 -0.4739  0.1640
   46MOL   C16343453   4.786   0.511   4.119 -0.1795  0.3280 -0.2369
   46MOL   C16443454   4.735   0.634   4.044  0.7960 -1.0549  0.5505
   46MOL   O16543455   4.774   0.655   3.930 -0.0088 -0.3186  0.2218
   46MOL   H16643456   4.832   0.883   5.881  1.8008 -0.6078 -0.2131
   46MOL   H16743457   4.771   1.053   5.863 -1.0115  0.5690 -0.5034
   46MOL   H16843458   4.828   1.047   5.624  2.8194 -1.3608 -0.8040
   46MOL   H16943459   4.690   0.947   5.686  0.7193  0.6837 -1.1420
   46MOL   H17043460   4.971   0.887   5.583 -0.3042  1.6485 -0.2623
   46MOL   H17143461   4.886   0.755   5.661  0.2532 -0.6989 -1.7161
   46MOL   H17243462   4.735   0.748   5.473  0.1443  1.0060  0.4457
   46MOL   H17343463   4.899   0.756   5.409 -0.6824 -1.6137 -0.2183
   46MOL   H17443464   4.859   1.013   5.358 -1.6793  2.2103  0.1929
   46MOL   H17543465   4.699   0.979   5.416 -0.9288  0.1212 -1.0507
   46MOL   H17643466   4.677   0.983   5.185  1.4031  0.9727  0.0717
   46MOL   H17743467   4.670   0.815   5.225  1.4548 -1.8846 -0.8744
   46MOL   H17843468   4.901   0.789   5.132  0.4080 -0.3082  0.5832
   46MOL   H17943469   4.935   0.957   5.145  0.2744  1.0728 -1.2255
   46MOL   H18043470   4.773   1.012   4.955  1.0821 -0.0020  0.7288
   46MOL   H18143471   4.710   0.850   4.963 -0.3167  0.6087  1.4341
   46MOL   H18243472   5.009   0.892   4.900 -0.3490 -1.0247  0.8112
   46MOL   H18343473   4.917   0.744   4.895 -0.5820  0.1247  0.7119
   46MOL   H18443474   4.888   0.977   4.697 -1.5120  0.5155  1.3874
   46MOL   H18543475   4.756   0.860   4.718 -0.7810 -1.3822  1.2439
   46MOL   H18643476   5.077   0.715   4.433  0.1298  0.9260  0.1925
   46MOL   H18743477   4.979   0.580   4.488 -0.4365 -0.6933 -1.7898
   46MOL   H18843478   5.023   0.601   4.243  0.6554  0.1955  1.9713
   46MOL   H18943479   4.904   0.734   4.242 -2.3894 -1.2093 -0.2098
   46MOL   H19043480   4.730   0.594   4.325 -1.8897 -2.3009 -0.9709
   46MOL   H19143481   4.837   0.459   4.336  1.5576  0.9754  1.6203
   46MOL   H19243482   4.710   0.437   4.096 -1.6461  1.5489  0.6443
   46MOL   H19343483   4.870   0.480   4.057  0.6713 -0.3440  1.2189
   46MOL   O19443484   4.653   0.707   4.110 -0.1792  0.3754 -0.0790
   46MOL   C19543485   4.576   0.812   4.051 -0.0919 -0.1824  0.1206
   46MOL   C19643486   4.575   0.921   4.150 -0.1709 -0.6178  0.7646
   46MOL   C19743487   4.494   0.885   4.279  0.5054 -0.8857  0.2968
   46MOL   C19843488   4.507   0.987   4.388  0.0323  0.1339  0.3993
   46MOL   C19943489   4.408   0.972   4.505 -0.0896 -0.5752 -0.4287
   46MOL   C20043490   4.432   1.089   4.598 -0.2638 -0.0441 -0.6678
   46MOL   C20143491   4.344   1.070   4.723 -0.2349  0.3161 -0.0273
   46MOL   C20243492   4.329   1.200   4.800  0.1422  0.3160 -0.0099
   46MOL   C20343493   4.422   1.211   4.918 -0.2542 -0.1259 -0.4015
   46MOL   C20443494   4.428   1.349   4.982  0.7050 -0.4439 -0.1547
   46MOL   O20543495   4.293   1.389   5.025  0.0906 -0.2216  0.2697
   46MOL   C20643496   4.225   1.490   4.968  0.5771 -0.3437  0.1306
   46MOL   O20743497   4.259   1.562   4.875 -0.3283 -0.0020  0.3720
   46MOL   C20843498   4.086   1.508   5.031  0.4312 -0.3851  1.2036
   46MOL   C20943499   4.079   1.525   5.182 -0.4322 -0.2869 -0.1388
   46MOL   C21043500   3.941   1.482   5.241  0.2423 -0.6546 -0.0539
   46MOL   C21143501   3.939   1.503   5.396  0.2670  0.2303  0.2619
   46MOL   C21243502   3.808   1.466   5.465  0.3283  0.3583 -0.3081
   46MOL   O21343503   3.773   1.510   5.572  0.4852 -0.2867  0.2727
   46MOL   H21443504   4.618   0.846   3.956 -0.9321 -2.2807 -1.0249
   46MOL   H21543505   4.473   0.786   4.025 -0.7599  1.3796  1.1477
   46MOL   H21643506   4.530   1.013   4.113 -0.8750 -0.8604  1.0058
   46MOL   H21743507   4.677   0.950   4.172 -0.6100  1.8211 -0.2167
   46MOL   H21843508   4.390   0.870   4.249  0.9661 -1.6354 -0.9917
   46MOL   H21943509   4.532   0.795   4.325 -1.0939 -0.2552  2.9941
   46MOL   H22043510   4.495   1.086   4.345  0.8230 -0.4141 -1.1184
   46MOL   H22143511   4.609   0.991   4.427  0.8797  1.4285 -1.8270
   46MOL   H22243512   4.420   0.873   4.548  1.3096 -0.0927  0.3476
   46MOL   H22343513   4.306   0.982   4.468  0.1425 -2.3435 -1.5711
   46MOL   H22443514   4.415   1.187   4.553 -0.0028  0.0239 -0.6184
   46MOL   H22543515   4.532   1.079   4.640 -1.3955  1.7351  2.6268
   46MOL   H22643516   4.373   0.984   4.783 -0.1955  0.5021  0.2195
   46MOL   H22743517   4.243   1.039   4.696  0.5476  0.1128 -2.9830
   46MOL   H22843518   4.233   1.217   4.847  0.4649  1.7737  0.1650
   46MOL   H22943519   4.353   1.284   4.735 -0.3876 -0.4842 -1.2586
   46MOL   H23043520   4.405   1.136   4.995  0.8262  0.3273  0.2891
   46MOL   H23143521   4.522   1.191   4.879  0.1200 -1.0848  1.0092
   46MOL   H23243522   4.471   1.417   4.908  1.2732 -1.1657 -0.4913
   46MOL   H23343523   4.499   1.353   5.065  0.2234 -0.7497  0.2692
   46MOL   H23443524   4.026   1.587   4.986  0.6113  0.0826  1.7797
   46MOL   H23543525   4.031   1.421   4.995 -0.9107  1.0856 -0.3919
   46MOL   H23643526   4.080   1.633   5.199  0.3990 -0.5477  1.6198
   46MOL   H23743527   4.163   1.476   5.232  0.5685  2.1318  0.6490
   46MOL   H23843528   3.919   1.379   5.211 -0.9691 -0.4877  0.2216
   46MOL   H23943529   3.867   1.543   5.189  0.3241 -1.2862 -0.9358
   46MOL   H24043530   3.963   1.606   5.421 -0.7107  0.4933  0.1664
   46MOL   H24143531   4.022   1.445   5.437 -0.5124 -0.3861  1.0089
   46MOL   O24243532   3.729   1.377   5.392 -0.2822  0.4581  0.2150
   46MOL   C24343533   3.619   1.315   5.447  0.0307  0.6839  0.4478
   46MOL   C24443534   3.624   1.172   5.373 -0.2131  0.5543 -0.2596
   46MOL   C24543535   3.575   1.182   5.226 -0.6052  0.3454 -0.4034
   46MOL   C24643536   3.571   1.042   5.152 -0.6564 -0.1218 -0.4948
   46MOL   C24743537   3.507   1.054   5.019  0.2447  0.2764  0.1843
   46MOL   C24843538   3.506   0.928   4.944 -0.1291  0.2274  0.0884
   46MOL   C24943539   3.438   0.946   4.803  0.1016 -0.5944  0.2498
   46MOL   C25043540   3.429   0.815   4.722 -0.8495  0.0503 -0.6815
   46MOL   C25143541   3.572   0.777   4.678  0.3599 -0.1252 -0.1699
   46MOL   C25243542   3.579   0.653   4.590 -0.1708  0.0968  0.2073
   46MOL   O25343543   3.714   0.615   4.549 -0.1144 -0.2760 -0.5014
   46MOL   C25443544   3.781   0.693   4.462 -0.2828  0.6097  0.0492
   46MOL   O25543545   3.738   0.795   4.408 -0.0228 -0.0775  0.2685
   46MOL   C25643546   3.928   0.653   4.448 -0.1837 -0.0206 -0.0268
   46MOL   C25743547   4.016   0.709   4.565  0.0158  0.1363 -0.3439
   46MOL   C25843548   3.979   0.682   4.705 -0.1444  0.1368 -0.1750
   46MOL   C25943549   3.983   0.535   4.747 -0.1247 -0.4975  0.2678
   46MOL   C26043550   3.940   0.503   4.885 -0.1202  0.1794  0.0521
   46MOL   O26143551   4.016   0.462   4.970 -0.3316 -0.3784  0.3747
   46MOL   H26243552   3.632   1.301   5.555  1.6458  0.3886  0.2295
   46MOL   H26343553   3.529   1.376   5.436 -1.2322 -0.9848  1.2651
   46MOL   H26443554   3.556   1.106   5.427 -0.9274  0.7216 -0.9517
   46MOL   H26543555   3.723   1.128   5.366 -0.5349 -0.5217  1.5329
   46MOL   H26643556   3.473   1.220   5.221 -1.2282 -0.8936  2.2762
   46MOL   H26743557   3.626   1.255   5.164 -1.8192  2.0517  0.5869
   46MOL   H26843558   3.511   0.977   5.215 -1.5714  1.2471  0.0670
   46MOL   H26943559   3.670   1.008   5.123  0.2399  1.7666  0.2414
   46MOL   H27043560   3.548   1.124   4.946 -2.4043  0.8346 -0.8185
   46MOL   H27143561   3.402   1.081   5.028 -0.4664 -2.0512 -0.8805
   46MOL   H27243562   3.466   0.853   5.012 -0.1879  0.0406 -0.1533
   46MOL   H27343563   3.612   0.903   4.932 -0.7119 -2.3369  0.0774
   46MOL   H27443564   3.476   1.026   4.739 -0.1072  0.8904  1.9510
   46MOL   H27543565   3.332   0.967   4.806  0.6056  1.7400  3.3281
   46MOL   H27643566   3.358   0.817   4.640 -0.2419 -0.8414 -1.2416
   46MOL   H27743567   3.387   0.737   4.786  0.8396 -0.8329 -0.6090
   46MOL   H27843568   3.607   0.863   4.620  1.0886 -1.3122 -1.5000
   46MOL   H27943569   3.635   0.760   4.765  0.3906 -1.6968 -0.4863
   46MOL   H28043570   3.515   0.682   4.507  0.0336  2.1730  0.7605
   46MOL   H28143571   3.532   0.569   4.642 -2.3809  1.6342  0.7828
   46MOL   H28243572   3.925   0.545   4.457  1.0673 -0.0429  0.2314
   46MOL   H28343573   3.966   0.676   4.348 -1.3645 -1.4372 -0.8180
   46MOL   H28443574   4.004   0.817   4.556  1.4979  0.5047  1.8914
   46MOL   H28543575   4.120   0.678   4.560 -0.0253  0.0758 -0.8580
   46MOL   H28643576   3.892   0.737   4.739  0.2809  1.2481 -0.8365
   46MOL   H28743577   4.061   0.729   4.760  0.7229 -2.7563  1.1553
   46MOL   H28843578   4.084   0.495   4.733 -0.6514 -1.9528  0.5086
   46MOL   H28943579   3.913   0.477   4.687 -0.4646 -0.0432  0.2224
   46MOL   O29043580   3.808   0.526   4.907  0.1804  0.5736 -0.1246
   46MOL   C29143581   3.751   0.504   5.038 -0.0290 -0.3297 -0.6021
   46MOL   C29243582   3.720   0.626   5.114  0.1262  0.3392  0.3852
   46MOL   C29343583   3.670   0.594   5.258 -0.2532 -0.0908  1.0442
   46MOL   C29443584   3.680   0.714   5.347  0.2045 -0.3011 -0.2454
   46MOL   C29543585   3.581   0.686   5.467  0.1447  0.3721 -0.2821
   46MOL   C29643586   3.635   0.737   5.595  0.6792  0.4671 -0.7192
   46MOL   C29743587   3.534   0.752   5.716  0.2096  0.1012 -0.3895
   46MOL   C29843588   3.464   0.618   5.745 -0.6269  0.1499  0.0546
   46MOL   C29943589   3.351   0.628   5.853  0.4695  0.3645  0.8693
   46MOL   C30043590   3.267   0.503   5.856  0.0660  0.3310  0.2565
   46MOL   O30143591   3.165   0.510   5.957 -0.0320  0.2843 -0.0175
   46MOL   C30243592   3.169   0.442   6.077 -0.4710  0.3819  0.2794
   46MOL   O30343593   3.250   0.360   6.113  0.1661  0.0879  0.0171
   46MOL   C30443594   3.051   0.475   6.165  0.4839 -0.1959  0.1574
   46MOL   C30543595   2.912   0.463   6.086  0.1855 -0.3850 -0.5038
   46MOL   C30643596   2.878   0.318   6.039  0.1260 -1.0901  0.5222
   46MOL   C30743597   2.773   0.324   5.924 -0.6227 -0.1024  0.5316
   46MOL   C30843598   2.827   0.373   5.786  0.4619  0.1278  0.6772
   46MOL   O30943599   2.777   0.461   5.722  0.3965  0.2468  0.5819
   46MOL   H31043600   3.652   0.459   5.036  0.5085 -1.5221 -0.6123
   46MOL   H31143601   3.813   0.439   5.100 -1.2362 -0.0659  0.9106
   46MOL   H31243602   3.638   0.677   5.062 -0.9642 -1.7021  0.0724
   46MOL   H31343603   3.808   0.690   5.119 -0.0105  0.4603  1.1628
   46MOL   H31443604   3.578   0.536   5.254 -0.4654  0.3350 -2.1907
   46MOL   H31543605   3.738   0.525   5.308  0.7119  0.8412  1.0304
   46MOL   H31643606   3.640   0.805   5.304 -0.4957 -0.8616 -0.7891
   46MOL   H31743607   3.782   0.748   5.367 -0.6570  1.8126  0.6540
   46MOL   H31843608   3.554   0.580   5.476  1.6457  0.1225  1.7887
   46MOL   H31943609   3.487   0.740   5.458 -0.8093 -0.9279  1.4171
   46MOL   H32043610   3.669   0.837   5.568 -2.2458  1.6763 -0.0769
   46MOL   H32143611   3.722   0.682   5.632  1.5960  1.6588 -1.0700
   46MOL   H32243612   3.466   0.836   5.704 -0.3877 -0.4410 -0.8651
   46MOL   H32343613   3.589   0.762   5.810 -2.0507 -1.1774  1.1241
   46MOL   H32443614   3.539   0.542   5.768 -0.5045  0.0171 -0.7707
   46MOL   H32543615   3.411   0.583   5.657 -1.1783 -2.5806  1.4223
   46MOL   H32643616   3.389   0.641   5.954  3.8761  0.8107 -0.4165
   46MOL   H32743617   3.284   0.710   5.825 -1.5107 -2.3545 -2.8340
   46MOL   H32843618   3.324   0.411   5.860 -0.6105 -0.1965 -1.6095
   46MOL   H32943619   3.201   0.495   5.769 -0.8379 -1.7722  1.1068
   46MOL   H33043620   3.040   0.405   6.247 -0.9705 -1.7414 -1.3144
   46MOL   H33143621   3.058   0.579   6.198  3.1143  0.2127 -1.4609
   46MOL   H33243622   2.902   0.535   6.005  0.7687  1.5078  1.0599
   46MOL   H33343623   2.830   0.498   6.150  1.5117  0.1570  0.9403
   46MOL   H33443624   2.838   0.258   6.121  0.1295 -0.7065  0.8095
   46MOL   H33543625   2.966   0.265   6.004 -0.7276 -1.4839 -1.0487
   46MOL   H33643626   2.684   0.386   5.937 -1.3243 -0.1493 -3.2577
   46MOL   H33743627   2.738   0.226   5.890 -3.6037  1.0973 -0.0497
   46MOL   O33843628   2.942   0.307   5.754 -0.2616  0.1661 -0.9602
   46MOL   C33943629   3.022   0.352   5.642 -0.5381  0.0658  0.0932
   46MOL   C34043630   2.962   0.294   5.513  0.2273  0.2072  0.4984
   46MOL   C34143631   2.991   0.142   5.506 -0.3490 -0.4680  0.3898
   46MOL   C34243632   2.985   0.082   5.358  0.5466 -0.2866 -0.3418
   46MOL   C34343633   3.023   7.696   5.337  0.2190 -0.2777 -0.3421
   46MOL   C34443634   2.940   7.608   5.432 -0.5865 -0.0059 -0.4412
   46MOL   C34543635   2.947   7.460   5.388  0.1846 -0.3367 -0.1736
   46MOL   C34643636   2.879   7.366   5.489 -0.0877  0.0991 -0.4246
   46MOL   C34743637   2.900   7.219   5.456  0.2787  0.3364 -0.3949
   46MOL   C34843638   3.050   7.173   5.488  0.2418 -0.8643 -0.0415
   46MOL   O34943639   3.092   7.066   5.405  0.2715  0.1562 -0.1418
   46MOL   C35043640   3.207   7.002   5.428 -0.2941 -0.2612  0.7970
   46MOL   O35143641   3.286   7.034   5.515  0.0103 -0.2267  0.1092
   46MOL   C35243642   3.230   6.873   5.344  0.2288 -0.0416  0.1709
   46MOL   C35343643   3.344   6.778   5.387 -0.0108  0.2435 -0.0454
   46MOL   C35443644   3.487   6.836   5.342  0.9199  0.4275  0.0490
   46MOL   C35543645   3.612   6.766   5.410  0.3952 -0.3516 -0.0049
   46MOL   C35643646   3.690   6.868   5.489 -1.0057 -0.1702 -0.0632
   46MOL   O35743647   3.771   6.944   5.433  0.5326 -0.1441  0.7762
   46MOL   H35843648   3.004   0.459   5.640  0.8679  0.2921 -0.8717
   46MOL   H35943649   3.126   0.322   5.657  0.4393  3.7289  1.0423
   46MOL   H36043650   3.001   0.339   5.421 -1.2653 -1.2248 -0.8687
   46MOL   H36143651   2.853   0.297   5.505  0.3500 -0.5388 -1.8631
   46MOL   H36243652   3.090   0.119   5.547  1.6173  0.2611 -3.7408
   46MOL   H36343653   2.917   0.092   5.569  0.7061 -2.1001  0.3629
   46MOL   H36443654   3.040   0.148   5.292 -1.5741 -0.0897 -1.9500
   46MOL   H36543655   2.884   0.081   5.317  0.6421 -3.9671 -0.6728
   46MOL   H36643656   3.128   7.667   5.330  0.3500  0.5575 -2.1924
   46MOL   H36743657   2.992   7.667   5.237 -1.1655 -0.1173  0.0321
   46MOL   H36843658   2.835   7.639   5.428 -0.3084  0.7010 -3.0328
   46MOL   H36943659   2.982   7.631   5.530  1.8262  2.2155 -1.9366
   46MOL   H37043660   3.051   7.431   5.371  0.2115 -1.0473  1.1732
   46MOL   H37143661   2.902   7.452   5.289 -0.7138  0.4898  0.1610
   46MOL   H37243662   2.774   7.392   5.476 -0.2883 -0.6828 -0.3880
   46MOL   H37343663   2.891   7.388   5.596  0.3359 -0.9706 -0.2443
   46MOL   H37443664   2.823   7.171   5.517  2.1661 -2.3362 -0.0185
   46MOL   H37543665   2.878   7.198   5.351  1.5089 -2.8071 -0.0873
   46MOL   H37643666   3.059   7.124   5.585 -0.5011  0.6109  0.8008
   46MOL   H37743667   3.126   7.252   5.484  1.4337 -2.0096 -0.5039
   46MOL   H37843668   3.138   6.815   5.352  0.6888 -0.5591  1.7529
   46MOL   H37943669   3.242   6.898   5.238 -0.9675 -1.5434 -0.3470
   46MOL   H38043670   3.315   6.683   5.342  1.7069 -1.2721  1.9685
   46MOL   H38143671   3.335   6.753   5.492  0.6639 -3.2097 -0.7452
   46MOL   H38243672   3.481   6.945   5.352 -1.4945  0.4544 -1.3100
   46MOL   H38343673   3.490   6.833   5.233 -1.2083  0.2851 -0.0259
   46MOL   H38443674   3.677   6.712   5.340  1.5502  0.0403  0.7507
   46MOL   H38543675   3.566   6.692   5.476  1.8223 -1.3955 -0.1419
   46MOL   O38643676   3.649   6.851   5.615 -0.0869  0.9466  0.4880
   46MOL   C38743677   3.710   6.926   5.722  0.6020 -0.6559 -0.2588
   46MOL   C38843678   3.742   6.836   5.843  0.3348 -0.7737 -0.2336
   46MOL   C38943679   3.629   6.827   5.940  0.1222 -0.5994 -0.7301
   46MOL   C39043680   3.642   6.720   6.041  0.0319  0.6886  0.3762
   46MOL   C39143681   3.542   6.716   6.157 -0.4881  0.3309  1.0215
   46MOL   C39243682   3.573   6.595   6.244  0.0319  0.1404  0.2897
   46MOL   C39343683   3.504   6.606   6.380 -0.3496  0.2997 -0.6746
   46MOL   C39443684   3.564   6.497   6.479  0.5065  1.0321  0.3666
   46MOL   C39543685   3.473   6.436   6.584  0.8273 -0.5177  0.4470
   46MOL   C39643686   3.421   6.548   6.685  0.6757 -0.5686  0.5038
   46MOL   O39743687   3.350   6.490   6.791  0.2511  0.3603 -0.6721
   46MOL   C39843688   3.222   6.488   6.791 -0.0250 -0.3872  0.2596
   46MOL   O39943689   3.146   6.559   6.720  0.2841  0.0682 -0.2826
   46MOL   C40043690   3.166   6.387   6.884  0.3019  0.3936 -0.8921
   46MOL   C40143691   3.210   6.411   7.025 -0.4169 -0.6503 -0.1295
   46MOL   C40243692   3.343   6.361   7.072 -0.2536  0.1150  0.7101
   46MOL   C40343693   3.362   6.350   7.226 -0.7506 -0.4194 -0.6715
   46MOL   C40443694   3.403   6.472   7.308 -0.1816 -0.1104  0.0467
   46MOL   O40543695   3.454   6.462   7.422  0.5778  0.4261  0.2495
   46MOL   H40643696   3.807   6.971   5.700  0.8579  0.2388  2.5068
   46MOL   H40743697   3.655   7.014   5.753  0.1872 -1.3481  1.0109
   46MOL   H40843698   3.835   6.868   5.890  0.5530 -1.3028 -0.2965
   46MOL   H40943699   3.774   6.734   5.821 -1.3386 -1.8809  2.1675
   46MOL   H41043700   3.622   6.921   5.996 -1.7784  0.1620 -2.1865
   46MOL   H41143701   3.537   6.811   5.883  1.2083 -3.0744 -1.8355
   46MOL   H41243702   3.735   6.745   6.092  1.3234  1.4648 -2.2833
   46MOL   H41343703   3.649   6.617   6.006 -0.2007  1.0161 -0.6473
   46MOL   H41443704   3.442   6.713   6.115 -0.3382  0.5415  0.6452
   46MOL   H41543705   3.542   6.800   6.226 -3.0181  0.0343  1.4193
   46MOL   H41643706   3.680   6.576   6.249  0.1908  1.1553  0.9596
   46MOL   H41743707   3.540   6.504   6.194  0.5231  1.0711 -1.8082
   46MOL   H41843708   3.397   6.592   6.367 -0.5441  0.4701  0.7392
   46MOL   H41943709   3.507   6.703   6.429  0.0307 -0.0374 -0.0274
   46MOL   H42043710   3.652   6.532   6.533  0.9319 -1.8191  1.5659
   46MOL   H42143711   3.602   6.417   6.416 -0.5332  0.7558  0.0813
   46MOL   H42243712   3.377   6.396   6.550 -0.8742  0.6575  3.6221
   46MOL   H42343713   3.525   6.351   6.627  0.5759 -2.2015 -2.4671
   46MOL   H42443714   3.360   6.622   6.633  0.2066 -0.0413  1.7881
   46MOL   H42543715   3.508   6.608   6.709 -0.9899  2.3792 -0.5828
   46MOL   H42643716   3.059   6.402   6.877  0.2806  1.1727  0.8521
   46MOL   H42743717   3.180   6.281   6.862  0.2861  0.5859 -1.8557
   46MOL   H42843718   3.145   6.356   7.093 -0.8159  1.7839  1.5048
   46MOL   H42943719   3.201   6.518   7.044 -2.5238 -0.6098 -1.2755
   46MOL   H43043720   3.426   6.415   7.026 -0.8036  0.5251  0.1898
   46MOL   H43143721   3.348   6.260   7.033  2.4106 -0.1424  1.5978
   46MOL   H43243722   3.438   6.273   7.237  0.8298  0.9619 -1.7205
   46MOL   H43343723   3.271   6.316   7.276  0.0341 -0.8747  0.4565
   46MOL   O43443724   3.384   6.590   7.246  0.1022  0.7502  0.7768
   46MOL   C43543725   3.450   6.710   7.292  0.4948  0.5211  0.2138
   46MOL   C43643726   3.479   6.808   7.183 -0.3385  0.3406  0.4836
   46MOL   C43743727   3.580   6.755   7.079 -0.3252  0.4738 -0.1513
   46MOL   C43843728   3.604   6.858   6.966  0.1404  0.5798 -0.1192
   46MOL   C43943729   3.697   6.805   6.853 -0.3248  0.2948 -0.5632
   46MOL   C44043730   3.719   6.920   6.754  0.3421 -0.3036 -0.1038
   46MOL   C44143731   3.751   6.861   6.613  0.0114  0.7924 -0.4119
   46MOL   C44243732   3.794   6.954   6.507  0.5157 -0.3009 -0.6636
   46MOL   C44343733   3.823   6.878   6.377 -0.8651  0.0527  0.4799
   46MOL   C44443734   3.945   6.789   6.377  0.4840  0.2385 -0.2115
   46MOL   O44543735   4.008   6.771   6.251 -0.5201 -0.2399  0.1563
   46MOL   C44643736   4.002   6.658   6.172  0.1020 -0.0616  0.0402
   46MOL   O44743737   3.922   6.565   6.178 -0.2040 -0.1663 -0.3271
   46MOL   C44843738   4.109   6.669   6.058  0.5508  0.0615  0.2343
   46MOL   C44943739   4.142   6.535   5.982 -0.5902  0.0446 -0.2557
   46MOL   C45043740   4.062   6.507   5.858 -0.8950 -0.1192  0.1675
   46MOL   C45143741   4.070   6.611   5.742 -0.2757 -0.0052 -0.1309
   46MOL   C45243742   3.981   6.572   5.626 -0.0633 -0.0835 -0.2141
   46MOL   O45343743   3.912   6.666   5.585 -0.6732  0.1383  0.2828
   46MOL   H45443744   3.402   6.767   7.371  0.3323  1.2667 -0.4110
   46MOL   H45543745   3.545   6.686   7.339  1.0390 -0.1455 -1.1803
   46MOL   H45643746   3.530   6.884   7.242  0.1970 -0.2482  0.7935
   46MOL   H45743747   3.387   6.848   7.141 -1.7049  1.0420  3.9685
   46MOL   H45843748   3.680   6.735   7.120 -0.7176  1.3060  1.2806
   46MOL   H45943749   3.541   6.663   7.038 -0.9376  0.0311  1.3877
   46MOL   H46043750   3.630   6.960   6.994 -0.4153  0.0341  2.5201
   46MOL   H46143751   3.509   6.874   6.916 -0.7770 -1.5884  0.8739
   46MOL   H46243752   3.663   6.718   6.796 -2.0922  1.4032 -1.2357
   46MOL   H46343753   3.795   6.783   6.895 -1.4399 -1.7388  1.0876
   46MOL   H46443754   3.797   6.985   6.791  0.3583  0.5313 -1.5584
   46MOL   H46543755   3.636   6.990   6.746  0.5852 -0.1657 -1.5360
   46MOL   H46643756   3.660   6.810   6.582  1.0219 -1.6974  0.6018
   46MOL   H46743757   3.823   6.780   6.620 -0.5729  0.2661 -0.4594
   46MOL   H46843758   3.884   7.004   6.545  0.2988 -0.3416 -0.0997
   46MOL   H46943759   3.724   7.034   6.484  1.7214  0.7020 -0.9298
   46MOL   H47043760   3.738   6.814   6.355  1.2009 -1.8937 -2.1381
   46MOL   H47143761   3.821   6.941   6.287  0.1307 -1.2115 -0.4475
   46MOL   H47243762   3.934   6.691   6.424  0.6885 -1.6501 -3.9295
   46MOL   H47343763   4.015   6.843   6.440  1.1907  1.6555 -2.1849
   46MOL   H47443764   4.091   6.757   5.997 -0.8544 -1.3715 -1.4952
   46MOL   H47543765   4.200   6.691   6.114  0.5382 -3.6253  1.8915
   46MOL   H47643766   4.111   6.448   6.040 -0.3035  0.6780  0.8374
   46MOL   H47743767   4.249   6.514   5.981 -0.6166 -0.0942 -0.5613
   46MOL   H47843768   3.962   6.480   5.895  0.2377 -2.6294  1.5256
   46MOL   H47943769   4.095   6.410   5.820 -1.3946 -0.8690  1.5964
   46MOL   H48043770   4.171   6.610   5.702 -0.1681  0.2243  0.1349
   46MOL   H48143771   4.060   6.714   5.776 -0.1354 -0.3487  0.9504
   46MOL   O48243772   4.007   6.456   5.567  0.1080 -0.0374  0.4769
   46MOL   C48343773   3.925   6.418   5.454 -0.0909  0.4596  0.3627
   46MOL   C48443774   3.812   6.325   5.502  0.3679  0.5479  0.4081
   46MOL   C48543775   3.691   6.405   5.558 -0.2421 -0.3049  0.3531
   46MOL   C48643776   3.598   6.325   5.642 -0.1081 -0.5754  0.5529
   46MOL   C48743777   3.519   6.415   5.737 -0.0700 -0.2704 -0.0993
   46MOL   C48843778   3.440   6.335   5.841 -0.2417  0.4149 -0.0097
   46MOL   C48943779   3.368   6.424   5.943  0.8473 -0.0845 -0.3403
   46MOL   C49043780   3.322   6.356   6.068  0.8783 -0.1530 -0.3056
   46MOL   C49143781   3.220   6.428   6.148  0.2061  0.3792 -0.7122
   46MOL   C49243782   3.080   6.451   6.090  0.3549 -0.1273  0.0348
   46MOL   O49343783   2.978   6.474   6.189  0.1486  0.4030 -0.2317
   46MOL   C49443784   2.909   6.359   6.233 -0.9939 -0.0407 -0.4387
   46MOL   O49543785   2.923   6.244   6.194  0.0047 -0.2187  0.2514
   46MOL   C49643786   2.801   6.396   6.332 -0.0925  0.1813 -0.5648
   46MOL   C49743787   2.844   6.429   6.478  0.4645 -0.9855 -0.7089
   46MOL   C49843788   2.918   6.324   6.563  0.1657  0.1448  0.3076
   46MOL   C49943789   3.063   6.284   6.519  0.0986 -0.3046 -0.2900
   46MOL   C50043790   3.125   6.176   6.601  0.2559  0.9393  0.7735
   46MOL   O50143791   3.052   6.110   6.682 -0.4161  0.7781 -0.3277
   46MOL   H50243792   3.879   6.499   5.397 -1.4111 -0.4109  0.1947
   46MOL   H50343793   3.983   6.370   5.375 -0.1317 -0.1781  0.7186
   46MOL   H50443794   3.873   6.266   5.570  0.4204  0.7204  0.5091
   46MOL   H50543795   3.785   6.258   5.420 -0.0334  0.7288  0.3947
   46MOL   H50643796   3.725   6.475   5.635  0.6932 -0.2253 -0.1290
   46MOL   H50743797   3.654   6.478   5.485  3.2333  1.6451  0.4260
   46MOL   H50843798   3.656   6.246   5.691 -0.9978 -0.8799  1.1281
   46MOL   H50943799   3.533   6.259   5.584  1.2308 -0.9120 -0.6088
   46MOL   H51043800   3.454   6.486   5.684  1.9416  0.8355 -1.1919
   46MOL   H51143801   3.592   6.474   5.792  0.0364  1.0686 -1.6063
   46MOL   H51243802   3.508   6.268   5.893  0.5037  0.5985 -0.7462
   46MOL   H51343803   3.363   6.268   5.800 -0.2551  0.5103 -0.1408
   46MOL   H51443804   3.273   6.461   5.905 -0.4470 -2.9439 -0.0553
   46MOL   H51543805   3.434   6.509   5.963  0.8009 -0.2464  0.5253
   46MOL   H51643806   3.407   6.330   6.131  0.3842 -0.8228  0.1002
   46MOL   H51743807   3.278   6.260   6.040  2.8259 -0.9764 -0.6687
   46MOL   H51843808   3.206   6.378   6.244 -0.6949 -1.1817 -1.6467
   46MOL   H51943809   3.272   6.517   6.184 -0.6621  1.4664 -2.1005
   46MOL   H52043810   3.052   6.366   6.028  0.1995  0.8166 -1.1895
   46MOL   H52143811   3.093   6.541   6.030 -1.2511  0.7014  0.8855
   46MOL   H52243812   2.745   6.476   6.283  1.3948  1.9086  0.5015
   46MOL   H52343813   2.732   6.313   6.346 -2.2796  1.9777 -0.3363
   46MOL   H52443814   2.750   6.459   6.526  1.3328  0.3867  0.1406
   46MOL   H52543815   2.897   6.523   6.466 -0.4088 -0.5080 -0.8697
   46MOL   H52643816   2.857   6.234   6.572  0.0156  0.1826 -0.2622
   46MOL   H52743817   2.932   6.374   6.659 -1.9475  1.7472 -0.1733
   46MOL   H52843818   3.132   6.367   6.535 -0.0090 -0.2969  0.1521
   46MOL   H52943819   3.072   6.260   6.413 -0.2570  0.9205 -0.5999
   46MOL   O53043820   3.258   6.156   6.580  0.0839  0.1574 -0.4585
   46MOL   C53143821   3.326   6.048   6.646 -0.1069 -0.0613 -0.4404
   46MOL   C53243822   3.436   5.988   6.562 -0.2392  0.6993  0.5358
   46MOL   C53343823   3.479   5.851   6.611 -0.1728  0.4823  0.3896
   46MOL   C53443824   3.607   5.805   6.530  0.2033 -0.9725 -0.1176
   46MOL   C53543825   3.647   5.663   6.558 -0.7736  0.2650  0.1270
   46MOL   C53643826   3.778   5.629   6.486  0.5845 -0.5532 -0.4973
   46MOL   C53743827   3.837   5.496   6.532 -0.6909 -0.3648 -0.8346
   46MOL   C53843828   3.977   5.459   6.473  0.7825 -0.0424  0.1417
   46MOL   C53943829   4.018   5.306   6.482  0.2528 -0.1000 -0.1342
   46MOL   C54043830   4.138   5.280   6.386 -0.5055 -0.6082 -0.7885
   46MOL   O54143831   4.089   5.291   6.253 -0.1513 -0.0444  0.0074
   46MOL   C54243832   4.173   5.272   6.152 -0.6332  0.5055  0.3822
   46MOL   O54343833   4.298   5.251   6.158 -0.3075 -0.4736 -0.2549
   46MOL   C54443834   4.096   5.290   6.013  0.1376  0.5878 -0.2738
   46MOL   C54543835   4.178   5.256   5.888  1.2944  0.2543  0.6607
   46MOL   C54643836   4.108   5.276   5.753  0.4825  0.1871  0.1447
   46MOL   C54743837   4.199   5.316   5.635 -0.0692  0.1107 -0.8588
   46MOL   C54843838   4.260   5.458   5.657 -1.3905 -0.5749  0.3272
   46MOL   O54943839   4.238   5.522   5.759 -0.1368  0.2758  0.4267
   46MOL   H55043840   3.352   6.069   6.750  0.4665  1.2959 -0.8339
   46MOL   H55143841   3.248   5.974   6.656  0.1322 -0.1117  1.2350
   46MOL   H55243842   3.526   6.048   6.551  1.0408 -1.0539  1.3182
   46MOL   H55343843   3.400   5.968   6.461 -1.5650  2.8859  0.5225
   46MOL   H55443844   3.506   5.855   6.717  2.0507  1.8811 -0.1952
   46MOL   H55543845   3.394   5.783   6.614  0.6387 -0.5933 -0.8280
   46MOL   H55643846   3.697   5.866   6.533 -0.6370  0.2315  1.7740
   46MOL   H55743847   3.580   5.802   6.424  0.0902  0.5551 -0.1427
   46MOL   H55843848   3.563   5.601   6.530  0.8820 -2.0387  0.1478
   46MOL   H55943849   3.663   5.662   6.666 -0.9285 -1.5626  0.1447
   46MOL   H56043850   3.852   5.707   6.504 -1.4864  1.0534  1.2454
   46MOL   H56143851   3.744   5.632   6.382  0.7402  2.4515 -0.5120
   46MOL   H56243852   3.764   5.416   6.513 -1.7116 -0.2088  2.2377
   46MOL   H56343853   3.838   5.500   6.641 -1.5809 -1.6613 -0.7673
   46MOL   H56443854   4.061   5.519   6.507 -0.1836  1.0206  0.6673
   46MOL   H56543855   3.967   5.481   6.366  0.1877 -4.2240 -0.7605
   46MOL   H56643856   4.039   5.286   6.587 -1.3164  2.0583  0.6145
   46MOL   H56743857   3.937   5.236   6.462 -0.1458  0.0753  0.8283
   46MOL   H56843858   4.186   5.184   6.403 -0.7262 -0.3148  1.7246
   46MOL   H56943859   4.229   5.340   6.395 -0.2875 -0.8956 -1.0637
   46MOL   H57043860   4.009   5.223   6.016 -0.1990  0.9412 -1.8193
   46MOL   H57143861   4.039   5.383   6.005  0.8473  1.1009  0.5144
   46MOL   H57243862   4.196   5.149   5.886 -2.2922 -0.4542 -3.9319
   46MOL   H57343863   4.269   5.317   5.894  1.1305  0.6338 -0.5361
   46MOL   H57443864   4.036   5.358   5.760  0.8061  0.5876 -1.1664
   46MOL   H57543865   4.058   5.183   5.728 -1.5586  1.5897 -1.1657
   46MOL   H57643866   4.144   5.315   5.541  1.5840 -0.0795 -1.8430
   46MOL   H57743867   4.279   5.243   5.622  0.7704  1.0678 -1.1185
   46MOL   O57843868   4.340   5.495   5.561  0.2684  0.2391  0.4139
   46MOL   C57943869   4.439   5.596   5.574  0.6449  0.2948 -0.1261
   46MOL   C58043870   4.504   5.604   5.435  0.2193 -0.2247 -0.1702
   46MOL   C58143871   4.629   5.520   5.401  0.3225  0.2894 -0.4181
   46MOL   C58243872   4.595   5.394   5.318 -0.2676  0.6977 -0.0648
   46MOL   C58343873   4.716   5.299   5.315  0.3830  0.0613  0.4057
   46MOL   C58443874   4.699   5.176   5.227  0.0705  0.0076  0.4434
   46MOL   C58543875   4.830   5.089   5.224  0.1176  0.1972  0.8732
   46MOL   C58643876   4.817   4.949   5.159 -0.2709  0.3438 -0.3163
   46MOL   C58743877   4.957   4.878   5.150 -0.0468 -0.0815  0.5618
   46MOL   C58843878   4.997   4.813   5.278 -0.3375 -0.1776 -0.0223
   46MOL   O58943879   5.134   4.772   5.271  0.3574  0.6471  0.7818
   46MOL   C59043880   5.202   4.756   5.389  0.4962 -0.1219  0.6524
   46MOL   O59143881   5.147   4.736   5.499  0.0692 -0.2449  0.0154
   46MOL   C59243882   5.351   4.743   5.362  0.0072 -0.2445 -0.7539
   46MOL   C59343883   5.386   4.618   5.276  0.6279 -1.1433 -0.6127
   46MOL   C59443884   5.541   4.593   5.270  0.0059  0.2525  0.1890
   46MOL   C59543885   5.585   4.459   5.212  0.3154 -0.0700 -0.0009
   46MOL   C59643886   5.527   4.336   5.285  0.0023  0.0412  0.0937
   46MOL   O59743887   5.467   4.249   5.221 -0.5774  0.4665 -0.3341
   46MOL   H59843888   4.379   5.684   5.599  0.8200  0.7559 -1.2897
   46MOL   H59943889   4.511   5.579   5.654 -1.0706 -0.3683  1.3155
   46MOL   H60043890   4.551   5.703   5.437 -0.3586  0.0669 -0.7801
   46MOL   H60143891   4.438   5.613   5.348  2.4539 -1.1507 -2.0251
   46MOL   H60243892   4.690   5.568   5.324 -1.2077  1.5778 -0.8783
   46MOL   H60343893   4.674   5.476   5.489  2.2408 -0.3109 -1.6782
   46MOL   H60443894   4.570   5.425   5.216  0.7345  0.4219 -0.3969
   46MOL   H60543895   4.507   5.345   5.360 -1.1302  0.4083 -2.1289
   46MOL   H60643896   4.750   5.245   5.403 -2.1111 -3.5143 -0.7369
   46MOL   H60743897   4.799   5.357   5.275  0.5720  1.5791  2.8785
   46MOL   H60843898   4.672   5.197   5.123  1.1988 -3.0705 -0.5326
   46MOL   H60943899   4.627   5.125   5.292  1.1576 -0.7722  1.0430
   46MOL   H61043900   4.861   5.063   5.325  1.5697  1.4363  0.7578
   46MOL   H61143901   4.904   5.147   5.169 -2.0018 -0.6940 -3.1595
   46MOL   H61243902   4.792   4.969   5.054 -1.1399  0.7630 -0.0312
   46MOL   H61343903   4.744   4.885   5.208 -0.7170  1.3428  0.3186
   46MOL   H61443904   4.953   4.809   5.066  1.0391 -0.2554  0.6422
   46MOL   H61543905   5.036   4.943   5.113  1.0394 -3.3341 -3.1527
   46MOL   H61643906   4.939   4.724   5.301  0.2503 -0.5347  0.0786
   46MOL   H61743907   4.986   4.883   5.361 -0.1848  1.1012 -1.0791
   46MOL   H61843908   5.393   4.832   5.316 -1.2034 -0.2295 -1.8692
   46MOL   H61943909   5.401   4.744   5.458  0.5365  0.8391 -1.0412
   46MOL   H62043910   5.340   4.603   5.178  0.2778 -0.7691 -0.5080
   46MOL   H62143911   5.347   4.526   5.320  0.5045 -0.2852  1.1225
   46MOL   H62243912   5.580   4.608   5.371  1.3003  0.4511 -0.3391
   46MOL   H62343913   5.582   4.671   5.206 -0.0360  1.9691  2.1791
   46MOL   H62443914   5.692   4.443   5.202  0.1780 -0.1683 -1.2908
   46MOL   H62543915   5.544   4.461   5.111  0.1676  2.1433  0.0791
   46MOL   O62643916   5.560   4.333   5.414  0.2333 -0.0479 -0.0021
   46MOL   C62743917   5.552   4.216   5.488  0.9182  0.2454  0.1525
   46MOL   C62843918   5.409   4.197   5.543 -0.0608  0.2381 -0.0814
   46MOL   C62943919   5.354   4.324   5.608  0.6282  0.0944  0.2667
   46MOL   C63043920   5.244   4.303   5.716 -0.2904 -0.0810 -0.1288
   46MOL   C63143921   5.168   4.428   5.755 -0.8024  0.1102  0.3354
   46MOL   C63243922   5.041   4.451   5.673 -0.0877 -0.1530 -0.2031
   46MOL   C63343923   4.968   4.577   5.718 -0.6566  0.2361 -0.1143
   46MOL   C63443924   4.824   4.581   5.657  1.1802  0.1849 -0.1643
   46MOL   C63543925   4.738   4.695   5.727 -0.5351  0.5034 -0.0119
   46MOL   C63643926   4.782   4.834   5.678 -0.0941 -0.1745 -0.3784
   46MOL   O63743927   4.693   4.930   5.730 -0.1341  0.2202 -0.3947
   46MOL   C63843928   4.723   5.062   5.718  0.5439  0.0495 -0.5566
   46MOL   O63943929   4.823   5.105   5.657  0.5076 -0.5445 -0.2221
   46MOL   C64043930   4.632   5.168   5.791 -0.2454 -0.1193  0.0957
   46MOL   C64143931   4.689   5.312   5.788 -0.4633  0.2127  0.0974
   46MOL   C64243932   4.593   5.412   5.857 -0.4280 -0.2212  0.5421
   46MOL   C64343933   4.585   5.391   6.005 -0.4987  0.1736  0.0851
   46MOL   C64443934   4.714   5.390   6.084 -0.4572 -0.0517 -0.2070
   46MOL   O64543935   4.798   5.482   6.061 -0.8022  0.9669  0.2613
   46MOL   H64643936   5.579   4.134   5.422 -0.9105 -0.4825  0.2929
   46MOL   H64743937   5.630   4.233   5.562 -0.6842  1.3824  1.6053
   46MOL   H64843938   5.410   4.116   5.616  1.4505 -0.2970 -0.6873
   46MOL   H64943939   5.344   4.172   5.460  0.0677 -3.4950  0.8260
   46MOL   H65043940   5.436   4.367   5.665  0.7006 -0.9835  0.9895
   46MOL   H65143941   5.315   4.396   5.536 -0.2219 -1.0513 -0.4224
   46MOL   H65243942   5.305   4.266   5.799 -1.1583  0.0012  0.5499
   46MOL   H65343943   5.182   4.220   5.685 -0.3416 -0.7696  1.7538
   46MOL   H65443944   5.226   4.514   5.723  0.6162 -1.6495 -2.0136
   46MOL   H65543945   5.150   4.437   5.862  0.6371  1.9284  0.4327
   46MOL   H65643946   4.975   4.364   5.672 -1.3913  0.8179 -0.6270
   46MOL   H65743947   5.057   4.460   5.565  3.1711  0.4105  0.2779
   46MOL   H65843948   5.032   4.666   5.710 -1.3104  0.4568 -3.5347
   46MOL   H65943949   4.970   4.559   5.826  0.3921 -1.5946 -0.4134
   46MOL   H66043950   4.775   4.484   5.655 -0.0668  0.8216 -1.5080
   46MOL   H66143951   4.839   4.606   5.552 -0.6151  1.7654 -0.0767
   46MOL   H66243952   4.633   4.699   5.698 -0.3824 -1.3614 -0.8751
   46MOL   H66343953   4.728   4.682   5.835 -1.3632 -0.7769 -0.2367
   46MOL   H66443954   4.781   4.831   5.569 -1.1357 -1.5524 -0.3312
   46MOL   H66543955   4.883   4.851   5.716  1.1076 -3.1696 -2.0691
   46MOL   H66643956   4.532   5.168   5.749 -1.2982 -2.6074  2.4759
   46MOL   H66743957   4.622   5.125   5.891  0.7731  1.8676  1.0918
   46MOL   H66843958   4.697   5.351   5.686 -0.5175  0.8130  0.3195
   46MOL   H66943959   4.784   5.315   5.841 -0.3127 -1.3710 -0.0430
   46MOL   H67043960   4.495   5.414   5.810 -0.9787 -2.1036  1.5839
   46MOL   H67143961   4.646   5.505   5.837 -1.4630  0.1919 -0.3278
   46MOL   H67243962   4.534   5.296   6.015  0.2828 -0.1355  1.2158
   46MOL   H67343963   4.513   5.470   6.030  0.8182  1.9344 -1.5554
   46MOL   O67443964   4.728   5.283   6.168  0.4591 -0.7517  0.3447
   46MOL   C67543965   4.840   5.274   6.254 -0.0077  0.0409  0.2560
   46MOL   C67643966   4.931   5.154   6.211  0.9161  0.3719 -0.8355
   46MOL   C67743967   5.006   5.187   6.076 -0.5766 -0.1345 -0.1506
   46MOL   C67843968   5.093   5.073   6.027 -0.6843 -0.4360  0.4074
   46MOL   C67943969   5.096   5.062   5.872 -0.1176  0.4464  0.1825
   46MOL   C68043970   5.191   4.954   5.814  0.7637 -0.3214  0.2724
   46MOL   C68143971   5.337   4.992   5.824  0.7581  0.6920  0.5646
   46MOL   C68243972   5.431   4.919   5.726  0.5488  0.0446  0.1225
   46MOL   C68343973   5.447   4.775   5.772 -0.3462  0.1833 -1.1102
   46MOL   C68443974   5.536   4.691   5.679  0.0030 -0.6449  0.3808
   46MOL   O68543975   5.643   4.649   5.761 -0.6756  0.3257 -0.2497
   46MOL   C68643976   5.703   4.528   5.739 -0.2218  0.9710 -0.5608
   46MOL   O68743977   5.660   4.452   5.655  0.0248 -0.0067  0.4732
   46MOL   C68843978   5.813   4.501   5.835  0.7928  0.6247 -0.9259
   46MOL   C68943979   5.780   4.496   5.986 -0.4338  0.1325  0.3375
   46MOL   C69043980   5.675   4.397   6.035  0.3277 -0.2124  0.0518
   46MOL   C69143981   5.532   4.429   6.019 -0.5933 -0.1212  0.0129
   46MOL   C69243982   5.460   4.526   6.117 -0.4646 -0.1637  0.3205
   46MOL   O69343983   5.521   4.579   6.209  0.1154 -0.1690 -0.3198
   46MOL   H69443984   4.903   5.362   6.265  1.9407 -1.5440  2.2182
   46MOL   H69543985   4.794   5.245   6.348 -0.8152  2.1103  0.5043
   46MOL   H69643986   4.868   5.068   6.193 -0.2752  0.3933  2.8439
   46MOL   H69743987   5.012   5.135   6.281  0.8775 -3.2649 -1.7128
   46MOL   H69843988   4.933   5.215   6.000  0.6083  0.6180 -1.0138
   46MOL   H69943989   5.059   5.279   6.097 -0.2267 -0.5970  1.0003
   46MOL   H70043990   5.067   4.980   6.077  1.6577  0.1256  2.7381
   46MOL   H70143991   5.196   5.094   6.055 -0.8070  0.3284  0.2916
   46MOL   H70243992   5.123   5.160   5.833 -1.6179  0.3961 -1.0409
   46MOL   H70343993   4.996   5.033   5.839  0.8768 -1.7245 -0.9982
   46MOL   H70443994   5.170   4.950   5.708  1.0422  1.0714  0.1616
   46MOL   H70543995   5.167   4.851   5.842  0.5627 -0.6121 -0.9514
   46MOL   H70643996   5.373   4.981   5.927  1.9507 -1.4559 -0.0511
   46MOL   H70743997   5.342   5.097   5.794 -0.2961  0.3424 -0.8404
   46MOL   H70843998   5.527   4.970   5.726 -0.2224  1.6159 -3.5138
   46MOL   H70943999   5.386   4.918   5.627  1.5130  3.8962 -0.4437
   46MOL   H71044000   5.483   4.775   5.875  2.0883  2.5451 -1.9075
   46MOL   H71144001   5.349   4.728   5.777 -0.3162  0.1075 -1.2253
   46MOL   H71244002   5.596   4.738   5.601  2.7978 -1.3004  2.0663
   46MOL   H71344003   5.475   4.615   5.631 -0.0664 -0.5365  0.2959
   46MOL   H71444004   5.869   4.412   5.808 -2.6436 -1.7568 -0.5633
   46MOL   H71544005   5.887   4.580   5.825  1.0480  0.4110 -0.7279
   46MOL   H71644006   5.764   4.599   6.017  0.9509  0.6191 -0.5021
   46MOL   H71744007   5.871   4.465   6.037 -0.1435  0.3451 -0.0470
   46MOL   H71844008   5.692   4.381   6.141 -1.1500 -0.5476  0.2449
   46MOL   H71944009   5.706   4.304   5.987  2.0770  0.2438  0.2760
   46MOL   H72044010   5.476   4.336   6.021 -0.2599 -0.3404 -1.0713
   46MOL   H72144011   5.525   4.476   5.921 -0.2549  0.3269  0.1983
   46MOL   O72244012   5.325   4.540   6.087 -0.0272  0.7326  0.7903
   46MOL   C72344013   5.239   4.602   6.185 -0.6919 -0.2444  0.4479
   46MOL   C72444014   5.099   4.600   6.130  0.1091 -0.0881  1.1945
   46MOL   C72544015   5.002   4.674   6.227  0.4198 -0.0225 -0.7695
   46MOL   C72644016   4.865   4.694   6.165  0.0348 -0.2261  0.1556
   46MOL   C72744017   4.758   4.762   6.249  0.5334 -0.4142  0.0540
   46MOL   C72844018   4.626   4.783   6.172  0.1211  0.1667 -0.1959
   46MOL   C72944019   4.532   4.858   6.266 -0.6561  0.4400 -0.1623
   46MOL   C73044020   4.550   5.019   6.255  0.0749  0.3094  0.3597
   46MOL   C73144021   4.489   5.102   6.376 -0.1823  0.3281 -0.0030
   46MOL   C73244022   4.575   5.093   6.507 -0.1622  0.1180  0.0158
   46MOL   O73344023   4.503   5.153   6.624 -0.0603  0.1121  0.6736
   46MOL   C73444024   4.450   5.065   6.707  0.4196 -0.4057  0.0663
   46MOL   O73544025   4.457   4.944   6.708 -0.4153  0.0865  0.4750
   46MOL   C73644026   4.382   5.138   6.828 -0.6897  0.0326  0.2422
   46MOL   C73744027   4.268   5.231   6.782 -0.2725  0.2519  0.4246
   46MOL   C73844028   4.203   5.292   6.905  0.0466  0.6952 -0.3133
   46MOL   C73944029   4.090   5.389   6.881  0.0384  0.5148  0.4156
   46MOL   C74044030   4.143   5.531   6.857 -0.6000  0.1044 -0.5434
   46MOL   O74144031   4.135   5.589   6.746 -0.4134 -0.0946  0.2114
   46MOL   H74244032   5.245   4.547   6.279 -1.4605 -0.5717  0.3110
   46MOL   H74344033   5.271   4.705   6.203 -1.2198 -0.3330  1.9916
   46MOL   H74444034   5.058   4.502   6.107 -0.1125  0.4170 -0.5912
   46MOL   H74544035   5.094   4.649   6.033 -1.0108 -3.1779 -0.3510
   46MOL   H74644036   5.000   4.628   6.326  1.6521  1.1254 -0.1781
   46MOL   H74744037   5.059   4.767   6.235 -1.2142  1.0272 -1.0025
   46MOL   H74844038   4.817   4.602   6.131  1.1564 -1.2487  1.3105
   46MOL   H74944039   4.874   4.760   6.079 -0.7607 -1.1175 -0.6215
   46MOL   H75044040   4.780   4.857   6.297 -0.4186 -0.6274  0.9538
   46MOL   H75144041   4.739   4.697   6.334  0.9482 -0.0257  0.4442
   46MOL   H75244042   4.599   4.681   6.147  2.6118 -0.8694  1.1195
   46MOL   H75344043   4.653   4.829   6.077 -0.8765 -0.2780 -0.7005
   46MOL   H75444044   4.548   4.835   6.372 -0.6661  0.7291 -0.0980
   46MOL   H75544045   4.427   4.833   6.252 -0.1252 -1.0002 -1.8043
   46MOL   H75644046   4.506   5.051   6.161 -0.3343 -1.2012  0.0254
   46MOL   H75744047   4.654   5.050   6.243  0.5953 -1.9380 -1.0966
   46MOL   H75844048   4.486   5.207   6.346 -1.2914  0.7786  1.6562
   46MOL   H75944049   4.389   5.069   6.403 -0.0256 -1.6875 -1.7138
   46MOL   H76044050   4.677   5.127   6.492  0.6424 -0.8533  2.9484
   46MOL   H76144051   4.594   4.986   6.515  0.4948  0.3658  2.2346
   46MOL   H76244052   4.338   5.068   6.899 -3.0272  0.9896 -0.2292
   46MOL   H76344053   4.465   5.186   6.879  1.0742 -1.9829 -0.6636
   46MOL   H76444054   4.190   5.177   6.728  0.4194  1.0605 -1.4116
   46MOL   H76544055   4.308   5.312   6.722  0.3359 -0.9610 -0.8395
   46MOL   H76644056   4.280   5.329   6.973 -0.2779  1.5702 -0.4127
   46MOL   H76744057   4.157   5.206   6.955 -2.7617  2.8966  1.0224
   46MOL   H76844058   4.030   5.400   6.972  1.2986  2.3196  1.0553
   46MOL   H76944059   4.030   5.350   6.799 -0.4095  0.4310  0.7836
   46MOL   O77044060   4.190   5.590   6.965  0.2260  0.4424  0.2486
   46MOL   C77144061   4.248   5.714   6.957  0.5474 -0.8979 -0.3722
   46MOL   C77244062   4.339   5.753   7.072  0.4716  0.0099  0.0832
   46MOL   C77344063   4.464   5.662   7.091 -0.0919 -0.7069 -0.6726
   46MOL   C77444064   4.506   5.646   7.239 -0.2456  0.5364 -0.5090
   46MOL   C77544065   4.612   5.539   7.255 -0.3549  0.4755  1.1259
   46MOL   C77644066   4.663   5.527   7.394  0.0142 -0.3243  0.4239
   46MOL   C77744067   4.812   5.475   7.403  0.4995  0.2776  0.1840
   46MOL   C77844068   4.916   5.581   7.366  0.1108  0.1763  0.5397
   46MOL   C77944069   4.961   5.666   7.485 -0.1909 -0.5656 -0.2094
   46MOL   C78044070   5.067   5.767   7.458 -0.5381 -0.3448  0.4337
   46MOL   O78144071   5.185   5.690   7.454  0.4474 -0.1391  0.0798
   46MOL   C78244072   5.290   5.744   7.387  0.4231  0.1223 -0.2673
   46MOL   O78344073   5.289   5.850   7.320  0.4057  0.0633 -0.1966
   46MOL   C78444074   5.421   5.656   7.396  0.4170  0.3684  0.6807
   46MOL   C78544075   5.526   5.671   7.513  0.3045 -0.2202 -0.2561
   46MOL   C78644076   5.580   5.807   7.540  0.3807 -0.2372 -0.7376
   46MOL   C78744077   5.679   5.859   7.438  0.1456  0.2578 -0.5088
   46MOL   C78844078   5.799   5.776   7.394  0.0835 -0.4556  0.6705
   46MOL   O78944079   5.906   5.774   7.455  0.7699 -0.2992  0.4958
   46MOL   H79044080   4.316   5.707   6.872 -0.8240  1.1706 -1.6812
   46MOL   H79144081   4.167   5.784   6.939 -1.1333 -2.4779  0.9172
   46MOL   H79244082   4.271   5.752   7.157  0.3102  0.1479 -0.0436
   46MOL   H79344083   4.366   5.858   7.062  1.5795 -0.3112 -0.2890
   46MOL   H79444084   4.434   5.573   7.035  0.4466 -0.2365 -1.7383
   46MOL   H79544085   4.550   5.709   7.044 -0.3981  2.0291  1.4381
   46MOL   H79644086   4.423   5.618   7.303  0.4814 -0.0180  0.2063
   46MOL   H79744087   4.535   5.745   7.274 -1.6188  0.2398  1.5888
   46MOL   H79844088   4.699   5.561   7.194 -2.0972 -0.3545 -1.7474
   46MOL   H79944089   4.577   5.447   7.208 -0.6241 -0.5712  3.2821
   46MOL   H80044090   4.599   5.451   7.440 -0.2714  0.3962  1.2157
   46MOL   H80144091   4.656   5.618   7.453 -0.7730  0.2724 -0.5822
   46MOL   H80244092   4.829   5.400   7.325  1.1751 -1.2091  1.7313
   46MOL   H80344093   4.833   5.437   7.503 -0.2165  1.4274  0.7825
   46MOL   H80444094   4.885   5.644   7.283  0.1972 -0.5253 -0.0275
   46MOL   H80544095   5.010   5.549   7.322 -0.0936  1.4205 -0.8701
   46MOL   H80644096   4.868   5.710   7.522 -0.6429  0.7712 -2.8548
   46MOL   H80744097   4.992   5.590   7.557 -1.0059  0.1403  0.8986
   46MOL   H80844098   5.077   5.844   7.535  4.3124 -0.0480 -0.3456
   46MOL   H80944099   5.045   5.808   7.360  1.5663 -0.4468 -0.0900
   46MOL   H81044100   5.388   5.554   7.379  0.7370  0.2279  0.8831
   46MOL   H81144101   5.473   5.677   7.302  0.6756 -0.8031  0.5489
   46MOL   H81244102   5.600   5.591   7.504 -1.4616 -2.0652  1.1035
   46MOL   H81344103   5.460   5.649   7.597  0.2396 -0.1479 -0.2890
   46MOL   H81444104   5.634   5.813   7.635 -0.7589  1.3970 -0.1627
   46MOL   H81544105   5.495   5.874   7.553  0.3803  0.5857 -4.4804
   46MOL   H81644106   5.718   5.957   7.463 -0.4299  0.7848 -1.6738
   46MOL   H81744107   5.626   5.878   7.345 -1.3685 -0.5013  0.1812
   46MOL   O81844108   5.764   5.703   7.284  0.0430  0.6038  0.8052
   46MOL   C81944109   5.870   5.630   7.214  0.3807 -0.3784 -0.0542
   46MOL   C82044110   5.830   5.497   7.154  0.0497 -0.0057  0.6595
   46MOL   C82144111   5.763   5.395   7.248 -0.4513 -0.5413  0.6457
   46MOL   C82244112   5.733   5.264   7.178  0.0999 -0.5091  0.0614
   46MOL   C82344113   5.683   5.138   7.261  0.5051  0.7081  0.2462
   46MOL   C82444114   5.657   5.008   7.184 -0.3867 -1.1198  0.3024
   46MOL   C82544115   5.596   4.910   7.283 -0.7006  0.0069  0.5769
   46MOL   C82644116   5.594   4.764   7.246  0.5410 -0.5364 -0.2604
   46MOL   C82744117   5.517   4.730   7.121 -0.8191  0.0261  0.0034
   46MOL   C82844118   5.516   4.577   7.085 -0.5307 -0.3830 -0.5768
   46MOL   O82944119   5.444   4.546   6.969  0.0289 -0.3273 -0.2861
   46MOL   C83044120   5.456   4.417   6.916  0.3390 -0.2359  0.6642
   46MOL   O83144121   5.517   4.323   6.959  0.0334  0.4180 -0.1425
   46MOL   C83244122   5.335   4.391   6.823  0.5880 -0.3257  0.3824
   46MOL   C83344123   5.345   4.484   6.701 -0.1302  0.1566  0.5091
   46MOL   C83444124   5.277   4.441   6.578  0.3081 -0.0619 -0.1115
   46MOL   C83544125   5.124   4.425   6.601  0.3425  0.2327 -0.2332
   46MOL   C83644126   5.048   4.368   6.474 -0.0075 -0.2629 -0.1196
   46MOL   O83744127   5.102   4.309   6.380  0.2714  0.0175 -0.6714
   46MOL   H83844128   5.903   5.686   7.127 -2.5271  0.2910 -0.7700
   46MOL   H83944129   5.956   5.614   7.280  1.1099 -0.0732 -0.9203
   46MOL   H84044130   5.907   5.453   7.091 -1.1081 -1.2816  0.1082
   46MOL   H84144131   5.755   5.526   7.080  0.2785  0.4514  0.6023
   46MOL   H84244132   5.843   5.375   7.319  2.3476 -1.2937 -2.6290
   46MOL   H84344133   5.674   5.434   7.298 -0.8367 -2.3385  1.3960
   46MOL   H84444134   5.827   5.233   7.132  0.1813  1.1092 -0.8744
   46MOL   H84544135   5.661   5.270   7.096 -1.3312  3.0025  1.4801
   46MOL   H84644136   5.587   5.177   7.294  0.8798  0.0873  2.1483
   46MOL   H84744137   5.752   5.122   7.344 -0.9564 -0.4270  1.2843
   46MOL   H84844138   5.750   4.963   7.148 -0.1454 -0.5462  0.2077
   46MOL   H84944139   5.588   5.026   7.102  0.8925  2.9272 -0.0325
   46MOL   H85044140   5.494   4.937   7.311 -1.0664 -0.4010 -0.3582
   46MOL   H85144141   5.645   4.924   7.379 -2.4088 -0.9191  1.5941
   46MOL   H85244142   5.553   4.706   7.329 -0.3371 -0.0681 -0.3663
   46MOL   H85344143   5.692   4.723   7.223  0.3842 -1.0234 -0.0764
   46MOL   H85444144   5.416   4.771   7.132  0.6273  3.7380  0.0877
   46MOL   H85544145   5.576   4.783   7.047  0.0598 -1.2150 -0.1924
   46MOL   H85644146   5.468   4.518   7.163  0.5794  0.7055  0.9604
   46MOL   H85744147   5.617   4.536   7.088  0.9113  3.0162 -0.1247
   46MOL   H85844148   5.355   4.287   6.796  0.2075 -0.7977  1.8764
   46MOL   H85944149   5.241   4.391   6.877  0.0556  0.4375 -0.5219
   46MOL   H86044150   5.451   4.505   6.684  0.1329 -1.1229  0.5292
   46MOL   H86144151   5.305   4.585   6.710 -0.2982  0.1420 -0.0708
   46MOL   H86244152   5.312   4.343   6.546  4.2162  1.3719 -0.4008
   46MOL   H86344153   5.299   4.504   6.493  0.1703  3.5297  2.4235
   46MOL   H86444154   5.071   4.516   6.629  0.1243 -0.2202  0.8515
   46MOL   H86544155   5.109   4.341   6.669  1.4444 -1.3575 -1.9136
   46MOL   O86644156   4.917   4.382   6.484 -0.0841  0.0182 -0.2386
   46MOL   C86744157   4.839   4.341   6.374  0.0546  0.3339  0.3496
   46MOL   C86844158   4.697   4.373   6.438  0.3129  0.4869 -0.3205
   46MOL   C86944159   4.588   4.371   6.325  0.2543  0.0509  0.2480
   46MOL   C87044160   4.448   4.407   6.367  0.4229 -0.6203  0.8631
   46MOL   C87144161   4.355   4.433   6.250  0.0610 -0.3908 -0.0789
   46MOL   C87244162   4.204   4.448   6.286 -0.0349 -0.5609  0.4320
   46MOL   C87344163   4.126   4.468   6.161  0.2571 -0.0757 -0.0015
   46MOL   C87444164   3.976   4.474   6.179 -0.0458 -0.3611  0.1182
   46MOL   C87544165   3.893   4.496   6.052 -0.2340 -1.0025 -0.0323
   46MOL   C87644166   3.928   4.630   5.989 -0.2914  0.0866  0.1825
   46MOL   O87744167   3.898   4.733   6.085 -0.3630 -0.1029  0.5421
   46MOL   C87844168   3.943   4.858   6.058 -0.2525  1.0347 -0.2432
   46MOL   O87944169   4.013   4.896   5.967  0.4313  0.3072  0.5972
   46MOL   C88044170   3.903   4.958   6.167 -0.1941 -0.3601 -0.0245
   46MOL   C88144171   3.943   4.912   6.318 -0.4370 -0.1793 -0.1613
   46MOL   C88244172   4.089   4.911   6.341 -0.3815  0.1036 -0.8054
   46MOL   C88344173   4.132   4.917   6.490 -0.1570 -0.1217 -0.0549
   46MOL   C88444174   4.087   4.795   6.583  0.1523 -0.5754 -0.2128
   46MOL   O88544175   4.061   4.683   6.539 -0.3646  0.2392  0.2418
   46MOL   H88644176   4.862   4.400   6.285  1.6254 -1.3734 -0.3927
   46MOL   H88744177   4.850   4.236   6.349  1.6943 -0.2120  3.2608
   46MOL   H88844178   4.699   4.464   6.498  0.2981  0.1183  0.2370
   46MOL   H88944179   4.671   4.291   6.504 -0.0323  0.8044 -0.0589
   46MOL   H89044180   4.618   4.449   6.254 -1.3401  0.7227  0.2887
   46MOL   H89144181   4.591   4.279   6.267  1.6974  0.0005  0.3696
   46MOL   H89244182   4.449   4.494   6.432  1.5032  1.9204 -2.3792
   46MOL   H89344183   4.406   4.327   6.428  0.1083  0.3127  1.8885
   46MOL   H89444184   4.365   4.347   6.184 -0.9477 -1.5291  1.2345
   46MOL   H89544185   4.386   4.527   6.203  1.0374  1.5105  4.1411
   46MOL   H89644186   4.188   4.533   6.353  2.6001 -1.0497  1.7772
   46MOL   H89744187   4.174   4.365   6.349 -0.8635 -0.9904 -0.5246
   46MOL   H89844188   4.139   4.388   6.088 -2.6212 -0.3601 -0.2839
   46MOL   H89944189   4.159   4.560   6.113  4.4736 -2.1707 -1.3454
   46MOL   H90044190   3.952   4.554   6.248 -0.3488 -0.7855  0.5134
   46MOL   H90144191   3.942   4.382   6.227 -0.6492  1.5390  3.4185
   46MOL   H90244192   3.907   4.420   5.975 -1.1309  0.3150 -1.5148
   46MOL   H90344193   3.791   4.488   6.089 -0.5780  0.8618 -0.5701
   46MOL   H90444194   3.867   4.652   5.901 -2.4718  0.7104  1.7991
   46MOL   H90544195   4.032   4.615   5.959  0.0685 -2.4426  2.5401
   46MOL   H90644196   3.931   5.061   6.148 -1.0278  0.2041  1.7229
   46MOL   H90744197   3.795   4.961   6.156 -0.5649 -0.2107  3.1941
   46MOL   H90844198   3.910   4.811   6.338  1.4136 -0.5548  1.0983
   46MOL   H90944199   3.888   4.984   6.377 -0.9405  0.3637 -1.2723
   46MOL   H91044200   4.130   4.999   6.293  2.4891 -0.3956  0.6039
   46MOL   H91144201   4.127   4.832   6.277 -1.4670 -1.1497  0.0644
   46MOL   H91244202   4.079   5.004   6.529 -1.6423 -0.4003 -1.3774
   46MOL   H91344203   4.238   4.934   6.504 -0.3739  0.2488  1.1609
   46MOL   O91444204   4.072   4.832   6.711  0.0350 -0.0428  0.0257
   46MOL   C91544205   4.090   4.729   6.812 -0.3700 -0.1554 -0.3049
   46MOL   C91644206   3.990   4.761   6.919 -0.5596 -0.2174 -0.6738
   46MOL   C91744207   4.011   4.896   6.987 -0.0986 -0.1078 -0.1733
   46MOL   C91844208   3.931   4.901   7.123 -0.3500 -0.2639  0.2310
   46MOL   C91944209   3.956   5.036   7.192 -0.1709 -0.5101 -0.0392
   46MOL   C92044210   3.887   5.052   7.326 -0.0208  0.7163  0.1260
   46MOL   C92144211   3.746   5.102   7.316 -0.1928 -0.0444 -0.2861
   46MOL   C92244212   3.694   5.124   7.460 -0.3243 -0.1947 -0.1571
   46MOL   C92344213   3.539   5.169   7.469  0.2132  0.1961 -0.1745
   46MOL   C92444214   3.499   5.190   7.609 -0.4447  0.9802  0.2491
   46MOL   O92544215   3.360   5.224   7.634  0.2332  0.4856  0.0310
   46MOL   C92644216   3.316   5.203   7.760  0.8607 -0.2663  0.2156
   46MOL   O92744217   3.383   5.183   0.097 -0.0621 -0.0342 -0.4151
   46MOL   C92844218   3.159   5.198   0.004 -0.4215  0.2747  0.3846
   46MOL   C92944219   3.091   5.313   0.070 -0.2910 -0.3259 -0.1900
   46MOL   C93044220   3.112   5.323   0.227  0.7012 -0.0846 -0.3638
   46MOL   C93144221   3.058   5.190   0.306  0.0184  0.8012 -0.8023
   46MOL   C93244222   2.999   5.203   0.442 -0.1313 -0.7384  0.4560
   46MOL   O93344223   2.993   5.312   0.498 -0.3958  0.4067 -0.0812
   46MOL   H93444224   4.067   4.629   6.776 -1.5770  0.1499 -0.4168
   46MOL   H93544225   4.195   4.740   6.837 -0.5698  2.1736 -0.3231
   46MOL   H93644226   4.005   4.683   6.994  2.1976  2.7818  2.0565
   46MOL   H93744227   3.889   4.753   6.879 -0.8681 -0.7838  0.1933
   46MOL   H93844228   4.117   4.911   7.002  0.2212  0.2214 -2.5014
   46MOL   H93944229   3.975   4.980   6.928 -1.6675 -0.0403  0.8481
   46MOL   H94044230   3.971   4.825   7.190  0.8261  1.7431  1.8951
   46MOL   H94144231   3.826   4.885   7.100 -0.3288 -1.0873  0.7148
   46MOL   H94244232   3.932   5.117   7.122  0.8090  2.2167  2.6405
   46MOL   H94344233   4.062   5.053   7.208 -0.1153  0.2272 -1.0864
   46MOL   H94444234   3.941   5.124   7.388 -0.0816 -0.5075  1.6314
   46MOL   H94544235   3.891   4.952   7.368 -0.2906  0.9677  0.7571
   46MOL   H94644236   3.699   5.014   7.271  0.7959 -0.8617  0.2485
   46MOL   H94744237   3.734   5.191   7.254 -0.9629 -1.4239 -2.1612
   46MOL   H94844238   3.765   5.190   7.510  0.8493  0.1392 -2.2189
   46MOL   H94944239   3.711   5.030   7.513 -1.0261  0.4619  1.2657
   46MOL   H95044240   3.524   5.264   7.417  0.0266  0.0170 -0.4486
   46MOL   H95144241   3.475   5.095   7.421  1.3147  0.2359 -1.7677
   46MOL   H95244242   3.565   5.266   7.652  1.4943 -0.0982 -0.7386
   46MOL   H95344243   3.537   5.105   7.667  0.9171  1.5766  0.2567
   46MOL   H95444244   3.120   5.211   7.667  2.6208 -0.6270 -0.9540
   46MOL   H95544245   3.130   5.099   0.039 -0.5877  0.3858  0.5613
   46MOL   H95644246   2.984   5.309   0.051 -0.4749  0.9430  0.5423
   46MOL   H95744247   3.132   5.399   0.015  3.0234 -0.5741  1.7657
   46MOL   H95844248   3.078   5.419   0.267  0.1903 -0.2413 -0.4216
   46MOL   H95944249   3.221   5.328   0.239  0.3462  0.6292  3.2713
   46MOL   H96044250   3.146   5.127   0.319  0.6891  2.1610  1.6807
   46MOL   H96144251   2.976   5.135   0.260  2.7872 -4.0383 -0.2640
   46MOL   H96244252   2.971   5.111   0.494  0.2662 -0.2343  1.5699
   47MOL     O144253   0.562   6.095   4.840  0.4915  0.1628 -0.0417
   47MOL     C244254   0.422   6.069   4.833 -0.4310 -0.1624  0.0771
   47MOL     C344255   0.383   5.992   4.958  0.0451  0.4830 -0.1937
   47MOL     C444256   0.245   5.930   4.946  0.0218  0.5966 -0.4272
   47MOL     C544257   0.209   5.843   5.068 -0.6115  0.6605  0.6619
   47MOL     C644258   0.053   5.803   5.074  0.2861 -0.4747 -0.0926
   47MOL     C744259   0.009   5.700   5.182 -0.3671  0.1420  0.2435
   47MOL     C844260   7.626   5.648   5.182  0.5709 -0.1769  0.3076
   47MOL     C944261   7.600   5.522   5.090  0.2476  0.5648  0.9013
   47MOL    C1044262   7.468   5.452   5.131 -0.0323  0.2309  0.7202
   47MOL    C1144263   7.445   5.320   5.054  0.0134 -0.3102  0.4651
   47MOL    O1244264   7.396   5.351   4.927 -0.2488  0.0643  0.0297
   47MOL    C1344265   7.264   5.330   4.896 -0.6892 -0.0273 -0.6010
   47MOL    O1444266   7.184   5.257   4.949  0.2188  0.2502 -0.2115
   47MOL    C1544267   7.237   5.406   4.760  0.0740 -0.1386  0.5178
   47MOL    C1644268   7.102   5.372   4.692 -0.3716  0.3021 -0.1970
   47MOL    C1744269   6.979   5.440   4.755 -0.2864 -0.5990  0.3695
   47MOL    C1844270   6.838   5.396   4.689 -0.0652 -0.0680 -0.2039
   47MOL    C1944271   6.794   5.471   4.565  0.5030 -0.5779  0.2315
   47MOL    O2044272   6.708   5.559   4.565  0.5997 -0.1180  0.1018
   47MOL    H2144273   0.357   6.154   4.816 -1.2050 -0.5301  1.1646
   47MOL    H2244274   0.424   6.008   4.743  2.0380 -1.0144  0.6629
   47MOL    H2344275   0.393   6.048   5.051  1.8612 -1.4837  0.8230
   47MOL    H2444276   0.452   5.913   4.986 -0.4125  0.5174  1.0621
   47MOL    H2544277   0.177   6.011   4.918 -1.2798 -0.3720 -0.0989
   47MOL    H2644278   0.253   5.862   4.861  0.6316  0.7383 -0.4842
   47MOL    H2744279   0.232   5.893   5.162  2.2915 -0.4905  0.6373
   47MOL    H2844280   0.270   5.752   5.077  0.9305  1.6202  0.1437
   47MOL    H2944281   0.034   5.757   4.977 -0.5625  0.8999 -0.5885
   47MOL    H3044282   7.749   5.888   5.073 -0.5288 -1.1256 -0.1675
   47MOL    H3144283   0.024   5.755   5.275 -1.5181  0.7081  0.1048
   47MOL    H3244284   0.082   5.619   5.188  0.0544  0.5060  0.0135
   47MOL    H3344285   7.554   5.725   5.154  0.1465 -1.6148 -2.7295
   47MOL    H3444286   7.600   5.628   5.286 -1.0256  2.1482  0.4013
   47MOL    H3544287   7.685   5.454   5.092  1.5067  2.0747 -0.6252
   47MOL    H3644288   7.595   5.548   4.984 -0.4632 -1.4301  0.4169
   47MOL    H3744289   7.482   5.415   5.233  3.0040  2.6541  1.2822
   47MOL    H3844290   7.385   5.522   5.137  0.7932  1.0544  2.9066
   47MOL    H3944291   7.371   5.273   5.119  0.2669 -0.0887  0.9176
   47MOL    H4044292   7.534   5.257   5.047 -0.6656 -1.2614  0.2340
   47MOL    H4144293   7.247   5.507   4.799  0.5095 -0.2490  0.6959
   47MOL    H4244294   7.323   5.389   4.695 -0.0358  1.0127  0.0537
   47MOL    H4344295   7.089   5.264   4.697 -1.3293  0.4498  0.4943
   47MOL    H4444296   7.110   5.401   4.587  0.8462  0.1434 -0.1623
   47MOL    H4544297   6.996   5.547   4.744  0.0454 -0.7984 -1.2184
   47MOL    H4644298   6.976   5.417   4.861  0.0714  0.5212  0.6271
   47MOL    H4744299   6.767   5.394   4.772 -1.2551 -2.3463 -1.2027
   47MOL    H4844300   6.848   5.290   4.664  1.2427 -0.3583  1.4652
   47MOL    H4944301   0.610   6.017   4.863  2.2615  1.4402  0.7526
   47MOL    O5044302   6.875   5.431   4.462  0.2139 -0.3916  0.4370
   47MOL    C5144303   6.838   5.456   4.331  0.7268 -0.0695 -0.4659
   47MOL    C5244304   6.936   5.381   4.240 -0.3368 -0.0982 -0.2929
   47MOL    C5344305   6.933   5.228   4.246  0.7299  0.3630 -0.9218
   47MOL    C5444306   7.011   5.163   4.135  0.0499 -0.1110  0.7882
   47MOL    C5544307   7.019   5.006   4.149 -0.2647 -0.2333  0.0613
   47MOL    C5644308   7.111   4.941   4.045 -0.7068  0.3771  0.2857
   47MOL    C5744309   7.143   4.796   4.075  0.0184 -0.1002  0.6282
   47MOL    C5844310   7.212   4.730   3.953  0.1368  0.9176 -0.6912
   47MOL    C5944311   7.116   4.680   3.840 -0.1187  0.5264  0.0706
   47MOL    C6044312   7.178   4.620   3.714  0.6696  0.7134  0.3084
   47MOL    O6144313   7.253   4.499   3.739 -0.6769 -0.0963  0.1349
   47MOL    C6244314   7.258   4.396   3.660 -0.7404  0.3653  0.1262
   47MOL    O6344315   7.188   4.380   3.560 -0.3310  0.1146  0.4386
   47MOL    C6444316   7.371   4.293   3.706  0.1803 -0.6668 -0.2633
   47MOL    C6544317   7.407   4.198   3.591  0.2630  0.4040 -0.9209
   47MOL    C6644318   7.539   4.126   3.607 -0.1090  0.0300  0.5230
   47MOL    C6744319   7.580   4.041   3.488 -0.3936  0.5112 -0.0344
   47MOL    C6844320   7.679   4.115   3.396 -0.2325  1.4045  0.1162
   47MOL    O6944321   7.673   4.235   3.376  0.6096  0.5121  0.2100
   47MOL    H7044322   6.740   5.412   4.314  1.0329 -0.4301 -1.3634
   47MOL    H7144323   6.833   5.562   4.303 -1.0633 -0.7273 -2.7740
   47MOL    H7244324   7.037   5.416   4.259 -0.9335  2.2986 -1.3960
   47MOL    H7344325   6.925   5.412   4.136  1.1554 -0.4138 -0.5455
   47MOL    H7444326   6.985   5.191   4.334 -0.2367 -1.6133 -1.1603
   47MOL    H7544327   6.828   5.198   4.242  0.6135  0.8767 -1.9871
   47MOL    H7644328   7.107   5.212   4.125 -1.1583  2.3276  0.6312
   47MOL    H7744329   6.970   5.183   4.036 -0.7028 -2.1038  0.6858
   47MOL    H7844330   6.921   4.958   4.153  0.1950 -1.1750 -0.0520
   47MOL    H7944331   7.060   4.981   4.247 -0.6421  0.8397  0.5137
   47MOL    H8044332   7.210   4.987   4.036 -0.1562 -1.4092 -3.7418
   47MOL    H8144333   7.058   4.972   3.955 -0.1434 -1.4247 -0.6932
   47MOL    H8244334   7.050   4.738   4.080 -0.1549  0.1590  0.4391
   47MOL    H8344335   7.211   4.783   4.159  2.7379  0.0525 -1.4932
   47MOL    H8444336   7.264   4.640   3.987  0.4936  1.1810 -0.5275
   47MOL    H8544337   7.290   4.795   3.912 -0.7474  2.8054  0.5301
   47MOL    H8644338   7.030   4.624   3.877 -2.1053  1.1707 -3.3503
   47MOL    H8744339   7.080   4.775   3.799 -0.0945 -0.0327 -1.2474
   47MOL    H8844340   7.246   4.695   3.673 -0.4692  0.4325 -2.1915
   47MOL    H8944341   7.096   4.607   3.643 -0.3767  1.6444  1.3154
   47MOL    H9044342   7.456   4.361   3.718 -1.9859  2.2205 -0.5259
   47MOL    H9144343   7.346   4.241   3.798  0.5439 -1.4534 -0.6110
   47MOL    H9244344   7.393   4.257   3.500 -1.6636 -0.3889 -1.1678
   47MOL    H9344345   7.320   4.133   3.577 -0.2039  1.0516 -1.0887
   47MOL    H9444346   7.540   4.067   3.699  0.7545 -2.1501 -0.8574
   47MOL    H9544347   7.624   4.191   3.630 -0.8804  1.6935 -1.2048
   47MOL    H9644348   7.486   4.015   3.439  0.0551 -1.5935  0.1436
   47MOL    H9744349   7.626   3.948   3.522 -1.3406  0.0019 -0.1189
   47MOL    O9844350   0.011   4.038   3.348 -0.0512 -0.4408 -0.3191
   47MOL    C9944351   0.126   4.095   3.281 -0.4897  0.2300 -0.4098
   47MOL   C10044352   0.133   4.034   3.144 -0.1951  0.6549  0.5428
   47MOL   C10144353   0.248   4.076   3.046 -0.3045  0.0852 -1.1602
   47MOL   C10244354   0.251   4.002   2.910  0.6410 -0.3166 -0.6919
   47MOL   C10344355   0.348   4.078   2.812 -0.2419  0.1785 -0.6976
   47MOL   C10444356   0.332   4.021   2.666 -0.1961  0.8554 -0.3649
   47MOL   C10544357   0.417   4.081   2.555 -0.7043 -0.0415  0.0820
   47MOL   C10644358   0.382   4.225   2.508  0.5817 -0.3784  0.2950
   47MOL   C10744359   0.468   4.283   2.401 -0.0861 -1.0847 -0.5502
   47MOL   C10844360   0.432   4.432   2.366  0.4312  0.1738 -0.2324
   47MOL   O10944361   0.456   4.519   2.480 -0.2248 -0.2583  0.3937
   47MOL   C11044362   0.535   4.625   2.465 -1.1089  0.1513 -0.6414
   47MOL   O11144363   0.587   4.661   2.361 -0.2588  0.5917 -0.3590
   47MOL   C11244364   0.578   4.689   2.598  0.0710 -0.5595  0.0487
   47MOL   C11344365   0.727   4.681   2.631  0.6100 -0.3550 -0.0208
   47MOL   C11444366   0.774   4.537   2.660 -0.3967  0.1227 -0.2082
   47MOL   C11544367   0.930   4.504   2.686 -0.3651 -0.2320  0.2772
   47MOL   C11644368   0.990   4.517   2.829 -0.6107  0.7262  0.0326
   47MOL   O11744369   1.038   4.421   2.887  0.2437 -0.6195 -0.0627
   47MOL   H11844370   0.120   4.203   3.268 -0.3370  0.3629  0.5619
   47MOL   H11944371   0.222   4.081   3.331 -0.9203 -1.3361  0.0181
   47MOL   H12044372   0.039   4.047   3.091 -1.0662  0.2253  1.9581
   47MOL   H12144373   0.148   3.926   3.149 -0.3967  0.6760  1.5866
   47MOL   H12244374   0.249   4.184   3.031 -0.3695  0.6186  2.2777
   47MOL   H12344375   0.344   4.043   3.087  0.9178  1.1866 -3.0426
   47MOL   H12444376   0.148   3.998   2.875  0.3031 -1.3011  0.3788
   47MOL   H12544377   0.293   3.902   2.926 -0.0021 -0.2902  1.3110
   47MOL   H12644378   0.450   4.052   2.841 -0.6561 -0.0153  0.6311
   47MOL   H12744379   0.336   4.186   2.815 -0.6269  0.1532 -1.1643
   47MOL   H12844380   0.227   4.029   2.634 -0.6297 -0.8228  0.5772
   47MOL   H12944381   0.352   3.914   2.671  0.7336  0.9379 -2.1018
   47MOL   H13044382   0.416   4.014   2.469 -1.7860 -0.7306  0.6192
   47MOL   H13144383   0.523   4.087   2.580 -0.0808 -1.2893 -2.1117
   47MOL   H13244384   0.391   4.288   2.597  0.2235  2.1878 -1.4296
   47MOL   H13344385   0.274   4.229   2.493  0.1257 -0.1832  3.1895
   47MOL   H13444386   0.575   4.290   2.416 -0.3140  0.4269  0.4558
   47MOL   H13544387   0.460   4.224   2.309 -1.6499  0.5356 -1.5046
   47MOL   H13644388   0.328   4.432   2.334 -0.6611  1.5688  3.0802
   47MOL   H13744389   0.494   4.460   2.281 -1.3963 -2.5836 -2.5827
   47MOL   H13844390   0.547   4.793   2.591  0.9300 -0.2677  0.4816
   47MOL   H13944391   0.528   4.644   2.683 -0.4376 -0.1655 -0.0378
   47MOL   H14044392   0.746   4.750   2.714 -0.9249 -3.3164  2.9164
   47MOL   H14144393   0.782   4.711   2.542  1.4469  0.3933  0.7384
   47MOL   H14244394   0.756   4.476   2.572  1.5494 -1.3220  0.3610
   47MOL   H14344395   0.718   4.496   2.744 -0.3269  0.6620  0.1080
   47MOL   H14444396   0.990   4.558   2.613 -0.3793  1.9317  1.8148
   47MOL   H14544397   0.933   4.401   2.651  0.8204 -0.3178  0.5873
   47MOL   O14644398   0.965   4.633   2.885 -0.3888  0.1106 -0.0608
   47MOL   C14744399   1.012   4.653   3.014 -0.1062  0.0774 -0.1566
   47MOL   C14844400   1.024   4.801   3.052 -0.0072 -0.4904  0.0275
   47MOL   C14944401   0.890   4.883   3.055 -0.7664  0.7345 -0.2696
   47MOL   C15044402   0.926   5.033   3.088  0.1790  0.1056  0.0173
   47MOL   C15144403   0.982   5.116   2.971 -0.3854 -0.0798 -0.7090
   47MOL   C15244404   1.005   5.263   3.005  0.0179  1.3913  0.1268
   47MOL   C15344405   1.067   5.358   2.898  0.9151  0.1635 -0.8126
   47MOL   C15444406   1.212   5.319   2.870  0.3761 -1.0437  0.1157
   47MOL   C15544407   1.275   5.383   2.745  0.5204  0.0333 -0.0774
   47MOL   C15644408   1.399   5.305   2.697 -0.0224 -0.4120  0.2518
   47MOL   O15744409   1.477   5.385   2.601  0.3490 -0.0257 -0.7433
   47MOL   C15844410   1.589   5.337   2.552  0.2038  0.5550  0.7624
   47MOL   O15944411   1.646   5.234   2.586  0.0887  0.2979  0.3051
   47MOL   C16044412   1.641   5.414   2.425 -0.1563  0.5550  0.1880
   47MOL   C16144413   1.776   5.479   2.439 -0.5070  0.2915  0.2085
   47MOL   C16244414   1.776   5.590   2.545  0.5769  0.3305 -0.4926
   47MOL   C16344415   1.913   5.656   2.580 -0.1310 -0.1818 -0.1062
   47MOL   C16444416   1.978   5.730   2.467  0.3076 -0.0203  0.1217
   47MOL   O16544417   2.093   5.707   2.427 -0.5146 -0.1457 -0.0689
   47MOL   H16644418   0.966   4.590   3.090 -0.8222  1.3156  0.4433
   47MOL   H16744419   1.111   4.607   3.014  0.3537  0.9834 -1.8895
   47MOL   H16844420   1.097   4.850   2.988 -1.2064 -1.0874 -1.8247
   47MOL   H16944421   1.062   4.812   3.154 -0.7710  0.4356  0.2168
   47MOL   H17044422   0.849   4.880   2.954  2.2720  2.2063 -1.6305
   47MOL   H17144423   0.826   4.831   3.126 -0.9959  0.3244 -0.7701
   47MOL   H17244424   0.990   5.043   3.176  1.7519 -2.5182 -0.7767
   47MOL   H17344425   0.831   5.081   3.112 -0.1872 -0.8507  0.5058
   47MOL   H17444426   0.915   5.112   2.885 -2.0348  1.1290  0.4885
   47MOL   H17544427   1.075   5.071   2.938 -1.0711 -0.6103 -1.9584
   47MOL   H17644428   1.070   5.257   3.092 -0.7781 -0.9816  0.5903
   47MOL   H17744429   0.913   5.302   3.050 -0.3977  0.5391  0.0177
   47MOL   H17844430   1.052   5.461   2.932 -0.6602 -1.0124  2.2049
   47MOL   H17944431   0.995   5.348   2.817 -0.7300  1.8193  0.3961
   47MOL   H18044432   1.213   5.212   2.849 -0.0947 -0.7001 -1.7688
   47MOL   H18144433   1.288   5.344   2.944 -0.9014 -3.0363  2.1672
   47MOL   H18244434   1.211   5.379   2.657  1.0879 -1.0460 -0.4618
   47MOL   H18344435   1.299   5.488   2.761 -0.9900  0.3250  0.2858
   47MOL   H18444436   1.390   5.205   2.656 -1.6765  0.4782 -1.6090
   47MOL   H18544437   1.467   5.283   2.779  2.6163  2.8513 -0.9300
   47MOL   H18644438   1.641   5.337   2.348  1.6996  0.0287  0.7021
   47MOL   H18744439   1.567   5.480   2.379  0.7976  0.2471 -1.8536
   47MOL   H18844440   1.802   5.520   2.342  1.4049  1.4773  1.1998
   47MOL   H18944441   1.854   5.404   2.454  0.3402  1.0720 -0.2618
   47MOL   H19044442   1.733   5.557   2.640 -1.2475  0.5560 -1.2066
   47MOL   H19144443   1.699   5.665   2.521 -1.2236 -1.0392  0.8521
   47MOL   H19244444   1.981   5.572   2.589  1.9390  1.5622  1.0907
   47MOL   H19344445   1.918   5.707   2.676  0.4142 -0.3821 -0.0268
   47MOL   O19444446   1.897   5.821   2.410 -0.0762  1.0182  0.2666
   47MOL   C19544447   1.933   5.876   2.282 -0.0626  0.6791  0.0639
   47MOL   C19644448   1.854   5.996   2.255  0.1565  0.0615  0.2242
   47MOL   C19744449   1.702   5.975   2.248 -0.5756 -0.3875  0.2588
   47MOL   C19844450   1.604   6.088   2.208  0.2158 -0.2028  0.8340
   47MOL   C19944451   1.452   6.048   2.215 -0.0045  0.1836 -0.8950
   47MOL   C20044452   1.365   6.166   2.214 -0.0181 -0.5496  0.0939
   47MOL   C20144453   1.226   6.135   2.171 -0.0546 -0.3938 -0.5381
   47MOL   C20244454   1.124   6.241   2.204 -0.1386 -0.2551  0.3045
   47MOL   C20344455   1.132   6.350   2.095 -0.1497 -0.3442  0.1743
   47MOL   C20444456   1.006   6.441   2.078 -0.8359 -0.7297 -0.1599
   47MOL   O20544457   1.018   6.519   1.959  0.4300  0.5500  0.4279
   47MOL   C20644458   1.036   6.658   1.962  0.5120  0.5012  0.1429
   47MOL   O20744459   1.027   6.730   2.056 -0.7949  0.0077  0.6419
   47MOL   C20844460   1.061   6.715   1.820  1.0486  0.1662  0.3103
   47MOL   C20944461   1.177   6.813   1.804  0.0877  0.6477  0.1193
   47MOL   C21044462   1.167   6.955   1.864  0.5245  0.2127  0.1301
   47MOL   C21144463   1.307   7.024   1.891 -0.1448 -0.2869 -0.9166
   47MOL   C21244464   1.369   6.997   2.030  0.4850  0.4123 -0.2911
   47MOL   O21344465   1.362   7.076   2.124 -0.2263  0.3566  0.3605
   47MOL   H21444466   2.038   5.905   2.288 -0.7349  3.3990 -0.5581
   47MOL   H21544467   1.923   5.803   2.202  0.7780 -0.3722  0.9085
   47MOL   H21644468   1.887   6.031   2.157  1.5266 -0.6859  0.4075
   47MOL   H21744469   1.861   6.073   2.331  0.1083 -0.0877  0.3797
   47MOL   H21844470   1.680   5.896   2.176  0.2479  0.3840 -0.8369
   47MOL   H21944471   1.664   5.934   2.342 -0.9989 -0.0223  0.2461
   47MOL   H22044472   1.633   6.116   2.107  1.1975  0.5132  1.3016
   47MOL   H22144473   1.611   6.176   2.272 -1.3092 -0.7215  1.7457
   47MOL   H22244474   1.437   6.012   2.317 -0.1249  1.5811 -0.4119
   47MOL   H22344475   1.415   5.968   2.152  0.6639  0.1522 -1.2538
   47MOL   H22444476   1.404   6.240   2.144 -0.9691  0.1371  0.2845
   47MOL   H22544477   1.354   6.211   2.312 -1.8183  1.1440 -0.8491
   47MOL   H22644478   1.196   6.054   2.238 -0.4060  0.7179  0.6659
   47MOL   H22744479   1.231   6.110   2.065  1.0505 -0.6695 -0.4256
   47MOL   H22844480   1.140   6.279   2.305  1.3171  1.3356 -0.5188
   47MOL   H22944481   1.021   6.209   2.220  0.5125 -2.4032  0.3782
   47MOL   H23044482   1.222   6.404   2.125  1.0008 -1.5990 -0.9250
   47MOL   H23144483   1.152   6.300   2.000 -2.6995 -0.3227 -0.4144
   47MOL   H23244484   1.012   6.501   2.169 -0.4741  0.2087 -0.7883
   47MOL   H23344485   0.917   6.379   2.081 -1.1978 -0.2394 -0.5978
   47MOL   H23444486   1.082   6.628   1.757 -0.0060 -1.1490  1.7253
   47MOL   H23544487   0.976   6.763   1.770  0.4185 -1.2867 -0.0499
   47MOL   H23644488   1.198   6.828   1.699 -0.3184 -2.3244 -0.4521
   47MOL   H23744489   1.266   6.763   1.843 -0.0990 -0.0267 -0.3046
   47MOL   H23844490   1.134   6.946   1.967 -0.4294 -0.4082 -0.2183
   47MOL   H23944491   1.100   7.014   1.801 -0.8631 -0.8303  0.5904
   47MOL   H24044492   1.305   7.132   1.884  1.3673 -0.1863 -0.0558
   47MOL   H24144493   1.391   6.998   1.827  0.4932 -0.4346 -0.0249
   47MOL   O24244494   1.441   6.883   2.029  0.2626 -0.3960  0.8224
   47MOL   C24344495   1.500   6.827   2.139 -0.4859  0.0510  0.0183
   47MOL   C24444496   1.650   6.864   2.141 -0.1232  0.4497 -0.0363
   47MOL   C24544497   1.688   7.003   2.187  0.7740 -0.4816 -0.7448
   47MOL   C24644498   1.714   7.107   2.077  0.1253 -0.8639 -0.5940
   47MOL   C24744499   1.714   7.250   2.133 -0.4220  0.2756  0.0634
   47MOL   C24844500   1.732   7.341   2.007  0.2402 -0.3890 -0.4842
   47MOL   C24944501   1.782   7.486   2.041  0.3303 -0.4019 -0.2327
   47MOL   C25044502   1.801   7.569   1.915  0.0732 -0.7321  0.3505
   47MOL   C25144503   1.817   7.713   1.942 -0.4886  1.0060 -0.0597
   47MOL   C25244504   1.854   0.023   1.816 -0.6640 -0.3430  0.5194
   47MOL   O25344505   1.875   0.163   1.850  0.1095 -0.6783  0.2951
   47MOL   C25444506   1.995   0.208   1.886  0.1616 -0.4487  0.1123
   47MOL   O25544507   2.096   0.136   1.896  0.0151 -0.1525 -0.0092
   47MOL   C25644508   1.994   0.352   1.921  0.2278  0.2105 -0.3583
   47MOL   C25744509   1.948   0.384   2.064 -0.6572  0.8071 -0.1779
   47MOL   C25844510   2.047   0.335   2.170 -0.7107  0.0374 -0.6317
   47MOL   C25944511   2.050   0.427   2.290 -0.7155  0.0862 -0.1029
   47MOL   C26044512   1.925   0.410   2.381 -0.6711  0.3010  0.4564
   47MOL   O26144513   1.873   0.511   2.430  0.0289  0.2718  0.0318
   47MOL   H26244514   1.451   6.836   2.236  0.9499  1.2637  0.6514
   47MOL   H26344515   1.495   6.719   2.124 -0.3861 -0.0859  0.9536
   47MOL   H26444516   1.704   6.823   2.055 -1.3267 -0.2134 -0.4739
   47MOL   H26544517   1.694   6.800   2.217  4.0740  1.7646 -1.2135
   47MOL   H26644518   1.612   7.043   2.254  1.5358 -1.5735  0.7966
   47MOL   H26744519   1.778   7.003   2.248 -1.2664  1.5915  2.3787
   47MOL   H26844520   1.634   7.095   2.004 -3.2266  2.9264  2.2509
   47MOL   H26944521   1.810   7.080   2.035  0.4313  0.8011 -0.9841
   47MOL   H27044522   1.790   7.266   2.209 -0.6929 -1.3538  0.6921
   47MOL   H27144523   1.622   7.270   2.188 -1.4615 -3.3560 -0.1888
   47MOL   H27244524   1.642   7.334   1.948  0.4977  1.0536 -1.0635
   47MOL   H27344525   1.816   7.299   1.951 -0.1609 -4.4689  1.7965
   47MOL   H27444526   1.874   7.477   2.097 -1.6357 -4.3903  2.5891
   47MOL   H27544527   1.699   7.526   2.101 -0.8214 -1.5973 -1.0028
   47MOL   H27644528   1.717   7.541   1.850 -0.3239 -1.2180  1.0695
   47MOL   H27744529   1.891   7.534   1.864  1.5352  2.8190  0.3309
   47MOL   H27844530   1.723   7.752   1.981 -0.1024  1.3064  0.5657
   47MOL   H27944531   1.896   7.729   2.015  0.2130 -2.4404 -0.0070
   47MOL   H28044532   1.777   0.014   1.739  0.7589  1.6385 -1.1961
   47MOL   H28144533   1.940   7.737   1.773  0.6882  1.3845  1.1470
   47MOL   H28244534   2.099   0.374   1.903  0.4553 -0.8780 -0.3857
   47MOL   H28344535   1.941   0.408   1.844 -0.7135 -2.2359 -1.5318
   47MOL   H28444536   1.852   0.335   2.081 -0.9608  2.0598  1.8869
   47MOL   H28544537   1.928   0.491   2.071 -1.5737  0.6074  0.2840
   47MOL   H28644538   2.144   0.336   2.120 -0.2833  0.6035  0.1897
   47MOL   H28744539   2.027   0.231   2.196  1.0075 -0.5077 -1.3865
   47MOL   H28844540   2.051   0.532   2.259  1.8227 -0.7192 -2.8626
   47MOL   H28944541   2.139   0.415   2.351 -0.6358 -1.5972 -0.5344
   47MOL   O29044542   1.874   0.285   2.391  0.2401  0.1930  0.1938
   47MOL   C29144543   1.754   0.259   2.464 -0.0927 -0.5746  0.0080
   47MOL   C29244544   1.722   0.114   2.438 -0.9003 -0.9465 -0.0823
   47MOL   C29344545   1.822   0.016   2.493  0.4256  0.3656 -0.2853
   47MOL   C29444546   1.765   7.638   2.487 -0.0245 -0.5260  0.2247
   47MOL   C29544547   1.881   7.536   2.513  0.3983  0.5148  0.2699
   47MOL   C29644548   1.826   7.392   2.484 -0.8980 -0.4069 -0.1230
   47MOL   C29744549   1.943   7.291   2.457 -0.0586 -0.3392  0.8670
   47MOL   C29844550   2.041   7.291   2.563  0.2491 -0.4549  0.1990
   47MOL   C29944551   2.153   7.195   2.537 -0.6268  0.8794  0.6919
   47MOL   C30044552   2.274   7.210   2.629  0.1090 -0.1010  0.2128
   47MOL   O30144553   2.240   7.202   2.764  0.2589 -0.5661  0.2594
   47MOL   C30244554   2.280   7.297   2.850  0.0373 -0.5418  0.0237
   47MOL   O30344555   2.308   7.415   2.820  0.3344  0.2647  0.2348
   47MOL   C30444556   2.275   7.247   3.000  0.8532 -0.2158 -0.6316
   47MOL   C30544557   2.147   7.317   3.056 -0.7627  0.0508 -1.0107
   47MOL   C30644558   2.086   7.259   3.185 -0.2494  0.4530 -0.6458
   47MOL   C30744559   1.989   7.358   3.246  0.0463 -0.3790  0.3196
   47MOL   C30844560   1.968   7.339   3.401 -0.1549 -0.0510  0.4970
   47MOL   O30944561   2.010   7.419   3.485 -0.0143 -0.7567  0.0085
   47MOL   H31044562   1.782   0.272   2.568  0.0343 -2.6825  0.2565
   47MOL   H31144563   1.678   0.329   2.429 -0.6592 -1.2986 -0.2335
   47MOL   H31244564   1.711   0.103   2.330 -0.1368 -3.6057  0.0613
   47MOL   H31344565   1.621   0.090   2.472 -1.0479  1.5039  1.2851
   47MOL   H31444566   1.920   0.024   2.445  1.9714 -2.4555  2.2281
   47MOL   H31544567   1.844   0.036   2.597  0.2140  1.6078 -0.4749
   47MOL   H31644568   1.732   7.623   2.384 -2.5497 -1.6965  1.1700
   47MOL   H31744569   1.683   7.619   2.556 -0.2812 -0.7960 -0.1545
   47MOL   H31844570   1.936   7.532   2.608  2.2003 -1.7994 -0.8248
   47MOL   H31944571   1.963   7.565   2.448 -0.8854  1.0660 -1.1234
   47MOL   H32044572   1.768   7.389   2.391  3.1815 -0.5291 -2.8209
   47MOL   H32144573   1.769   7.367   2.573 -2.1405  1.1289 -0.4588
   47MOL   H32244574   1.990   7.304   2.359  1.3672 -1.8492  1.3180
   47MOL   H32344575   1.904   7.189   2.457 -0.4730 -0.1817  0.8565
   47MOL   H32444576   1.996   7.268   2.660 -0.0278 -1.6037 -0.1946
   47MOL   H32544577   2.086   7.390   2.560 -2.0269  0.6100  0.5918
   47MOL   H32644578   2.131   7.088   2.536  0.6471  0.5808  1.9157
   47MOL   H32744579   2.191   7.216   2.437  2.5940 -0.2694  1.5778
   47MOL   H32844580   2.327   7.304   2.612 -0.5438  0.3673  0.7330
   47MOL   H32944581   2.347   7.132   2.608  0.7437  0.2687  1.0252
   47MOL   H33044582   2.274   7.138   3.009  0.1054 -0.2288 -0.8637
   47MOL   H33144583   2.355   7.292   3.060  1.1295 -0.2585 -0.9653
   47MOL   H33244584   2.065   7.318   2.985 -1.2008 -1.1768 -0.5314
   47MOL   H33344585   2.166   7.424   3.072  1.2341 -0.5029  0.5675
   47MOL   H33444586   2.170   7.257   3.256  0.5465  2.1468 -1.5084
   47MOL   H33544587   2.058   7.156   3.162  2.0958 -0.4863  0.4846
   47MOL   H33644588   1.896   7.369   3.192  0.4069 -1.6411 -0.5994
   47MOL   H33744589   2.027   7.458   3.228  1.0788 -0.8208 -0.0100
   47MOL   O33844590   1.892   7.231   3.419 -0.1104 -0.7573 -0.0905
   47MOL   C33944591   1.874   7.185   3.552  0.3169  0.1428 -0.4060
   47MOL   C34044592   1.978   7.087   3.610  0.0886  0.3626 -0.0366
   47MOL   C34144593   1.957   6.953   3.534 -0.2340  0.3057  0.5193
   47MOL   C34244594   2.073   6.859   3.580 -0.4848 -0.4547 -0.0235
   47MOL   C34344595   2.061   6.710   3.529 -0.5197 -0.0455 -0.1974
   47MOL   C34444596   2.170   6.618   3.576  0.1089  0.3070  0.3340
   47MOL   C34544597   2.140   6.464   3.542  0.1242  0.7079 -0.3087
   47MOL   C34644598   2.250   6.376   3.586  0.0954  0.3831  0.3325
   47MOL   C34744599   2.264   6.255   3.498 -0.6584 -0.3402  0.0929
   47MOL   C34844600   2.382   6.165   3.535 -0.1943 -0.1431 -0.4624
   47MOL   O34944601   2.351   6.085   3.651  0.2869 -0.1349  0.9635
   47MOL   C35044602   2.451   6.039   3.725 -0.4381 -0.3190 -0.0333
   47MOL   O35144603   2.571   6.052   3.697 -0.1967  0.7324 -0.6387
   47MOL   C35244604   2.404   5.948   3.837 -0.4297  0.1725  0.7200
   47MOL   C35344605   2.450   5.993   3.974 -0.5584  0.0074 -0.3115
   47MOL   C35444606   2.591   5.940   4.016  0.5415 -0.2709  0.1836
   47MOL   C35544607   2.611   5.919   4.170  0.2014 -0.4356  0.0844
   47MOL   C35644608   2.562   6.039   4.258 -0.9118  0.0024 -0.0100
   47MOL   O35744609   2.573   6.159   4.230 -0.4258 -0.1106 -0.2854
   47MOL   H35844610   1.884   7.277   3.610  2.1198  0.0804 -0.5864
   47MOL   H35944611   1.770   7.156   3.571  0.1015  0.8870 -0.4302
   47MOL   H36044612   1.957   7.083   3.717 -0.4402  0.3022 -0.1408
   47MOL   H36144613   2.078   7.126   3.590  0.8245 -1.4635 -0.0554
   47MOL   H36244614   1.865   6.903   3.565 -1.7327  1.5763 -1.7893
   47MOL   H36344615   1.963   6.960   3.426 -1.3771 -1.2235  0.3429
   47MOL   H36444616   2.085   6.867   3.688 -0.1984  1.6239 -0.1971
   47MOL   H36544617   2.164   6.900   3.536 -1.5380  0.1641 -1.6698
   47MOL   H36644618   2.054   6.713   3.420 -0.5484 -2.8970 -0.3097
   47MOL   H36744619   1.974   6.667   3.580  1.3963 -3.8525 -0.0121
   47MOL   H36844620   2.175   6.629   3.684 -1.6703 -0.4218  0.5053
   47MOL   H36944621   2.268   6.641   3.534 -0.0589  2.2201  0.9188
   47MOL   H37044622   2.122   6.459   3.435 -0.3091  1.0445 -0.2510
   47MOL   H37144623   2.041   6.440   3.580  0.3947  0.5308  0.2870
   47MOL   H37244624   2.220   6.334   3.682  0.9654  2.0407  1.3453
   47MOL   H37344625   2.345   6.427   3.575 -1.5893  3.2116 -1.9186
   47MOL   H37444626   2.173   6.195   3.493 -0.6581 -0.1576 -2.5291
   47MOL   H37544627   2.282   6.285   3.395  2.0083 -0.4890  0.4742
   47MOL   H37644628   2.462   6.233   3.561 -0.3687 -0.8931  2.1886
   47MOL   H37744629   2.411   6.097   3.454 -3.4056 -0.8023 -1.1203
   47MOL   H37844630   2.296   5.960   3.835 -0.3358  1.0887 -2.6033
   47MOL   H37944631   2.435   5.846   3.811  1.1093  1.3000 -2.0847
   47MOL   H38044632   2.378   5.958   4.047 -1.6499  0.7651 -1.0009
   47MOL   H38144633   2.440   6.100   3.994  0.3186 -0.0477  0.4733
   47MOL   H38244634   2.665   6.007   3.972  0.8844  0.2164  1.4785
   47MOL   H38344635   2.607   5.843   3.969 -0.0163 -0.7546  0.9835
   47MOL   H38444636   2.716   5.893   4.189  0.4207  0.1610 -0.2917
   47MOL   H38544637   2.560   5.832   4.211 -0.9923 -0.4510 -1.4061
   47MOL   O38644638   2.500   5.989   4.368 -0.9174  0.4783 -0.0274
   47MOL   C38744639   2.411   6.073   4.434 -0.3590 -0.1319 -0.8762
   47MOL   C38844640   2.309   5.994   4.516 -0.0385  0.3098  0.0251
   47MOL   C38944641   2.261   6.066   4.644  0.0549 -0.1802 -0.1420
   47MOL   C39044642   2.209   6.209   4.616  0.2160 -0.0022 -0.3416
   47MOL   C39144643   2.129   6.262   4.730  0.1983 -0.2088 -0.7370
   47MOL   C39244644   2.016   6.359   4.697 -0.4372  0.0774  0.2691
   47MOL   C39344645   1.960   6.436   4.816 -1.4658 -0.5647 -0.1046
   47MOL   C39444646   1.920   6.341   4.939  0.7494 -0.1642  0.4067
   47MOL   C39544647   1.836   6.217   4.906  0.2087 -0.7219  0.3405
   47MOL   C39644648   1.836   6.115   5.020  0.4349  0.0784  0.1182
   47MOL   O39744649   1.756   6.016   4.972  0.6923  0.4061  0.6219
   47MOL   C39844650   1.748   5.900   5.041  0.5431 -0.4540  0.4753
   47MOL   O39944651   1.799   5.873   5.150  0.4004 -0.4707 -0.7720
   47MOL   C40044652   1.664   5.786   4.976 -0.7024 -0.3945 -0.0174
   47MOL   C40144653   1.752   5.734   4.856 -0.0558 -0.0905 -1.1869
   47MOL   C40244654   1.679   5.640   4.765  0.1856 -0.3255 -0.1040
   47MOL   C40344655   1.777   5.576   4.671 -0.2551 -0.0933  0.5819
   47MOL   C40444656   1.725   5.508   4.548 -0.6269  0.0324 -0.0962
   47MOL   O40544657   1.685   5.394   4.556  0.4777  0.0306 -0.0733
   47MOL   H40644658   2.461   6.136   4.507 -2.1597  3.3686 -2.5327
   47MOL   H40744659   2.359   6.143   4.368 -1.1316 -0.3453 -0.4902
   47MOL   H40844660   2.352   5.900   4.549 -0.4774 -0.3325 -1.2107
   47MOL   H40944661   2.224   5.970   4.452 -0.6901  1.1345  0.5622
   47MOL   H41044662   2.174   6.009   4.677 -0.0273  0.4863  0.7941
   47MOL   H41144663   2.337   6.071   4.722 -0.7830  1.0577  0.6000
   47MOL   H41244664   2.145   6.200   4.529 -0.8849  3.5492  0.0341
   47MOL   H41344665   2.294   6.271   4.585  0.9051 -1.5904 -1.7007
   47MOL   H41444666   2.196   6.310   4.802 -0.2921 -1.9474  0.9203
   47MOL   H41544667   2.078   6.186   4.789  0.8253  0.1474  0.2779
   47MOL   H41644668   1.935   6.308   4.645 -0.9376  0.1307  0.9891
   47MOL   H41744669   2.042   6.437   4.625 -0.1082 -0.7987 -0.5738
   47MOL   H41844670   1.873   6.496   4.788 -0.6552  1.4789  1.5400
   47MOL   H41944671   2.028   6.509   4.862 -1.5468  0.1445 -1.0948
   47MOL   H42044672   1.866   6.401   5.012 -0.3846 -0.4486 -0.1772
   47MOL   H42144673   2.012   6.307   4.987  1.9062  0.0892 -1.5671
   47MOL   H42244674   1.734   6.247   4.882 -0.0777 -1.1572  1.0219
   47MOL   H42344675   1.865   6.173   4.811  0.3454  0.3801 -0.1423
   47MOL   H42444676   1.798   6.139   5.119 -0.5913  2.0849 -0.7397
   47MOL   H42544677   1.938   6.078   5.031 -0.1308 -1.6000 -0.2610
   47MOL   H42644678   1.645   5.707   5.048  0.0368 -0.1487  0.4459
   47MOL   H42744679   1.572   5.838   4.948 -0.7712  0.1215  1.1729
   47MOL   H42844680   1.841   5.691   4.902 -1.7654 -0.0828  2.2553
   47MOL   H42944681   1.796   5.811   4.791  1.3386 -1.8116 -2.3363
   47MOL   H43044682   1.594   5.671   4.704  0.0549 -2.5232 -1.0804
   47MOL   H43144683   1.638   5.559   4.824  0.3779 -0.7296 -0.5220
   47MOL   H43244684   1.837   5.508   4.733  0.2381  0.8612  1.1581
   47MOL   H43344685   1.828   5.659   4.624 -0.6387  1.1222  2.2751
   47MOL   O43444686   1.728   5.583   4.433  0.2608 -0.1573 -0.1351
   47MOL   C43544687   1.681   5.518   4.315 -0.2195  0.4705  0.1880
   47MOL   C43644688   1.525   5.539   4.305 -0.0462 -0.2694 -0.6333
   47MOL   C43744689   1.489   5.691   4.295  0.0295 -0.1527 -0.2729
   47MOL   C43844690   1.343   5.714   4.248  0.3903 -0.6151  0.2677
   47MOL   C43944691   1.315   5.863   4.256 -0.6204  0.5453  0.3107
   47MOL   C44044692   1.169   5.893   4.218 -0.0326  0.2138  0.4522
   47MOL   C44144693   1.127   6.032   4.257 -0.1205  0.2678  0.3961
   47MOL   C44244694   0.976   6.055   4.220  1.4497  0.1568  0.1272
   47MOL   C44344695   0.957   6.167   4.119 -0.5225 -0.8883  0.2668
   47MOL   C44444696   0.815   6.209   4.068 -0.5981  0.2475  0.2177
   47MOL   O44544697   0.816   6.313   3.969  0.3247 -0.3818  0.3793
   47MOL   C44644698   0.716   6.406   3.953  0.5565 -0.1081  0.4066
   47MOL   O44744699   0.611   6.405   4.014 -0.1377 -0.3835 -0.3320
   47MOL   C44844700   0.741   6.507   3.840  0.2732 -0.2933 -0.7747
   47MOL   C44944701   0.754   6.443   3.695 -0.8774 -0.3335  0.2209
   47MOL   C45044702   0.719   6.545   3.594  0.0008  0.1712  0.4685
   47MOL   C45144703   0.704   6.497   3.449  0.1044  0.1360  0.3447
   47MOL   C45244704   0.665   6.606   3.349  0.5848 -0.2753 -0.0141
   47MOL   O45344705   0.725   6.712   3.353  0.2729  0.1095 -0.0209
   47MOL   H45444706   1.723   5.557   4.223  0.7994 -0.4344  0.2514
   47MOL   H45544707   1.699   5.410   4.313 -0.7689  0.3505  1.3782
   47MOL   H45644708   1.471   5.479   4.379 -2.6759  1.1974 -1.2738
   47MOL   H45744709   1.506   5.485   4.212 -1.8726 -1.3086  0.2955
   47MOL   H45844710   1.496   5.748   4.388 -1.1604  1.4715 -1.1410
   47MOL   H45944711   1.555   5.737   4.222  1.5842 -0.6205  0.8292
   47MOL   H46044712   1.278   5.658   4.316  0.8478  0.3556  1.5434
   47MOL   H46144713   1.324   5.680   4.147  3.7109 -0.0015 -0.6316
   47MOL   H46244714   1.378   5.931   4.199 -1.9923  0.7255 -1.0019
   47MOL   H46344715   1.330   5.895   4.359 -1.0707  1.1887  0.1771
   47MOL   H46444716   1.110   5.822   4.275  1.2286 -1.6887 -0.5604
   47MOL   H46544717   1.161   5.883   4.110 -0.5516 -0.0909  0.5167
   47MOL   H46644718   1.195   6.096   4.202 -0.8344  1.5504  0.9913
   47MOL   H46744719   1.141   6.049   4.364 -2.8094  0.4479  0.7377
   47MOL   H46844720   0.915   6.077   4.308  0.2345  0.8484 -0.8766
   47MOL   H46944721   0.924   5.966   4.184  1.3612 -0.9624  2.8453
   47MOL   H47044722   1.023   6.247   4.153 -1.0933  0.1727 -1.0518
   47MOL   H47144723   0.998   6.129   4.025 -0.2375 -0.5921  0.2708
   47MOL   H47244724   0.756   6.246   4.152 -2.2022 -1.3077 -0.1828
   47MOL   H47344725   0.750   6.129   4.032  0.8744 -1.0252  0.3515
   47MOL   H47444726   0.658   6.577   3.840  0.6983  0.2101  0.4413
   47MOL   H47544727   0.824   6.568   3.875 -1.4152  1.1811  0.7119
   47MOL   H47644728   0.702   6.349   3.678 -2.8212  1.1637 -2.5434
   47MOL   H47744729   0.855   6.408   3.680 -0.5175  0.4263  0.8304
   47MOL   H47844730   0.797   6.621   3.602 -0.9918  1.2728 -0.0556
   47MOL   H47944731   0.624   6.590   3.624 -0.6920 -1.9721  1.5720
   47MOL   H48044732   0.626   6.420   3.449  2.0236 -1.8676  1.4314
   47MOL   H48144733   0.794   6.449   3.411  1.7563  2.3630  1.3298
   47MOL   O48244734   0.567   6.570   3.262  0.1671 -0.3849  0.9046
   47MOL   C48344735   0.533   6.663   3.152  0.0418  0.9592 -0.7391
   47MOL   C48444736   0.554   6.598   3.014 -0.0112  0.0352 -0.5722
   47MOL   C48544737   0.695   6.536   3.003 -0.5717  0.1239 -0.1227
   47MOL   C48644738   0.721   6.495   2.855  0.1353  0.1678 -0.1460
   47MOL   C48744739   0.837   6.397   2.836  0.4150  0.0101  0.2276
   47MOL   C48844740   0.860   6.386   2.684  1.1996 -0.4150  0.2152
   47MOL   C48944741   0.934   6.254   2.639 -0.9132  0.6281  0.2393
   47MOL   C49044742   1.084   6.244   2.668 -0.1864  0.0689 -0.0416
   47MOL   C49144743   1.142   6.109   2.628  0.8262  0.1267  0.1676
   47MOL   C49244744   1.291   6.110   2.600  0.2270 -0.3450 -0.1796
   47MOL   O49344745   1.329   5.988   2.545  0.0621  0.5015  0.7203
   47MOL   C49444746   1.384   5.900   2.631  0.9481 -0.5828  0.5944
   47MOL   O49544747   1.414   5.914   2.750 -0.0362 -0.3553  0.7389
   47MOL   C49644748   1.425   5.765   2.561 -0.4610  0.4798 -0.3923
   47MOL   C49744749   1.332   5.730   2.449 -0.2216  0.0604  0.0148
   47MOL   C49844750   1.184   5.709   2.483 -0.3039 -0.0057  0.0799
   47MOL   C49944751   1.080   5.692   2.370 -0.3647  0.3396 -0.1417
   47MOL   C50044752   1.018   5.820   2.314  0.7307  0.3624 -0.0158
   47MOL   O50144753   0.961   5.900   2.389  0.1690 -0.4151 -0.0013
   47MOL   H50244754   0.426   6.675   3.162  0.0894  0.1768  0.9547
   47MOL   H50344755   0.581   6.759   3.172  1.0501  0.5510 -1.1624
   47MOL   H50444756   0.547   6.682   2.944  3.1321  1.3094  0.5514
   47MOL   H50544757   0.482   6.525   2.978  0.6072 -0.5895 -0.5346
   47MOL   H50644758   0.770   6.611   3.029 -0.2880 -0.0324 -0.4746
   47MOL   H50744759   0.716   6.457   3.076 -1.3554  0.7897  0.8148
   47MOL   H50844760   0.753   6.585   2.803 -1.0070  0.9788  0.5438
   47MOL   H50944761   0.630   6.468   2.801  0.3138  0.6432 -0.6866
   47MOL   H51044762   0.814   6.303   2.886 -2.8071  0.3645 -0.4650
   47MOL   H51144763   0.935   6.430   2.872  0.5106 -0.6210  0.5464
   47MOL   H51244764   0.909   6.479   2.654 -1.3692  0.7052 -0.6531
   47MOL   H51344765   0.767   6.381   2.628  1.5591  0.6742 -0.4879
   47MOL   H51444766   0.911   6.243   2.533  1.1779 -1.3765 -0.0302
   47MOL   H51544767   0.890   6.169   2.690  2.0054 -2.3063 -1.8963
   47MOL   H51644768   1.103   6.273   2.771 -1.1050  0.8893 -0.1007
   47MOL   H51744769   1.133   6.315   2.602 -0.5464  0.9122  0.5971
   47MOL   H51844770   1.122   6.040   2.711 -1.0293 -3.3822 -3.0337
   47MOL   H51944771   1.082   6.064   2.549 -0.1778  1.0091  0.4194
   47MOL   H52044772   1.351   6.131   2.688  0.6028  1.6112 -0.8653
   47MOL   H52144773   1.316   6.180   2.520  0.6118  0.6350  0.7786
   47MOL   H52244774   1.529   5.782   2.532 -0.2953 -0.1122 -0.1397
   47MOL   H52344775   1.426   5.680   2.629  1.9548  1.3766  0.7540
   47MOL   H52444776   1.364   5.629   2.425  2.0864  0.6859  0.3014
   47MOL   H52544777   1.354   5.791   2.361  0.3184 -0.3198 -0.1107
   47MOL   H52644778   1.145   5.795   2.539 -1.3612 -0.7913  0.5828
   47MOL   H52744779   1.181   5.629   2.557 -1.4827  2.1418  2.4742
   47MOL   H52844780   1.007   5.628   2.419  0.2652  0.4963  1.0151
   47MOL   H52944781   1.122   5.628   2.293  0.6854 -0.1380  0.8136
   47MOL   O53044782   1.016   5.815   2.183  0.3593 -0.0759 -1.0583
   47MOL   C53144783   0.941   5.909   2.112  0.5827 -0.4435  0.0048
   47MOL   C53244784   0.919   5.850   1.977  0.4720  0.6535 -1.0244
   47MOL   C53344785   0.819   5.926   1.893  0.4264 -0.0987 -0.0062
   47MOL   C53444786   0.677   5.939   1.958 -0.9050  0.3753  0.3228
   47MOL   C53544787   0.586   6.027   1.877 -1.0555 -0.1630  0.0851
   47MOL   C53644788   0.459   6.071   1.947  0.4203 -0.2988  0.6418
   47MOL   C53744789   0.373   6.175   1.867 -0.9738 -0.4964 -0.0294
   47MOL   C53844790   0.265   6.234   1.951 -0.0115  0.0045  0.1222
   47MOL   C53944791   0.147   6.299   1.872 -0.1119  0.5433 -0.6948
   47MOL   C54044792   0.031   6.363   1.958 -0.3269  0.2244  0.4295
   47MOL   O54144793   7.707   6.425   1.867 -0.3564  0.0607 -0.1973
   47MOL   C54244794   7.589   6.471   1.899  0.6530 -0.0585  0.7051
   47MOL   O54344795   7.539   6.489   2.012  0.0282 -0.1972  0.0646
   47MOL   C54444796   7.512   6.515   1.768 -0.1618  0.3632 -0.3670
   47MOL   C54544797   7.427   6.399   1.705  0.6652  0.4945  0.1729
   47MOL   C54644798   7.512   6.273   1.666  0.4640  0.1242 -0.2659
   47MOL   C54744799   7.606   6.296   1.554  0.3406 -0.2961 -0.1033
   47MOL   C54844800   7.526   6.320   1.428  0.1193  0.5430 -0.3441
   47MOL   O54944801   7.422   6.255   1.409 -0.4143  0.4041  0.0364
   47MOL   H55044802   0.850   5.925   2.171  0.6196 -4.0688  1.1608
   47MOL   H55144803   0.995   6.003   2.101 -1.4969  0.6582 -1.1465
   47MOL   H55244804   0.876   5.751   1.985 -0.5573  1.1755 -0.0489
   47MOL   H55344805   1.015   5.841   1.927 -0.5138 -0.3073 -2.7963
   47MOL   H55444806   0.849   6.028   1.872  1.5506 -0.4679 -0.2344
   47MOL   H55544807   0.811   5.875   1.797 -0.2699  2.1098 -1.1351
   47MOL   H55644808   0.682   5.969   2.063  0.3114 -0.0122  0.3916
   47MOL   H55744809   0.641   5.837   1.950  0.3039  0.0144 -0.7269
   47MOL   H55844810   0.550   5.976   1.788 -0.1541 -0.2419 -0.2387
   47MOL   H55944811   0.644   6.115   1.847 -2.1265  0.4162 -0.3340
   47MOL   H56044812   0.495   6.126   2.034  1.1433  0.0559  0.1250
   47MOL   H56144813   0.401   5.991   1.992 -0.0380  0.2507  1.0435
   47MOL   H56244814   0.339   6.123   1.778  1.1494  1.8630 -2.3193
   47MOL   H56344815   0.448   6.242   1.825 -2.3780  1.6752  0.8591
   47MOL   H56444816   0.299   6.304   2.028 -0.7410 -0.3823  0.8045
   47MOL   H56544817   0.219   6.150   2.002  1.3654 -0.1838  1.0977
   47MOL   H56644818   0.193   6.369   1.802  3.2539  0.3367  1.1905
   47MOL   H56744819   0.098   6.233   1.801 -0.5475 -0.1703  0.2617
   47MOL   H56844820   0.064   6.437   2.031 -0.5586  2.2788 -1.4953
   47MOL   H56944821   7.738   6.290   2.016 -1.0548  0.5634  0.1425
   47MOL   H57044822   7.452   6.599   1.802 -2.2833 -0.4399 -2.0242
   47MOL   H57144823   7.583   6.540   1.689 -0.1955 -0.2224 -0.5870
   47MOL   H57244824   7.384   6.442   1.614 -0.7573 -0.2819  0.4557
   47MOL   H57344825   7.337   6.376   1.762  0.2549  1.3419 -0.1153
   47MOL   H57444826   7.455   6.186   1.634  2.1842 -1.7417  1.6362
   47MOL   H57544827   7.566   6.225   1.748 -0.8150 -0.4916  0.2164
   47MOL   H57644828   7.676   6.214   1.535  2.6632  1.7309 -0.5622
   47MOL   H57744829   7.666   6.385   1.573  0.0704  0.1490 -1.2971
   47MOL   O57844830   7.579   6.416   1.351 -0.8500  0.1300 -0.5209
   47MOL   C57944831   7.515   6.444   1.225 -0.3974 -0.0457  0.0948
   47MOL   C58044832   7.521   6.593   1.202  0.5254  0.6999 -0.1714
   47MOL   C58144833   7.457   6.676   1.324 -0.5378 -0.5854  0.2525
   47MOL   C58244834   7.412   6.813   1.289 -0.3815  0.8185 -0.1945
   47MOL   C58344835   7.361   6.895   1.412 -0.4897  0.0742 -0.0552
   47MOL   C58444836   7.347   7.044   1.383 -0.3762  0.1111  1.1212
   47MOL   C58544837   7.282   7.124   1.499  0.6206  0.1456  0.5447
   47MOL   C58644838   7.355   7.123   1.622  0.5952 -0.7813 -0.7012
   47MOL   C58744839   7.500   7.172   1.623 -0.1134 -0.0489  0.3910
   47MOL   C58844840   7.560   7.204   1.768 -0.1450 -0.4607 -0.2513
   47MOL   O58944841   7.582   7.078   1.829 -0.5577  0.4552 -0.0699
   47MOL   C59044842   7.662   7.070   1.946  0.0828 -0.2676 -0.2570
   47MOL   O59144843   7.713   7.169   1.998 -0.0386  0.3834 -0.0034
   47MOL   C59244844   7.671   6.930   2.006  0.0902 -0.0242 -0.2271
   47MOL   C59344845   7.762   6.828   1.931  0.8052 -0.2684  0.6211
   47MOL   C59444846   0.145   6.839   1.961 -0.2650 -0.1695 -0.2550
   47MOL   C59544847   0.220   6.744   1.864 -0.2542 -0.1278 -0.0190
   47MOL   C59644848   0.237   6.800   1.723  0.2060  0.3736  0.2433
   47MOL   O59744849   0.206   6.726   1.627 -0.4027 -0.4238 -0.3705
   47MOL   H59844850   7.568   6.397   1.142  1.7794  1.9621  0.2997
   47MOL   H59944851   7.411   6.409   1.231  0.1022 -1.4929  0.4655
   47MOL   H60044852   7.462   6.611   1.112 -0.9101 -0.6619  0.4775
   47MOL   H60144853   7.622   6.630   1.184  0.9305  0.0584  0.7491
   47MOL   H60244854   7.380   6.612   1.368 -1.7140  0.5011 -0.1956
   47MOL   H60344855   7.536   6.685   1.398 -0.2548  1.2397 -0.2420
   47MOL   H60444856   7.341   6.814   1.206  1.2682  2.3508 -1.6014
   47MOL   H60544857   7.495   6.866   1.244 -0.8125  0.8612 -0.9538
   47MOL   H60644858   7.427   6.881   1.497  1.5181 -0.8049 -1.7294
   47MOL   H60744859   7.266   6.854   1.448 -1.1298  1.2672 -0.3316
   47MOL   H60844860   7.306   7.066   1.285  1.0684 -1.3310  0.1657
   47MOL   H60944861   7.449   7.083   1.373 -0.3319 -0.3827 -0.3403
   47MOL   H61044862   7.184   7.081   1.519  0.6745 -1.1907 -1.9300
   47MOL   H61144863   7.262   7.223   1.458  0.8435 -0.9557 -2.2979
   47MOL   H61244864   7.342   7.030   1.677  3.1569 -0.0167  1.3032
   47MOL   H61344865   7.302   7.190   1.689  3.0152 -0.3486  0.8461
   47MOL   H61444866   7.561   7.092   1.582 -0.0908 -0.7170  1.6955
   47MOL   H61544867   7.514   7.262   1.563 -1.2998  1.6670  2.6228
   47MOL   H61644868   7.501   7.271   1.832  0.7470  0.9656 -0.8886
   47MOL   H61744869   7.657   7.248   1.745 -0.6344  0.1379 -1.2250
   47MOL   H61844870   7.694   6.935   2.113 -0.6454  0.6356 -0.0978
   47MOL   H61944871   7.569   6.891   2.011  0.9497 -2.3301  0.1908
   47MOL   H62044872   7.746   6.842   1.824 -2.6803  0.0766  1.1390
   47MOL   H62144873   7.721   6.734   1.967 -1.0409  0.4191  0.3741
   47MOL   H62244874   0.165   6.827   2.068  1.6983  0.0646 -0.5655
   47MOL   H62344875   0.176   6.943   1.951 -0.4472 -0.0690  0.2334
   47MOL   H62444876   0.177   6.644   1.859  0.7526 -0.6794  1.9206
   47MOL   H62544877   0.321   6.734   1.904 -0.2224 -0.2519 -0.1279
   47MOL   O62644878   0.290   6.918   1.717 -0.0251 -1.0718  0.7715
   47MOL   C62744879   0.300   6.981   1.592  0.9408  0.4068 -0.0167
   47MOL   C62844880   0.177   7.069   1.559  0.3421  0.2277  0.6996
   47MOL   C62944881   0.202   7.169   1.445 -0.2156  0.5228 -0.0978
   47MOL   C63044882   0.088   7.261   1.418  1.0011 -0.2694 -0.4646
   47MOL   C63144883   0.113   7.354   1.293 -0.4937 -0.1270 -0.1809
   47MOL   C63244884   0.038   7.484   1.300  0.0787 -1.1761  0.0757
   47MOL   C63344885   0.044   7.558   1.167 -0.0119 -0.0356 -0.3666
   47MOL   C63444886   7.723   7.693   1.175 -0.0734  0.0592 -0.1884
   47MOL   C63544887   7.753   0.031   1.065  0.5617  0.0481 -0.7134
   47MOL   C63644888   7.668   0.161   1.082 -0.1710 -0.0935 -0.4174
   47MOL   O63744889   7.679   0.230   0.959 -0.4417 -0.0549  0.3359
   47MOL   C63844890   7.643   0.364   0.957 -0.3519  0.0275  0.7301
   47MOL   O63944891   7.646   0.442   1.054  0.2492  0.2997  0.4450
   47MOL   C64044892   7.620   0.417   0.812 -0.3141 -0.2800 -0.0085
   47MOL   C64144893   7.504   0.346   0.743 -0.0871  0.2824 -0.3638
   47MOL   C64244894   7.366   0.403   0.777 -1.0772 -0.4051  0.0733
   47MOL   C64344895   7.258   0.360   0.671  0.9248 -0.1048 -0.3120
   47MOL   C64444896   7.214   0.214   0.689  0.4932 -0.3005  0.2960
   47MOL   O64544897   7.147   0.181   0.785 -1.0927  0.6908  0.9316
   47MOL   H64644898   0.394   7.036   1.592  1.7955 -1.0235 -0.5354
   47MOL   H64744899   0.325   6.902   1.521  2.5325 -0.3978  1.4212
   47MOL   H64844900   0.141   7.116   1.650 -1.2346  0.2739  0.0776
   47MOL   H64944901   0.095   7.003   1.530  0.0499 -0.0603  2.1349
   47MOL   H65044902   0.289   7.227   1.474  0.3598 -0.7117  0.6687
   47MOL   H65144903   0.244   7.125   1.354  2.4115  0.3421  1.1652
   47MOL   H65244904   0.076   7.320   1.509  0.2596 -0.1714 -0.6218
   47MOL   H65344905   7.758   7.214   1.392 -1.5403  4.2807  0.0852
   47MOL   H65444906   0.078   7.293   1.209 -1.5814 -0.2020  0.3258
   47MOL   H65544907   0.216   7.377   1.264 -0.3695 -0.6579 -0.1811
   47MOL   H65644908   0.076   7.551   1.377  0.2443 -0.0508 -0.9820
   47MOL   H65744909   7.700   7.463   1.331  0.4933 -1.2637  1.4293
   47MOL   H65844910   0.007   7.502   1.081  0.9152 -0.2075 -0.6530
   47MOL   H65944911   0.149   7.579   1.146  0.0193 -0.0177 -0.1910
   47MOL   H66044912   7.752   7.755   1.260  2.9148  0.0546 -1.1556
   47MOL   H66144913   7.616   7.672   1.180  0.3156 -2.1476 -0.4333
   47MOL   H66244914   0.096   0.051   1.063  0.7826 -1.1249 -2.6010
   47MOL   H66344915   7.729   7.745   0.971  1.8289  0.0679 -1.0633
   47MOL   H66444916   7.703   0.212   1.172 -0.5131 -2.2304  0.9645
   47MOL   H66544917   7.562   0.143   1.099  0.3890 -1.3752  1.9823
   47MOL   H66644918   7.602   0.525   0.808 -1.5038 -0.4347  0.7643
   47MOL   H66744919   7.713   0.400   0.757  1.2446  1.4563  1.9818
   47MOL   H66844920   7.495   0.238   0.753  0.5872  0.2339 -0.2992
   47MOL   H66944921   7.517   0.357   0.636  0.9991  1.9565 -0.0776
   47MOL   H67044922   7.365   0.512   0.779  1.1535 -0.3962  2.0812
   47MOL   H67144923   7.345   0.374   0.880 -1.1929 -0.8438 -0.0740
   47MOL   H67244924   7.297   0.373   0.571  2.7502  1.7397  0.6173
   47MOL   H67344925   7.172   0.426   0.675  1.3796  0.4014  2.8053
   47MOL   O67444926   7.283   0.135   0.612 -0.0332  0.3272 -0.0941
   47MOL   C67544927   7.266   7.758   0.618  0.8049 -0.3620 -0.8421
   47MOL   C67644928   7.364   7.704   0.722 -0.2563  0.3326 -0.6202
   47MOL   C67744929   7.366   7.550   0.726  0.8363  0.0858  0.0658
   47MOL   C67844930   7.483   7.503   0.815  0.2733 -0.5814  0.4017
   47MOL   C67944931   7.460   7.357   0.855 -0.1729  0.0190 -0.2286
   47MOL   C68044932   7.568   7.306   0.942 -0.3811  0.0425 -0.2647
   47MOL   C68144933   7.548   7.161   0.993  0.2225 -0.7339 -0.2743
   47MOL   C68244934   7.533   7.056   0.888  0.1634  0.7667 -0.2513
   47MOL   C68344935   7.477   6.929   0.950  0.5381  0.1927  0.4495
   47MOL   C68444936   7.487   6.802   0.862  0.0258  0.1223 -0.2806
   47MOL   O68544937   7.621   6.745   0.847 -0.2455  0.0045  0.0209
   47MOL   C68644938   7.682   6.736   0.727 -0.4965  0.1781  0.2469
   47MOL   O68744939   7.642   6.793   0.631  0.7336 -0.2848  0.1284
   47MOL   C68844940   0.061   6.680   0.739 -0.1458  0.5034 -0.2616
   47MOL   C68944941   0.072   6.572   0.634 -0.0228  0.8269 -0.3863
   47MOL   C69044942   7.749   6.447   0.675  0.0404  0.3789  0.5497
   47MOL   C69144943   0.000   6.381   0.819 -0.4754 -0.3101 -0.3627
   47MOL   C69244944   0.136   6.311   0.826 -0.0869  0.0387 -0.1981
   47MOL   O69344945   0.227   6.344   0.900 -0.0359  0.0944 -0.2099
   47MOL   H69444946   7.160   7.733   0.627  0.2280  2.3607  0.5560
   47MOL   H69544947   7.288   7.712   0.522  0.4784 -2.1823 -0.0485
   47MOL   H69644948   7.336   7.744   0.819  0.2094  0.1929 -0.4280
   47MOL   H69744949   7.469   7.733   0.709  0.3784 -1.0949  1.0790
   47MOL   H69844950   7.272   7.536   0.780  2.6547  0.6967  3.5278
   47MOL   H69944951   7.365   7.511   0.624  1.4939 -0.4927  0.2804
   47MOL   H70044952   7.510   7.571   0.895 -0.3497  0.9113 -0.6247
   47MOL   H70144953   7.565   7.499   0.744 -0.0567 -0.6391  0.0186
   47MOL   H70244954   7.448   7.291   0.769 -0.9226 -1.5339  1.0382
   47MOL   H70344955   7.372   7.356   0.919  0.4338  1.3125  0.6448
   47MOL   H70444956   7.588   7.364   1.033 -0.5961 -0.2894 -0.0062
   47MOL   H70544957   7.656   7.297   0.878  0.7788  0.3854  1.2388
   47MOL   H70644958   7.459   7.164   1.056  0.3824 -1.6144 -0.0055
   47MOL   H70744959   7.626   7.129   1.061 -1.3901 -0.8799  1.5563
   47MOL   H70844960   7.626   7.050   0.830  0.3246 -0.7884  0.1373
   47MOL   H70944961   7.459   7.083   0.813 -0.1704  0.8064  0.0929
   47MOL   H71044962   7.529   6.904   1.042 -1.4856  1.2994  1.9272
   47MOL   H71144963   7.375   6.939   0.988  0.6042 -0.1082  0.7059
   47MOL   H71244964   7.443   6.824   0.765 -1.3711 -1.2613  0.0068
   47MOL   H71344965   7.428   6.724   0.911  1.5339  0.8268  2.7489
   47MOL   H71444966   0.132   6.760   0.721  1.4867 -0.4181  1.8291
   47MOL   H71544967   0.081   6.644   0.840  2.9740  0.3544 -0.8711
   47MOL   H71644968   0.176   6.544   0.620 -0.4762 -0.7045 -0.8524
   47MOL   H71744969   0.037   6.587   0.531  0.1375  0.2385 -0.5321
   47MOL   H71844970   7.757   6.383   0.587 -0.3456 -0.2810  0.9875
   47MOL   H71944971   7.643   6.472   0.661 -0.3832 -0.3425  2.3272
   47MOL   H72044972   7.684   6.313   0.844 -0.9743  0.5110  0.2743
   47MOL   H72144973   7.752   6.447   0.905 -1.9859 -1.0827  0.0293
   47MOL   O72244974   0.146   6.225   0.733 -0.3381 -0.1594  0.2056
   47MOL   C72344975   0.271   6.178   0.690 -0.3960  1.3061 -0.4174
   47MOL   C72444976   0.260   6.087   0.572  0.1013 -0.4114 -0.2106
   47MOL   C72544977   0.394   6.045   0.508 -0.4202 -0.7976  0.0277
   47MOL   C72644978   0.391   5.960   0.386  0.2711 -0.1483  0.3674
   47MOL   C72744979   0.390   5.808   0.418 -0.4337  0.4755  0.3129
   47MOL   C72844980   0.393   5.721   0.278 -0.1386 -0.6095 -0.1619
   47MOL   C72944981   0.360   5.574   0.307  0.1353 -0.2427 -0.1042
   47MOL   C73044982   0.244   5.521   0.222  0.3890 -0.5297 -0.0056
   47MOL   C73144983   0.217   5.370   0.238 -0.4724  0.1604  0.0355
   47MOL   C73244984   0.079   5.324   0.185  0.4991  0.8425  0.6269
   47MOL   O73344985   0.073   5.188   0.219 -0.0803  0.1679  0.2480
   47MOL   C73444986   7.724   5.118   0.204 -0.1022  0.5870 -0.0810
   47MOL   O73544987   7.613   5.163   0.178  0.0001  0.9385  0.8566
   47MOL   C73644988   7.745   4.971   0.244  0.0990 -0.9348 -0.2334
   47MOL   C73744989   0.111   4.953   0.334 -0.0436 -0.5601  0.0742
   47MOL   C73844990   0.121   4.827   0.420 -0.0718  0.2659  0.1565
   47MOL   C73944991   0.075   4.692   0.358 -0.1106 -0.5454  0.1846
   47MOL   C74044992   7.707   4.631   0.400 -0.4643  0.5241 -0.2444
   47MOL   O74144993   7.630   4.695   0.466  0.4899 -0.1046  0.4702
   47MOL   H74244994   0.328   6.268   0.667  0.4546  0.5770 -1.1990
   47MOL   H74344995   0.311   6.107   0.763 -0.3351  1.3515 -0.4065
   47MOL   H74444996   0.189   6.122   0.497 -3.4158 -1.2878  2.5672
   47MOL   H74544997   0.218   5.990   0.598 -0.5828 -0.1208 -0.2337
   47MOL   H74644998   0.443   6.133   0.467  2.2174 -2.7942 -1.2725
   47MOL   H74744999   0.454   5.992   0.583 -1.6992 -2.1900  0.0929
   47MOL   H74845000   0.462   5.986   0.308 -1.3172 -0.4877 -1.2174
   47MOL   H74945001   0.299   5.991   0.337 -2.5726 -3.9940  2.9889
   47MOL   H75045002   0.299   5.777   0.469 -0.0153 -0.6364  0.3909
   47MOL   H75145003   0.475   5.789   0.483  1.0858  2.2600 -1.0920
   47MOL   H75245004   0.489   5.738   0.230 -0.6010  2.3470 -0.1389
   47MOL   H75345005   0.329   5.773   0.206  0.2404  1.2808  0.8631
   47MOL   H75445006   0.360   5.552   0.414 -2.2646 -0.6390 -0.1689
   47MOL   H75545007   0.453   5.530   0.271  0.2588  1.7795 -2.3470
   47MOL   H75645008   0.261   5.543   0.117  1.4006  1.0392  0.4661
   47MOL   H75745009   0.153   5.574   0.253  3.5394  3.8634  2.3246
   47MOL   H75845010   0.290   5.315   0.179  1.8658  1.1278  1.9536
   47MOL   H75945011   0.221   5.341   0.343  1.3674 -0.6922 -0.2534
   47MOL   H76045012   0.069   5.349   0.079 -0.2522 -1.6974  0.0650
   47MOL   H76145013   7.761   5.380   0.229 -1.0759  0.2569 -1.5170
   47MOL   H76245014   7.658   4.935   0.300 -0.4393  0.9663  0.1885
   47MOL   H76345015   7.738   4.927   0.144 -1.2917 -2.2876  0.4284
   47MOL   H76445016   0.113   5.041   0.399  1.7567  0.5958 -1.4938
   47MOL   H76545017   0.199   4.960   0.270  0.7731 -1.7655  1.0429
   47MOL   H76645018   0.063   4.841   0.511 -0.3022 -0.9293  0.2031
   47MOL   H76745019   0.225   4.818   0.451  0.0313  2.0674  0.3618
   47MOL   H76845020   0.152   4.616   0.371 -0.3273 -0.5025  1.8109
   47MOL   H76945021   0.074   4.713   0.251 -0.5252 -0.1961  0.2544
   47MOL   O77045022   7.710   4.493   0.383 -0.8439 -0.2051  0.1736
   47MOL   C77145023   7.602   4.416   0.426 -0.3406 -0.6112  0.0760
   47MOL   C77245024   7.647   4.339   0.547  0.1112 -0.5571  1.1427
   47MOL   C77345025   7.535   4.236   0.574  0.0645  0.3413 -0.6280
   47MOL   C77445026   7.538   4.170   0.714  0.6638  0.0712 -0.6936
   47MOL   C77545027   7.415   4.084   0.749  0.5867  0.3915  0.4137
   47MOL   C77645028   7.417   4.026   0.889 -0.6621 -0.0534 -1.1231
   47MOL   C77745029   7.288   3.945   0.918 -0.8253 -1.2060  0.5113
   47MOL   C77845030   7.281   3.904   1.065  0.0409 -0.0182 -0.1384
   47MOL   C77945031   7.154   3.830   1.110  0.3469 -0.0621  0.0468
   47MOL   C78045032   7.148   3.807   1.262 -0.3446 -0.2108 -0.3341
   47MOL   O78145033   7.061   3.704   1.291  0.3955  0.3637 -0.5672
   47MOL   C78245034   7.104   3.575   1.306  0.4307  0.4253  0.2607
   47MOL   O78345035   7.215   3.531   1.293  0.3177  0.2962 -0.5918
   47MOL   C78445036   6.984   3.480   1.335 -0.0520 -0.2880  0.1704
   47MOL   C78545037   6.931   3.410   1.204  0.2231  0.2507  0.6494
   47MOL   C78645038   6.805   3.325   1.218 -0.4596  0.9619  0.7603
   47MOL   C78745039   6.765   3.276   1.084 -0.0711 -0.2234  0.9477
   47MOL   C78845040   6.686   3.148   1.079 -0.2426  0.1752 -0.7269
   47MOL   O78945041   6.565   3.147   1.051  0.1532  0.2486 -0.0323
   47MOL   H79045042   7.517   4.480   0.449 -1.5382 -2.2051  0.2071
   47MOL   H79145043   7.576   4.343   0.350  0.9241 -0.1666 -0.8020
   47MOL   H79245044   7.670   4.398   0.635 -0.4180  0.8533  0.3602
   47MOL   H79345045   7.746   4.296   0.532  0.4708 -0.0399  1.9666
   47MOL   H79445046   7.435   4.277   0.561  0.0770  0.3652 -0.6508
   47MOL   H79545047   7.543   4.149   0.508 -2.5440 -0.6167  0.2386
   47MOL   H79645048   7.544   4.249   0.788  2.7906 -0.8291  0.1391
   47MOL   H79745049   7.626   4.106   0.723  1.1387  0.4769 -2.2537
   47MOL   H79845050   7.418   3.999   0.681 -2.5708  1.4417 -1.1235
   47MOL   H79945051   7.321   4.136   0.735  0.4266 -0.2322 -0.8438
   47MOL   H80045052   7.425   4.116   0.951 -0.9542 -0.3306 -0.6774
   47MOL   H80145053   7.502   3.959   0.902 -0.9949 -0.4545 -0.9977
   47MOL   H80245054   7.274   3.861   0.850 -0.6087 -0.1473 -0.8714
   47MOL   H80345055   7.194   3.998   0.901 -1.0283 -1.8951 -0.5687
   47MOL   H80445056   7.290   3.995   1.124 -1.0071  2.5927 -3.8660
   47MOL   H80545057   7.368   3.839   1.078 -0.8641 -1.0189  1.1048
   47MOL   H80645058   7.062   3.881   1.083 -0.2733  0.0682  2.3476
   47MOL   H80745059   7.162   3.733   1.059  2.2021 -0.9294  1.8964
   47MOL   H80845060   7.114   3.898   1.311 -2.4173 -0.1380 -1.7953
   47MOL   H80945061   7.250   3.777   1.285  0.0548 -0.4250 -2.2661
   47MOL   H81045062   7.012   3.414   1.417 -0.5290 -2.9538 -1.7413
   47MOL   H81145063   6.900   3.541   1.368  0.0484 -0.3919  0.6168
   47MOL   H81245064   7.013   3.360   1.154  0.0648  3.0947 -2.6017
   47MOL   H81345065   6.915   3.483   1.125  0.1168  0.0801  0.5125
   47MOL   H81445066   6.716   3.378   1.251 -1.4113 -0.1213 -0.0107
   47MOL   H81545067   6.826   3.249   1.293 -1.7189 -0.3645 -0.1990
   47MOL   H81645068   6.859   3.250   1.034  0.8093  1.5340  1.6686
   47MOL   H81745069   6.727   3.355   1.020 -0.1008  0.4777  1.8298
   47MOL   O81845070   6.761   3.037   1.124  0.6353  0.5193  0.8382
   47MOL   C81945071   6.704   2.905   1.125  0.1481 -0.4240  0.2962
   47MOL   C82045072   6.705   2.856   1.268 -0.2229 -0.2453 -0.4939
   47MOL   C82145073   6.673   2.706   1.285  0.3892 -0.1873  0.1107
   47MOL   C82245074   6.623   2.649   1.418  0.3842  0.2526 -0.8903
   47MOL   C82345075   6.603   2.492   1.420 -0.2062  0.2432  0.3442
   47MOL   C82445076   6.567   2.438   1.559  0.2037 -0.2380  0.1242
   47MOL   C82545077   6.467   2.319   1.547 -0.1704  0.3705  0.5042
   47MOL   C82645078   6.497   2.212   1.655 -0.3284  0.1654  0.1738
   47MOL   C82745079   6.610   2.108   1.609  0.3299 -0.7443  0.1655
   47MOL   C82845080   6.614   1.976   1.689 -0.3887 -1.1521  1.0198
   47MOL   O82945081   6.484   1.919   1.681  0.2973  0.4594 -0.3268
   47MOL   C83045082   6.446   1.812   1.743 -0.6175 -0.1846  0.5046
   47MOL   O83145083   6.510   1.747   1.820 -0.3940  0.4306  0.5010
   47MOL   C83245084   6.302   1.767   1.707 -0.0104  0.4367  0.2245
   47MOL   C83345085   6.273   1.713   1.567  0.2951  0.1228 -0.1417
   47MOL   C83445086   6.344   1.582   1.536 -0.1738 -0.1075  0.1547
   47MOL   C83545087   6.334   1.559   1.384 -0.3907  0.2426  0.4901
   47MOL   C83645088   6.424   1.444   1.333 -0.0448  0.5260  0.0362
   47MOL   O83745089   6.505   1.389   1.409 -0.3890 -0.5426 -0.3488
   47MOL   H83845090   6.611   2.906   1.068  0.6370  2.4161 -0.5294
   47MOL   H83945091   6.780   2.841   1.081  2.1877  0.7086  2.0772
   47MOL   H84045092   6.640   2.919   1.329  0.9044 -0.2320  0.7170
   47MOL   H84145093   6.804   2.866   1.312 -0.3755  2.8425 -0.7464
   47MOL   H84245094   6.586   2.679   1.225  2.5283 -2.2390 -2.2060
   47MOL   H84345095   6.757   2.648   1.247  0.6332  0.3580 -0.1757
   47MOL   H84445096   6.537   2.697   1.465  0.7785 -1.5819  1.8536
   47MOL   H84545097   6.699   2.675   1.492 -0.0330  0.7263 -0.6225
   47MOL   H84645098   6.693   2.450   1.375 -0.7018 -0.5557  0.0741
   47MOL   H84745099   6.518   2.470   1.355  0.2542  0.5106 -0.3473
   47MOL   H84845100   6.532   2.517   1.626  0.7733 -0.0087  0.1521
   47MOL   H84945101   6.661   2.413   1.609 -1.5049 -0.5388  3.3674
   47MOL   H85045102   6.466   2.272   1.449 -1.4465 -1.2002  1.2442
   47MOL   H85145103   6.367   2.359   1.563 -0.1216  1.0297 -0.8170
   47MOL   H85245104   6.406   2.155   1.674  0.5135 -1.1964  0.1979
   47MOL   H85345105   6.533   2.259   1.747 -1.5975  1.9652 -0.2047
   47MOL   H85445106   6.582   2.080   1.508  0.3821 -1.1732  0.2709
   47MOL   H85545107   6.712   2.146   1.602  0.7152 -2.0927 -1.9664
   47MOL   H85645108   6.639   2.002   1.792  1.0672 -0.2032  0.4491
   47MOL   H85745109   6.678   1.898   1.646 -0.1795 -0.8008  0.6886
   47MOL   H85845110   6.273   1.686   1.774  0.8933 -0.6188 -0.6306
   47MOL   H85945111   6.230   1.848   1.724  0.5706  0.8167  0.8758
   47MOL   H86045112   6.291   1.793   1.495 -1.3890  0.6429 -0.0096
   47MOL   H86145113   6.165   1.697   1.561  0.0578  1.8594 -0.7517
   47MOL   H86245114   6.298   1.502   1.594 -1.5461 -0.1120 -0.9085
   47MOL   H86345115   6.443   1.597   1.580 -0.3864 -0.7412  0.8465
   47MOL   H86445116   6.379   1.646   1.336  1.5375 -0.8112  0.3294
   47MOL   H86545117   6.231   1.546   1.352 -0.6589  1.3024  0.9052
   47MOL   O86645118   6.418   1.427   1.201  0.4429 -0.1077 -0.3036
   47MOL   C86745119   6.479   1.310   1.153 -0.1721  0.0394  0.0343
   47MOL   C86845120   6.529   1.350   1.016 -0.0669 -0.2528 -0.0460
   47MOL   C86945121   6.613   1.245   0.945  0.2891  0.2942  0.6536
   47MOL   C87045122   6.637   1.300   0.797  0.3902  0.9907 -0.1102
   47MOL   C87145123   6.688   1.194   0.702  0.2237 -0.1028 -0.7946
   47MOL   C87245124   6.732   1.232   0.557 -0.0829 -0.9925 -0.8918
   47MOL   C87345125   6.725   1.123   0.453  0.3869 -0.4475 -0.1982
   47MOL   C87445126   6.732   1.165   0.309 -0.1175  0.1290  0.0148
   47MOL   C87545127   6.605   1.236   0.255 -0.9433 -0.3472 -0.2062
   47MOL   C87645128   6.620   1.249   0.100 -0.0582 -0.7830  0.2499
   47MOL   O87745129   6.529   1.352   0.072 -0.3318  0.1012 -0.2063
   47MOL   C87845130   6.453   1.343   7.725  0.0676  0.0999 -0.5979
   47MOL   O87945131   6.454   1.247   7.652 -0.1276 -0.1322  0.3314
   47MOL   C88045132   6.391   1.481   7.681  0.4385 -0.2150  0.2728
   47MOL   C88145133   6.391   1.518   7.529  0.6587  0.3216  0.2219
   47MOL   C88245134   6.529   1.547   7.455  0.1990  0.7411  0.8688
   47MOL   C88345135   6.602   1.670   7.496  0.4218  0.1454  0.2767
   47MOL   C88445136   6.672   1.661   7.635  0.0224  0.4392  0.3212
   47MOL   O88545137   6.754   1.577   7.669 -0.8323  0.3724  0.1735
   47MOL   H88645138   6.559   1.267   1.214 -0.4678 -0.9515 -0.2541
   47MOL   H88745139   6.402   1.235   1.136  2.7357 -2.4479 -2.8842
   47MOL   H88845140   6.594   1.434   1.039 -0.6883  0.2365 -0.0891
   47MOL   H88945141   6.448   1.389   0.956 -0.0489  2.5354  1.6748
   47MOL   H89045142   6.698   1.211   1.004  0.4033  2.1229  1.5920
   47MOL   H89145143   6.553   1.158   0.920 -1.9869  2.5134 -2.1048
   47MOL   H89245144   6.720   1.370   0.803  1.7033 -0.6578  1.9407
   47MOL   H89345145   6.556   1.354   0.748  2.5719  2.8639 -1.7217
   47MOL   H89445146   6.604   1.124   0.699 -2.1407  2.6175  0.2477
   47MOL   H89545147   6.768   1.146   0.759 -1.3963 -0.6631  1.0805
   47MOL   H89645148   6.836   1.264   0.563 -0.5645  0.2282  1.3421
   47MOL   H89745149   6.676   1.318   0.522  1.7486 -0.0627 -1.6078
   47MOL   H89845150   6.630   1.070   0.465 -0.1648 -0.1958 -3.1554
   47MOL   H89945151   6.801   1.048   0.476  0.5890 -0.5506 -1.1933
   47MOL   H90045152   6.750   1.070   0.258  0.4778  1.1268 -1.6741
   47MOL   H90145153   6.819   1.230   0.307 -0.4299  0.5912  1.0245
   47MOL   H90245154   6.523   1.173   0.289 -0.6145 -0.2343  0.8054
   47MOL   H90345155   6.612   1.330   0.309  0.9623 -2.0503  2.7106
   47MOL   H90445156   6.600   1.160   0.040  1.2078 -0.8868 -0.0245
   47MOL   H90545157   6.722   1.280   0.078  0.3254 -1.8867  0.4330
   47MOL   H90645158   6.283   1.469   7.696  0.0784  0.7917 -1.4439
   47MOL   H90745159   6.422   1.568   7.739  0.1595  0.4081 -0.5144
   47MOL   H90845160   6.321   1.600   7.518 -1.1330 -0.9465  1.8594
   47MOL   H90945161   6.345   1.439   7.470 -0.0659 -0.3411  1.6275
   47MOL   H91045162   6.505   1.549   7.349 -0.8733 -1.2684  1.0471
   47MOL   H91145163   6.593   1.461   7.478  0.0022  0.2685 -0.3010
   47MOL   H91245164   6.539   1.759   7.491  1.4085  0.8716  0.6608
   47MOL   H91345165   6.690   1.690   7.435  1.5557 -0.2276  1.7493
   47MOL   O91445166   6.624   1.759   7.715  0.2968  0.2024 -0.2477
   47MOL   C91545167   6.660   1.752   0.085  0.0177 -0.1161 -0.8596
   47MOL   C91645168   6.561   1.847   0.156 -0.5893  0.6612 -0.0122
   47MOL   C91745169   6.421   1.783   0.151 -1.0538  0.2250 -0.3206
   47MOL   C91845170   6.315   1.860   0.233  0.4248 -0.6950 -0.5802
   47MOL   C91945171   6.216   1.756   0.301 -0.0991  0.0735 -0.8280
   47MOL   C92045172   6.107   1.828   0.381  0.2757 -0.3050 -0.0101
   47MOL   C92145173   6.169   1.867   0.518 -0.6317  0.0070 -0.0085
   47MOL   C92245174   6.058   1.887   0.616 -0.5514 -0.1048 -0.5975
   47MOL   C92345175   6.124   1.933   0.746  0.4359 -0.6460 -0.0314
   47MOL   C92445176   6.019   1.973   0.851 -0.6697 -0.6257  0.6376
   47MOL   O92545177   6.085   1.999   0.974 -0.0076 -0.3420  0.0705
   47MOL   C92645178   6.032   1.976   1.093 -0.2063 -0.1588 -0.3721
   47MOL   O92745179   5.919   1.934   1.110 -0.2739 -0.2411 -0.7805
   47MOL   C92845180   6.107   2.024   1.217  0.3859 -0.3066  0.4433
   47MOL   C92945181   6.037   2.004   1.348  0.0332  0.5758  0.1928
   47MOL   C93045182   6.119   2.079   1.462 -0.0130 -0.0931  0.4712
   47MOL   C93145183   6.026   2.086   1.585  1.2617 -0.0386 -0.3766
   47MOL   C93245184   6.059   2.210   1.677 -0.0638 -0.8938 -0.6493
   47MOL   O93345185   6.171   2.251   1.695  0.3227 -0.0218  0.4596
   47MOL   H93445186   6.649   1.654   0.131 -1.8792 -0.0762 -1.1722
   47MOL   H93545187   6.763   1.780   0.107 -0.4100 -0.2610  1.3717
   47MOL   H93645188   6.557   1.948   0.114  0.2719  1.3285  1.4912
   47MOL   H93745189   6.583   1.855   0.262  0.5404  0.4348 -0.2235
   47MOL   H93845190   6.385   1.765   0.050  0.4448 -0.5879 -0.7278
   47MOL   H93945191   6.430   1.685   0.198 -0.8876  1.1254  1.5568
   47MOL   H94045192   6.268   1.931   0.165  0.9927  0.8890  0.6488
   47MOL   H94145193   6.377   1.912   0.306  0.7713 -0.4015 -1.0790
   47MOL   H94245194   6.263   1.683   0.366 -0.5153  1.2547  0.8425
   47MOL   H94345195   6.164   1.693   0.229 -1.6429 -0.2919  0.5713
   47MOL   H94445196   6.025   1.757   0.384  1.0094 -1.3117 -2.8647
   47MOL   H94545197   6.068   1.906   0.316 -1.1404 -1.2690 -0.3328
   47MOL   H94645198   6.219   1.961   0.493 -0.7529  0.0180 -0.2187
   47MOL   H94745199   6.245   1.804   0.564 -0.6506  0.0941  0.1443
   47MOL   H94845200   6.011   1.792   0.639  0.2980 -0.2579  0.6021
   47MOL   H94945201   5.981   1.955   0.579 -0.2778  0.1775 -0.6539
   47MOL   H95045202   6.200   1.863   0.781 -0.7211 -1.7551  0.3194
   47MOL   H95145203   6.178   2.024   0.720 -0.8019 -0.2472 -1.2618
   47MOL   H95245204   5.948   1.891   0.859 -2.4429  0.6165 -1.8640
   47MOL   H95345205   5.964   2.061   0.819 -0.1005 -0.0928  1.1083
   47MOL   H95445206   6.199   1.966   1.208 -0.1667 -1.0430 -0.5258
   47MOL   H95545207   6.135   2.127   1.196  0.1381 -0.4545 -0.6407
   47MOL   H95645208   6.032   1.897   1.368 -0.7481  0.2512 -1.6343
   47MOL   H95745209   5.939   2.050   1.357  0.6315  1.2200  5.1341
   47MOL   H95845210   6.145   2.180   1.430 -1.3858  0.0469 -0.2619
   47MOL   H95945211   6.212   2.024   1.476 -0.3327 -0.7001  0.2395
   47MOL   H96045212   6.028   1.988   1.633 -0.2449  1.4578  2.9175
   47MOL   H96145213   5.919   2.097   1.566  0.5108 -3.2547  1.5093
   47MOL   H96245214   5.968   2.253   1.719  1.5226 -0.2278  2.1751
   48MOL     O145215   1.701   1.348   6.857  0.0599 -0.8038 -0.5908
   48MOL     C245216   1.664   1.217   6.883  0.0852  0.1377 -0.6576
   48MOL     C345217   1.686   1.190   7.030 -0.3064 -0.5313 -0.2759
   48MOL     C445218   1.600   1.277   7.118  0.1484  0.5128  0.7514
   48MOL     C545219   1.608   1.243   7.259  0.3152 -0.9140  0.3007
   48MOL     C645220   1.526   1.329   7.354  0.1837 -0.2535  0.4854
   48MOL     C745221   1.548   1.300   7.501  0.3347  0.0123 -0.2745
   48MOL     C845222   1.438   1.346   7.592  0.4710 -0.2994 -0.3636
   48MOL     C945223   1.463   1.308   7.735 -0.5479 -0.4841  0.2422
   48MOL    C1045224   1.346   1.344   0.068  0.3954  0.0159  0.2331
   48MOL    C1145225   1.369   1.479   0.135 -0.1786 -0.0387  0.1270
   48MOL    O1245226   1.268   1.498   0.232 -0.3345 -0.4742 -0.2476
   48MOL    C1345227   1.275   1.602   0.312 -0.1380 -0.0952  0.0203
   48MOL    O1445228   1.374   1.677   0.331 -0.4260 -0.4095  0.4070
   48MOL    C1545229   1.141   1.633   0.387  0.2631 -0.3462  0.8363
   48MOL    C1645230   1.144   1.765   0.472  0.2031  0.2310  0.3410
   48MOL    C1745231   1.232   1.733   0.601  0.3682 -0.0251  0.7099
   48MOL    C1845232   1.235   1.849   0.699  0.7691 -0.0867  0.2135
   48MOL    C1945233   1.096   1.877   0.758 -0.1171 -0.1900  0.5397
   48MOL    O2045234   1.061   1.995   0.769 -0.7358  0.3382 -0.3617
   48MOL    H2145235   1.562   1.189   6.856  0.3817 -2.4061  0.6982
   48MOL    H2245236   1.728   1.160   6.816  0.0717  0.1451 -0.6764
   48MOL    H2345237   1.788   1.219   7.056  0.2176 -1.7251 -0.9725
   48MOL    H2445238   1.672   1.083   7.048 -1.3979 -0.3139  0.2454
   48MOL    H2545239   1.619   1.384   7.111  0.8731  0.4293  1.4066
   48MOL    H2645240   1.496   1.269   7.086  1.1769  2.1191 -3.2171
   48MOL    H2745241   1.708   1.277   7.288  0.7459  0.1298 -2.2348
   48MOL    H2845242   1.608   1.135   7.273  1.4716 -0.7321  1.8605
   48MOL    H2945243   1.421   1.305   7.336  0.7412 -1.4636 -1.3825
   48MOL    H3045244   1.557   1.429   7.323  1.0009 -0.4471  0.6511
   48MOL    H3145245   1.648   1.335   7.527 -0.2258  0.5314  1.2117
   48MOL    H3245246   1.574   1.195   7.517  2.2614  0.7536  1.7376
   48MOL    H3345247   1.344   1.297   7.568 -0.0611 -0.0173  1.0722
   48MOL    H3445248   1.422   1.453   7.582 -2.7824 -0.7948 -0.9869
   48MOL    H3545249   1.554   1.340   0.021 -1.4097  0.5640  1.1366
   48MOL    H3645250   1.460   1.199   7.741 -0.7705 -0.4827  0.1755
   48MOL    H3745251   1.247   1.341   0.022 -0.0671 -2.0946  1.3292
   48MOL    H3845252   1.343   1.268   0.146 -0.9662 -1.2644 -1.0215
   48MOL    H3945253   1.358   1.550   0.053  2.2394  0.1976 -0.0161
   48MOL    H4045254   1.471   1.488   0.173  0.0906  0.1783 -0.6411
   48MOL    H4145255   1.062   1.640   0.313 -0.8396 -0.1018  2.0121
   48MOL    H4245256   1.119   1.541   0.442  1.0544 -1.9040 -1.4081
   48MOL    H4345257   1.043   1.795   0.500  0.1601  0.4599 -0.0465
   48MOL    H4445258   1.190   1.847   0.417  2.3938 -0.0862  1.6466
   48MOL    H4545259   1.330   1.708   0.561  0.3841 -0.8244  1.2452
   48MOL    H4645260   1.199   1.640   0.647  0.5725 -0.4197  0.0742
   48MOL    H4745261   1.273   1.942   0.657  0.9613  0.0114  0.5982
   48MOL    H4845262   1.311   1.836   0.777  1.2826  0.5533 -0.1773
   48MOL    H4945263   1.697   1.354   6.763  1.3554  0.5277 -0.5906
   48MOL    O5045264   1.032   1.767   0.797 -0.0037  0.2785  0.1897
   48MOL    C5145265   0.895   1.776   0.824  0.0029 -0.0168  0.1456
   48MOL    C5245266   0.807   1.780   0.706 -0.0055 -0.3328 -0.6447
   48MOL    C5345267   0.783   1.652   0.631  0.3149  0.3871  0.0123
   48MOL    C5445268   0.686   1.639   0.508  1.1050 -0.0260  0.1847
   48MOL    C5545269   0.739   1.705   0.384  0.2932 -0.0726  0.6591
   48MOL    C5645270   0.634   1.697   0.266  0.1146  0.1519  0.5932
   48MOL    C5745271   0.698   1.731   0.131 -0.5468 -0.3686 -0.3396
   48MOL    C5845272   0.609   1.713   0.014  0.2529  0.6283  0.6937
   48MOL    C5945273   0.683   1.748   7.644 -0.1667 -0.4771 -0.0103
   48MOL    C6045274   0.596   1.716   7.522 -0.9223  0.8655  1.0857
   48MOL    O6145275   0.645   1.771   7.398 -0.0967  0.9147 -0.2722
   48MOL    C6245276   0.620   1.899   7.368  0.5251 -0.2586  0.6029
   48MOL    O6345277   0.571   1.980   7.442 -0.0222  0.5047 -0.1871
   48MOL    C6445278   0.662   1.945   7.229  0.0513 -0.8567  0.1032
   48MOL    C6545279   0.808   1.902   7.195 -0.6872  0.0303 -0.0332
   48MOL    C6645280   0.843   1.930   7.045 -0.2272  0.5961 -0.4532
   48MOL    C6745281   0.994   1.943   7.023  0.5534 -0.2043 -0.1717
   48MOL    C6845282   1.062   2.056   7.102  0.7730 -0.0179 -0.6109
   48MOL    O6945283   1.012   2.163   7.122  0.2645 -0.0103 -0.3247
   48MOL    H7045284   0.851   1.690   0.874  1.2995 -1.1823 -0.6964
   48MOL    H7145285   0.870   1.852   0.898  1.7432  2.0127 -1.3002
   48MOL    H7245286   0.849   1.860   0.645 -1.9240 -0.6815 -2.5132
   48MOL    H7345287   0.711   1.828   0.728  1.2330  2.5617 -1.3501
   48MOL    H7445288   0.878   1.604   0.604 -0.2367 -1.6473  1.6015
   48MOL    H7545289   0.741   1.580   0.701 -0.1856 -0.8293 -1.4909
   48MOL    H7645290   0.584   1.673   0.525  0.9367  1.0059 -2.6838
   48MOL    H7745291   0.664   1.536   0.482 -1.5687  0.5318  0.1066
   48MOL    H7845292   0.826   1.661   0.336  0.1865 -0.4748  0.8263
   48MOL    H7945293   0.761   1.807   0.413  2.6868 -0.3781 -0.0224
   48MOL    H8045294   0.545   1.755   0.290  0.5223  1.0168  0.0269
   48MOL    H8145295   0.587   1.599   0.258 -0.0423  0.2872 -0.2150
   48MOL    H8245296   0.784   1.665   0.116 -0.2330 -0.3750  1.3660
   48MOL    H8345297   0.752   1.826   0.138 -0.7519 -0.3552  1.1794
   48MOL    H8445298   0.522   1.772   0.041 -0.6049  0.0079 -0.6899
   48MOL    H8545299   0.577   1.610   7.764  0.6523  0.5121  0.6037
   48MOL    H8645300   0.692   1.856   7.656  0.5382 -0.4398 -0.8038
   48MOL    H8745301   0.778   1.698   7.629  0.2198 -0.2768  1.6954
   48MOL    H8845302   0.497   1.759   7.539 -0.6582  2.0265 -0.1784
   48MOL    H8945303   0.591   1.609   7.498 -0.2977  1.2175 -0.6784
   48MOL    H9045304   0.600   1.903   7.150  2.0495 -2.5935 -0.6115
   48MOL    H9145305   0.664   2.053   7.216 -0.3802 -0.6162  1.9201
   48MOL    H9245306   0.822   1.796   7.214 -1.1564 -0.7504 -3.6589
   48MOL    H9345307   0.879   1.946   7.264 -0.5341 -0.6283  0.2368
   48MOL    H9445308   0.791   2.023   7.025 -3.2424 -1.1599 -1.0598
   48MOL    H9545309   0.796   1.859   6.977 -0.5268 -1.8963  2.2544
   48MOL    H9645310   1.014   1.964   6.918  0.0560  0.1190 -0.2011
   48MOL    H9745311   1.043   1.850   7.052  2.2003  0.6539 -0.1399
   48MOL    O9845312   1.171   2.013   7.160  0.3769  0.5509 -0.3146
   48MOL    C9945313   1.233   2.100   7.248 -0.7489 -0.5845  0.2174
   48MOL   C10045314   1.367   2.047   7.279  0.2105  0.2452 -0.3651
   48MOL   C10145315   1.376   1.918   7.362 -0.2058  0.8616 -0.3849
   48MOL   C10245316   1.523   1.875   7.412 -0.8469  0.7080 -1.0938
   48MOL   C10345317   1.533   1.736   7.478 -0.0486  0.6729  0.2372
   48MOL   C10445318   1.671   1.744   7.545 -0.4494  0.2334  0.3134
   48MOL   C10545319   1.714   1.607   7.607  0.5702  0.6505 -0.0800
   48MOL   C10645320   1.848   1.611   7.678 -0.0272  0.2080 -0.0864
   48MOL   C10745321   1.931   1.481   7.682  0.5372 -0.1626  0.4560
   48MOL   C10845322   1.874   1.372   0.004 -0.2690  0.6349  0.3671
   48MOL   O10945323   1.816   1.418   0.132 -0.3464  0.5680  0.2250
   48MOL   C11045324   1.899   1.424   0.242 -0.7252  0.1477  0.1090
   48MOL   O11145325   2.016   1.383   0.252  0.0909 -0.0099  0.1465
   48MOL   C11245326   1.830   1.488   0.360 -0.0445  0.0248  0.8395
   48MOL   C11345327   1.907   1.469   0.493 -0.1569  0.3655 -0.1469
   48MOL   C11445328   1.924   1.321   0.536  0.3374  0.1819  0.3993
   48MOL   C11545329   1.782   1.254   0.562 -0.0162 -0.1559 -0.4167
   48MOL   C11645330   1.800   1.107   0.607  0.8194 -0.0294  0.0963
   48MOL   O11745331   1.884   1.037   0.559  0.0096  0.0516  0.6774
   48MOL   H11845332   1.244   2.198   7.201  0.5357 -0.7835  0.0866
   48MOL   H11945333   1.173   2.113   7.338 -2.9740 -0.3805 -1.2484
   48MOL   H12045334   1.418   2.122   7.339 -1.9130  0.0001  1.8055
   48MOL   H12145335   1.409   2.022   7.181  0.1553 -2.0526  0.1719
   48MOL   H12245336   1.301   1.906   7.440  0.1434 -5.5561 -0.8160
   48MOL   H12345337   1.348   1.832   7.302  2.7051 -0.6866  0.3718
   48MOL   H12445338   1.552   1.953   7.482 -1.1016  0.9694 -1.2803
   48MOL   H12545339   1.590   1.872   7.326 -0.2428 -2.0187 -0.5876
   48MOL   H12645340   1.523   1.665   7.396 -1.0647  1.1722 -0.0708
   48MOL   H12745341   1.462   1.719   7.559  1.0550 -1.5141  0.7912
   48MOL   H12845342   1.676   1.819   7.624 -1.6719 -0.8257  1.4303
   48MOL   H12945343   1.745   1.769   7.470 -0.5128 -4.8933 -1.6942
   48MOL   H13045344   1.723   1.540   7.521  1.1462  0.2548  0.2883
   48MOL   H13145345   1.641   1.558   7.671  2.0716 -0.4914  0.8002
   48MOL   H13245346   1.832   1.655   0.012  0.3674 -3.3206  1.6238
   48MOL   H13345347   1.909   1.679   7.618 -0.0309  0.9770  0.7765
   48MOL   H13445348   1.951   1.440   7.583  0.2004  0.4146  0.1520
   48MOL   H13545349   2.030   1.508   7.717  0.2788 -1.1158  1.9895
   48MOL   H13645350   1.956   1.301   0.003  0.1888  1.1690 -1.3514
   48MOL   H13745351   1.794   1.327   7.709  2.7808 -1.8698 -2.0367
   48MOL   H13845352   1.821   1.594   0.336  3.3594  0.7087  2.3153
   48MOL   H13945353   1.735   1.435   0.366  0.4309 -1.1127 -0.9708
   48MOL   H14045354   1.852   1.512   0.577 -0.1954 -1.8244  0.9964
   48MOL   H14145355   2.005   1.515   0.494 -1.6337  3.6745  1.5725
   48MOL   H14245356   1.982   1.329   0.628  2.1572  2.2744 -0.8858
   48MOL   H14345357   1.987   1.270   0.463  1.8249  2.0650  0.3387
   48MOL   H14445358   1.724   1.257   0.470 -1.6151 -1.8758  0.5134
   48MOL   H14545359   1.732   1.304   0.644  3.2331  1.3362  0.7207
   48MOL   O14645360   1.699   1.061   0.694  0.1914 -0.2705 -0.3613
   48MOL   C14745361   1.711   0.940   0.762 -0.2234  0.7488 -0.0167
   48MOL   C14845362   1.600   0.848   0.708  0.0736  0.1347  0.5411
   48MOL   C14945363   1.464   0.899   0.760  0.2424 -0.5937 -0.4154
   48MOL   C15045364   1.344   0.807   0.721 -0.2379 -0.3957 -0.2514
   48MOL   C15145365   1.215   0.885   0.715  0.0315  0.5225 -0.5591
   48MOL   C15245366   1.093   0.791   0.716 -0.3911  0.3487  0.9118
   48MOL   C15345367   0.962   0.868   0.700 -0.2680  0.3973 -0.8388
   48MOL   C15445368   0.827   0.787   0.717  0.4295  1.3865 -0.0062
   48MOL   C15545369   0.701   0.882   0.732  0.9233  1.0136  0.1671
   48MOL   C15645370   0.572   0.803   0.722  0.1375 -0.1139  0.2367
   48MOL   O15745371   0.559   0.719   0.838 -0.5173 -0.0791  0.2822
   48MOL   C15845372   0.448   0.649   0.857  0.1160  0.0971 -0.5229
   48MOL   O15945373   0.350   0.650   0.777 -0.6852 -0.2660  0.1003
   48MOL   C16045374   0.452   0.569   0.984 -0.6809  0.0360 -0.1924
   48MOL   C16145375   0.336   0.480   1.010 -0.2701  0.3386 -0.6335
   48MOL   C16245376   0.340   0.439   1.160  0.1100 -0.0571  0.8261
   48MOL   C16345377   0.245   0.324   1.216 -0.3919  0.5516  0.3032
   48MOL   C16445378   0.206   0.354   1.358 -0.6963 -0.0904  0.5464
   48MOL   O16545379   0.251   0.447   1.427  0.4159 -0.1386 -0.3884
   48MOL   H16645380   1.808   0.894   0.746 -0.7837 -1.5517  2.8380
   48MOL   H16745381   1.701   0.955   0.870 -1.6539 -1.8738  0.2656
   48MOL   H16845382   1.619   0.744   0.735 -0.2415  0.2298  1.1411
   48MOL   H16945383   1.596   0.853   0.599  0.9319  0.2012  0.5099
   48MOL   H17045384   1.479   0.892   0.868  2.8337 -0.9742 -0.7744
   48MOL   H17145385   1.448   1.006   0.748  1.2027 -0.3309  0.5580
   48MOL   H17245386   1.330   0.729   0.796  2.0701  1.6525  2.4254
   48MOL   H17345387   1.376   0.761   0.627 -1.4437  0.6698 -1.1919
   48MOL   H17445388   1.206   0.947   0.625 -0.4686 -0.9232 -1.5170
   48MOL   H17545389   1.200   0.954   0.798 -1.5298 -0.8745  0.3521
   48MOL   H17645390   1.099   0.746   0.815  0.9540  2.3847  1.7973
   48MOL   H17745391   1.098   0.714   0.638 -0.5267 -0.3766  1.6122
   48MOL   H17845392   0.960   0.930   0.610  0.7970  3.8602  1.4181
   48MOL   H17945393   0.960   0.948   0.774 -0.0275 -1.2562  0.9958
   48MOL   H18045394   0.845   0.732   0.810  2.1893 -2.1210 -2.3404
   48MOL   H18145395   0.826   0.716   0.635  2.7076 -0.6921  1.6872
   48MOL   H18245396   0.702   0.946   0.820  1.0045  3.5285 -1.5938
   48MOL   H18345397   0.697   0.938   0.638 -1.3746  2.1738  0.9100
   48MOL   H18445398   0.572   0.744   0.630  0.7537 -0.1819  0.2790
   48MOL   H18545399   0.498   0.883   0.716  1.9722  1.6787  1.0800
   48MOL   H18645400   0.542   0.510   0.965 -0.8967 -0.4718  0.3440
   48MOL   H18745401   0.481   0.627   1.072  0.0682  2.6906 -2.1225
   48MOL   H18845402   0.342   0.391   0.948 -1.6016 -0.1008 -0.1412
   48MOL   H18945403   0.252   0.546   0.989 -2.6479 -1.4679  2.7534
   48MOL   H19045404   0.335   0.531   1.218 -0.5235  1.2283 -1.2155
   48MOL   H19145405   0.442   0.411   1.190  0.2920  0.6208  0.8531
   48MOL   H19245406   0.303   0.232   1.223  1.8386  1.8786 -0.2169
   48MOL   H19345407   0.159   0.318   1.149 -1.0911  1.3766  1.1153
   48MOL   O19445408   0.103   0.281   1.395 -0.1794  0.0405  0.2371
   48MOL   C19545409   0.036   0.297   1.520 -0.3732 -1.0305 -0.3851
   48MOL   C19645410   7.695   0.178   1.529 -0.0457  0.0812  0.1800
   48MOL   C19745411   7.758   0.056   1.601  0.6835  0.0621  0.4113
   48MOL   C19845412   0.036   0.096   1.749  0.2533 -0.4875 -0.0336
   48MOL   C19945413   0.068   7.732   1.828 -0.3748 -0.1215  0.3519
   48MOL   C20045414   0.154   7.763   1.954 -0.7627  0.3904 -0.8723
   48MOL   C20145415   0.303   0.045   1.911  0.7407 -0.2735 -0.0282
   48MOL   C20245416   0.405   0.030   2.028 -0.0619  0.1147 -0.0992
   48MOL   C20345417   0.554   0.071   1.993  0.2407  0.0676  0.3960
   48MOL   C20445418   0.653   0.050   2.115 -0.1689  0.3330  0.1366
   48MOL   O20545419   0.626   7.688   2.168 -0.4680 -0.2939  0.2510
   48MOL   C20645420   0.623   7.668   2.309 -0.7109  0.6752  0.1654
   48MOL   O20745421   0.665   7.746   2.391 -0.5567  0.4009  0.1356
   48MOL   C20845422   0.565   7.525   2.342 -0.7104  0.5006 -0.6034
   48MOL   C20945423   0.661   7.410   2.397  0.3500  0.3157 -0.3641
   48MOL   C21045424   0.727   7.452   2.524  0.3138  0.1486 -0.2342
   48MOL   C21145425   0.854   7.372   2.553  0.9188 -0.3269 -0.1798
   48MOL   C21245426   0.933   7.400   2.681  0.0394 -1.0594  0.0612
   48MOL   O21345427   1.033   7.341   2.713  0.2460  0.3578 -0.3268
   48MOL   H21445428   0.116   0.289   1.594  0.0423 -1.1283 -0.8418
   48MOL   H21545429   7.757   0.397   1.517 -0.2338 -0.9316  0.6133
   48MOL   H21645430   7.660   0.161   1.427 -2.4560  0.2107  0.9584
   48MOL   H21745431   7.606   0.216   1.578  0.3174  0.3929  0.6012
   48MOL   H21845432   7.688   7.737   1.606  1.8558 -0.7999  4.5281
   48MOL   H21945433   0.083   0.014   1.554  1.4274 -0.3658  2.1729
   48MOL   H22045434   7.715   0.146   1.792 -0.6205 -1.2670 -0.8351
   48MOL   H22145435   0.121   0.164   1.751 -1.5891  1.8508 -0.3190
   48MOL   H22245436   0.127   7.672   1.759 -0.6079 -0.1586  0.1875
   48MOL   H22345437   7.749   7.671   1.861  0.1892 -0.8130  0.5032
   48MOL   H22445438   0.166   7.665   2.000  2.0428 -0.0612 -2.4108
   48MOL   H22545439   0.106   0.067   2.024 -1.3617 -0.0429 -0.8565
   48MOL   H22645440   0.302   0.150   1.883  0.3656  0.3706  2.2458
   48MOL   H22745441   0.332   7.749   1.826 -1.4461  0.3790 -1.2707
   48MOL   H22845442   0.400   7.700   2.082  3.2987 -0.0619 -0.0118
   48MOL   H22945443   0.372   0.105   2.099  0.9235 -0.2129  0.7117
   48MOL   H23045444   0.583   0.020   1.901  3.6338  1.7813  0.4282
   48MOL   H23145445   0.557   0.178   1.971 -0.2258  0.5678  2.6397
   48MOL   H23245446   0.627   0.125   2.190 -1.9519  0.6469 -0.7690
   48MOL   H23345447   0.757   0.045   2.082 -0.3272 -1.7618 -0.0836
   48MOL   H23445448   0.480   7.541   2.409 -0.2793 -0.1309  0.0911
   48MOL   H23545449   0.523   7.475   2.254 -1.2526  1.3733 -0.8499
   48MOL   H23645450   0.743   7.402   2.326  1.0259  2.5062  0.1024
   48MOL   H23745451   0.609   7.316   2.416 -0.4544  1.2937  2.6023
   48MOL   H23845452   0.651   7.440   2.601  0.8976  0.5150  0.3923
   48MOL   H23945453   0.750   7.559   2.525  0.3018  0.1559 -0.5404
   48MOL   H24045454   0.922   7.386   2.469  2.0367  1.7297  0.9976
   48MOL   H24145455   0.828   7.267   2.551 -1.2085  0.2016 -1.5398
   48MOL   O24245456   0.873   7.504   2.752  0.8409  0.2833  0.0302
   48MOL   C24345457   0.917   7.510   2.889  0.5463 -0.1812 -0.4548
   48MOL   C24445458   1.028   7.616   2.903 -0.1298  0.4741  0.0945
   48MOL   C24545459   0.972   7.755   2.905 -0.1594  0.8421  0.1168
   48MOL   C24645460   1.064   0.106   2.887  0.0594  0.5490 -0.6566
   48MOL   C24745461   1.005   0.247   2.872  0.3376  0.2724  0.4819
   48MOL   C24845462   0.930   0.302   2.996  0.7495  0.2884  0.0077
   48MOL   C24945463   0.873   0.440   2.977  0.1174  0.0446  0.0250
   48MOL   C25045464   0.757   0.441   2.873 -0.6320 -0.1283 -0.4119
   48MOL   C25145465   0.694   0.580   2.853 -0.0423 -0.1273 -0.4258
   48MOL   C25245466   0.610   0.587   2.726  0.7580 -0.1942 -0.1672
   48MOL   O25345467   0.506   0.492   2.731 -0.2371 -0.1090  0.0754
   48MOL   C25445468   0.384   0.518   2.775  0.1560  0.0848  0.0359
   48MOL   O25545469   0.344   0.619   2.835 -0.0276 -0.1700 -0.2908
   48MOL   C25645470   0.289   0.394   2.768 -0.2903  0.5464  0.1598
   48MOL   C25745471   0.141   0.420   2.792 -0.0221  0.3421 -0.1314
   48MOL   C25845472   0.072   0.526   2.702  0.5957 -0.4241 -0.4636
   48MOL   C25945473   7.677   0.526   2.701  0.4750  0.0665 -0.1316
   48MOL   C26045474   7.612   0.594   2.578 -0.3075  0.3328  0.0741
   48MOL   O26145475   7.684   0.629   2.485 -0.0819 -0.4218 -0.3106
   48MOL   H26245476   0.824   7.528   2.942  0.6969  0.6428 -0.4777
   48MOL   H26345477   0.952   7.410   2.918  1.6336 -0.7031 -3.3667
   48MOL   H26445478   1.096   7.600   2.820  0.9631 -2.7945  1.5434
   48MOL   H26545479   1.098   7.604   2.986  0.1144 -1.3124 -0.3482
   48MOL   H26645480   0.902   7.754   2.822  0.2448 -2.8028 -0.2493
   48MOL   H26745481   0.909   0.008   2.992 -0.3944  0.6976 -0.0241
   48MOL   H26845482   1.133   0.090   2.804 -0.2431  0.7006 -0.9364
   48MOL   H26945483   1.120   0.114   2.981  3.4348 -0.0483 -2.5188
   48MOL   H27045484   0.941   0.241   2.784  0.7957 -0.8644  0.2042
   48MOL   H27145485   1.087   0.315   2.850 -0.0867  0.7098  0.2444
   48MOL   H27245486   0.992   0.299   3.086  1.0334  1.7029 -0.1324
   48MOL   H27345487   0.847   0.234   3.014  2.0886 -0.8172  2.2104
   48MOL   H27445488   0.941   0.517   2.939 -0.3220 -1.0427 -3.1071
   48MOL   H27545489   0.838   0.475   3.074  0.6274  0.2879  0.1209
   48MOL   H27645490   0.679   0.370   2.900 -1.3592  0.9229  0.3026
   48MOL   H27745491   0.791   0.413   2.773  3.2224  0.7445  0.5687
   48MOL   H27845492   0.647   0.621   2.941  0.7044  0.6508 -0.3799
   48MOL   H27945493   0.776   0.650   2.837  1.2620 -1.2258  1.3273
   48MOL   H28045494   0.659   0.542   2.640 -0.4556  0.5242 -1.2500
   48MOL   H28145495   0.586   0.691   2.702  2.2805  0.4242  0.9003
   48MOL   H28245496   0.302   0.348   2.670 -0.7532 -1.8461  1.2012
   48MOL   H28345497   0.319   0.321   2.843 -0.4286  0.9314  0.5955
   48MOL   H28445498   0.130   0.439   2.899 -0.2960  1.8651 -0.4216
   48MOL   H28545499   0.081   0.330   2.783  1.0753 -0.6671  2.1129
   48MOL   H28645500   0.105   0.514   2.599  0.2971 -0.2990 -0.5740
   48MOL   H28745501   0.109   0.626   2.727 -1.5931  0.1325  0.6504
   48MOL   H28845502   7.656   0.591   2.785 -0.0500 -0.5535  0.2164
   48MOL   H28945503   7.644   0.423   2.709  1.7389 -0.1789  2.2068
   48MOL   O29045504   7.480   0.619   2.594 -0.1092  0.5419 -0.7389
   48MOL   C29145505   7.404   0.689   2.492 -0.4337 -0.3679 -0.3318
   48MOL   C29245506   7.266   0.628   2.489  0.3091  0.2604 -0.0598
   48MOL   C29345507   7.262   0.484   2.437  0.1344 -0.7204 -0.3961
   48MOL   C29445508   7.123   0.448   2.406 -0.4287 -0.1389 -0.1865
   48MOL   C29545509   7.082   0.500   2.263 -0.1967  0.0224 -0.4393
   48MOL   C29645510   6.936   0.482   2.244  0.1322  0.2257  0.1999
   48MOL   C29745511   6.880   0.540   2.116  0.4567  0.9787  0.2712
   48MOL   C29845512   6.866   0.691   2.107  0.4242 -0.8597  0.2884
   48MOL   C29945513   6.803   0.751   1.981  0.4311  0.4096  0.2901
   48MOL   C30045514   6.671   0.821   2.018  0.6460  0.1379 -0.3581
   48MOL   O30145515   6.603   0.862   1.904 -0.4672 -0.1858 -0.6686
   48MOL   C30245516   6.638   0.982   1.839 -0.1514  0.3289  0.0484
   48MOL   O30345517   6.743   1.048   1.847  0.0384 -0.0249 -0.5259
   48MOL   C30445518   6.523   1.024   1.751  0.6579  1.0587 -0.7931
   48MOL   C30545519   6.547   0.956   1.617 -0.2729  0.0088  0.4177
   48MOL   C30645520   6.467   1.018   1.503  0.4080  0.3266  0.6384
   48MOL   C30745521   6.488   0.959   1.360  0.0211 -0.3683  0.1996
   48MOL   C30845522   6.376   0.874   1.305 -0.3509 -0.5300 -0.5133
   48MOL   O30945523   6.319   0.905   1.203  0.9924  0.3694  0.7514
   48MOL   H31045524   7.405   0.796   2.510  0.1279 -0.5152  0.5732
   48MOL   H31145525   7.449   0.672   2.394  0.2129 -1.5370  0.1434
   48MOL   H31245526   7.216   0.693   2.418  0.8148 -0.0375 -0.6939
   48MOL   H31345527   7.210   0.642   2.582 -0.2328  0.5997 -0.4352
   48MOL   H31445528   7.332   0.467   2.355 -1.3118  0.1555 -1.8413
   48MOL   H31545529   7.302   0.426   2.520 -0.0213  1.1264  0.9748
   48MOL   H31645530   7.055   0.479   2.485  0.8607 -2.1391  1.7315
   48MOL   H31745531   7.126   0.339   2.400  0.1981  0.0115 -4.4362
   48MOL   H31845532   7.129   0.450   2.179  3.3136 -0.0478  1.4879
   48MOL   H31945533   7.104   0.607   2.259 -1.3793  0.3320  0.9345
   48MOL   H32045534   6.878   0.505   2.333  0.3738 -1.5882  0.8627
   48MOL   H32145535   6.926   0.374   2.232 -0.3170  0.7738 -5.5008
   48MOL   H32245536   6.783   0.496   2.092 -1.0716  2.8731  2.6264
   48MOL   H32345537   6.937   0.508   2.029 -2.2138  0.6261 -1.4185
   48MOL   H32445538   6.965   0.737   2.103 -0.0409  0.1884  0.8480
   48MOL   H32545539   6.820   0.716   2.202 -0.3810 -2.1933  0.2560
   48MOL   H32645540   6.875   0.807   1.923 -0.6495  1.3432 -0.1661
   48MOL   H32745541   6.784   0.664   1.917  1.5864  0.0178  0.4622
   48MOL   H32845542   6.682   0.908   2.084 -0.3646 -1.1981  1.6084
   48MOL   H32945543   6.608   0.749   2.069  1.0588 -1.6622 -2.3280
   48MOL   H33045544   6.420   1.000   1.780  0.7847  2.0659  0.5031
   48MOL   H33145545   6.525   1.132   1.744 -0.7653  1.0982 -0.8094
   48MOL   H33245546   6.533   0.849   1.629  2.8854 -0.5511 -0.6062
   48MOL   H33345547   6.654   0.975   1.606 -0.7923  2.2792 -1.0533
   48MOL   H33445548   6.489   1.124   1.499  1.3370  0.1056 -0.4737
   48MOL   H33545549   6.363   0.999   1.530 -0.6101  1.4434 -2.3213
   48MOL   H33645550   6.576   0.896   1.364 -0.0917 -0.4731  1.3003
   48MOL   H33745551   6.513   1.030   1.281  1.8144 -0.3948  0.7289
   48MOL   O33845552   6.353   0.762   1.387  0.0840 -0.3217  0.1254
   48MOL   C33945553   6.252   0.666   1.354  0.0207  0.2444 -0.2910
   48MOL   C34045554   6.263   0.562   1.463 -0.6482 -0.5530 -0.7593
   48MOL   C34145555   6.214   0.623   1.597 -0.2840  1.0273  0.1757
   48MOL   C34245556   6.234   0.524   1.721 -0.9403 -0.0675  0.2581
   48MOL   C34345557   6.293   0.590   1.845  0.5620 -0.4845  0.0875
   48MOL   C34445558   6.289   0.505   1.967 -0.7389 -0.0660 -0.1788
   48MOL   C34545559   6.425   0.440   1.990 -1.0182 -0.1023 -0.1527
   48MOL   C34645560   6.425   0.345   2.109  0.1293 -0.8096  0.2110
   48MOL   C34745561   6.559   0.315   2.182  0.4171  0.1594 -1.1853
   48MOL   C34845562   6.546   0.220   2.298  0.2316 -0.3161  0.6196
   48MOL   O34945563   6.660   0.213   2.377 -0.4374 -0.1743  0.5689
   48MOL   C35045564   6.649   0.125   2.484 -0.3723 -1.2284 -0.1508
   48MOL   O35145565   6.554   0.056   2.507  0.6613  0.0985  0.1076
   48MOL   C35245566   6.782   0.115   2.565 -0.5372 -0.3238  0.5689
   48MOL   C35345567   6.794   0.227   2.668 -0.6544 -0.4305 -0.2358
   48MOL   C35445568   6.803   0.367   2.611 -0.3706 -0.1222  0.1732
   48MOL   C35545569   6.820   0.471   2.724 -0.6668 -0.7799 -0.0931
   48MOL   C35645570   6.712   0.470   2.831  1.2293 -0.6596  0.0776
   48MOL   O35745571   6.740   0.447   2.947 -0.2667  0.3774  0.7198
   48MOL   H35845572   6.151   0.705   1.368 -0.0801 -0.6221  1.4675
   48MOL   H35945573   6.263   0.612   1.260 -1.0571 -0.7979  0.1630
   48MOL   H36045574   6.370   0.543   1.469 -0.4870  0.4726 -0.2153
   48MOL   H36145575   6.201   0.480   1.429 -0.4537 -0.3170 -1.6910
   48MOL   H36245576   6.274   0.713   1.606 -0.3604  1.1566 -0.5429
   48MOL   H36345577   6.110   0.655   1.599  0.3035  2.9262  3.3797
   48MOL   H36445578   6.298   0.441   1.690 -0.7285  0.6061 -1.1832
   48MOL   H36545579   6.138   0.476   1.740 -0.7830 -0.0587  1.0602
   48MOL   H36645580   6.235   0.681   1.853 -0.7738 -1.1943 -1.2928
   48MOL   H36745581   6.390   0.634   1.821 -0.3864  0.9242 -1.2920
   48MOL   H36845582   6.218   0.424   1.951 -0.1676 -0.4750 -0.6586
   48MOL   H36945583   6.259   0.568   2.051  0.1682  0.5140 -0.2795
   48MOL   H37045584   6.505   0.513   2.004 -1.9952  0.6823  1.7114
   48MOL   H37145585   6.457   0.377   1.908 -0.4514 -1.5855  1.1729
   48MOL   H37245586   6.388   0.251   2.067  1.3090 -0.2701 -2.1340
   48MOL   H37345587   6.356   0.379   2.186 -2.6458 -2.0727 -1.6315
   48MOL   H37445588   6.625   0.270   2.107  0.1327 -1.8276 -0.2633
   48MOL   H37545589   6.592   0.413   2.219  2.0464 -0.4705 -0.9089
   48MOL   H37645590   6.530   0.123   2.252  0.5837 -0.5660  1.0197
   48MOL   H37745591   6.455   0.241   2.354  0.7016 -0.7778  1.5606
   48MOL   H37845592   6.776   0.018   2.614 -0.5547  0.5183  2.2836
   48MOL   H37945593   6.867   0.112   2.498 -1.5202 -0.3998 -0.6983
   48MOL   H38045594   6.878   0.207   2.734  1.3065  1.0553 -2.2222
   48MOL   H38145595   6.709   0.218   2.735 -0.5166  0.7535  0.1128
   48MOL   H38245596   6.719   0.392   2.547 -0.9375 -2.2054  0.0703
   48MOL   H38345597   6.883   0.372   2.538 -1.5593 -0.9676 -1.2146
   48MOL   H38445598   6.820   0.573   2.685  2.3960 -0.2506  1.1311
   48MOL   H38545599   6.918   0.441   2.762  0.2304  0.6198 -1.2195
   48MOL   O38645600   6.592   0.496   2.776  0.0286  0.5863  0.0276
   48MOL   C38745601   6.471   0.515   2.846 -0.2423 -0.0072 -0.4325
   48MOL   C38845602   6.367   0.406   2.843 -1.0648 -0.1983  0.5935
   48MOL   C38945603   6.356   0.340   2.702  0.0628  0.0935 -0.0158
   48MOL   C39045604   6.240   0.239   2.704  0.0583 -0.1408 -0.3851
   48MOL   C39145605   6.104   0.312   2.699 -0.5002  0.8021  0.5139
   48MOL   C39245606   5.992   0.230   2.640  1.0077 -0.0132  0.3909
   48MOL   C39345607   5.938   0.125   2.745 -0.7610  0.9641 -0.5484
   48MOL   C39445608   5.790   0.094   2.718  0.0705  0.4477  0.3650
   48MOL   C39545609   5.766   0.060   2.571 -0.1973 -0.1714  0.2485
   48MOL   C39645610   5.632   0.004   2.539  0.0902  0.5612 -0.0456
   48MOL   O39745611   5.532   0.100   2.567  0.1812  0.2561 -0.3799
   48MOL   C39845612   5.446   0.139   2.470 -0.4808 -0.2162 -0.6925
   48MOL   O39945613   5.435   0.087   2.360 -0.1045 -0.3810  0.6135
   48MOL   C40045614   5.357   0.258   2.516  0.0193  0.4113 -0.2965
   48MOL   C40145615   5.361   0.376   2.414 -0.1206 -0.5104 -0.0328
   48MOL   C40245616   5.505   0.437   2.408  0.1316  0.1803  0.3792
   48MOL   C40345617   5.519   0.581   2.355 -0.2796 -0.1652 -0.1991
   48MOL   C40445618   5.536   0.583   2.206 -0.3072  0.0407 -0.9564
   48MOL   O40545619   5.606   0.498   2.150  0.4617 -0.1298 -0.0705
   48MOL   H40645620   6.485   0.543   2.950  2.1670 -2.2808 -0.1011
   48MOL   H40745621   6.430   0.610   2.809 -2.7254 -1.3009 -1.1217
   48MOL   H40845622   6.275   0.457   2.870  0.3470  2.9232 -0.3390
   48MOL   H40945623   6.384   0.330   2.919  0.0158  0.2560  0.8262
   48MOL   H41045624   6.348   0.409   2.618  0.1536  1.2854  0.9302
   48MOL   H41145625   6.455   0.297   2.688  0.4864  0.6299  1.1724
   48MOL   H41245626   6.249   0.175   2.792 -2.0092 -0.8202 -0.6347
   48MOL   H41345627   6.252   0.175   2.617 -0.1903 -1.5643  0.6196
   48MOL   H41445628   6.104   0.403   2.639  0.2140  0.6258  0.2421
   48MOL   H41545629   6.061   0.351   2.791 -4.3213  2.1960 -1.6941
   48MOL   H41645630   6.021   0.177   2.550 -1.8130 -1.2500  0.1704
   48MOL   H41745631   5.912   0.302   2.624  1.7182  1.0279  1.4227
   48MOL   H41845632   5.957   0.166   2.845  2.5020 -2.0412  0.1639
   48MOL   H41945633   6.001   0.036   2.743 -1.2323  0.6001  0.5719
   48MOL   H42045634   5.723   0.173   2.750 -1.9828 -1.3276  0.6152
   48MOL   H42145635   5.758   0.005   2.773 -0.3533  0.4074  0.0596
   48MOL   H42245636   5.797   0.141   2.505 -1.8296 -0.6989 -1.1981
   48MOL   H42345637   5.835   7.742   2.552  1.3303  0.9386  0.8251
   48MOL   H42445638   5.617   7.690   2.613  0.4491  0.3267 -0.2199
   48MOL   H42545639   5.638   7.729   2.438 -2.6439  0.6111 -0.2635
   48MOL   H42645640   5.253   0.225   2.525  0.4182 -1.0417 -1.0025
   48MOL   H42745641   5.381   0.285   2.619  3.0163 -0.0987 -0.8067
   48MOL   H42845642   5.295   0.454   2.451  0.2321  0.5436 -1.5812
   48MOL   H42945643   5.312   0.355   2.318 -2.2960  1.6311  0.5635
   48MOL   H43045644   5.563   0.369   2.345  2.5698  0.3539  2.3770
   48MOL   H43145645   5.560   0.420   2.500  1.7595  0.3054 -0.5535
   48MOL   H43245646   5.608   0.624   2.400 -1.1808  0.4707  0.9906
   48MOL   H43345647   5.441   0.644   2.397  2.5585  1.6678  2.5591
   48MOL   O43445648   5.463   0.678   2.152 -0.0040  0.1270  0.0337
   48MOL   C43545649   5.467   0.714   2.012 -0.5929 -1.2730 -0.3418
   48MOL   C43645650   5.411   0.600   1.919  0.0448 -0.1484  0.2945
   48MOL   C43745651   5.453   0.636   1.765 -0.2203  0.0354 -0.3638
   48MOL   C43845652   5.378   0.552   1.653 -0.0173  0.1769 -0.3718
   48MOL   C43945653   5.221   0.559   1.653  0.0800 -0.0574  0.0791
   48MOL   C44045654   5.154   0.455   1.559  0.2655  0.4587 -0.1707
   48MOL   C44145655   5.088   0.331   1.623  0.1609 -0.7035  0.1380
   48MOL   C44245656   5.202   0.247   1.686  0.1422 -0.1114 -0.6203
   48MOL   C44345657   5.135   0.129   1.753 -0.1208  0.1641  0.5305
   48MOL   C44445658   5.232   0.027   1.806  0.2365 -0.0404 -0.0919
   48MOL   O44545659   5.296   7.734   1.692  0.3769 -0.0638 -0.2547
   48MOL   C44645660   5.407   7.668   1.706  0.5998  0.3137 -0.1024
   48MOL   O44745661   5.456   7.629   1.810  0.3955 -0.1730 -0.4742
   48MOL   C44845662   5.473   7.642   1.573 -0.0770  0.3080 -0.3616
   48MOL   C44945663   5.554   7.520   1.552 -0.2303  0.1854 -0.0125
   48MOL   C45045664   5.466   7.393   1.563  0.1035  0.2285  0.3481
   48MOL   C45145665   5.541   7.266   1.504 -0.2253  0.1249  0.0451
   48MOL   C45245666   5.667   7.222   1.574 -0.1361 -0.5221 -0.1620
   48MOL   O45345667   5.773   7.210   1.516 -0.2722 -0.0547  0.2064
   48MOL   H45445668   5.400   0.797   1.990 -1.3091 -1.5646  0.7231
   48MOL   H45545669   5.568   0.750   1.993 -1.3985  1.4861  0.3924
   48MOL   H45645670   5.304   0.595   1.942  0.1427 -1.1617  0.5352
   48MOL   H45745671   5.454   0.504   1.947  2.7468  0.7261 -0.7137
   48MOL   H45845672   5.423   0.740   1.750 -0.0702  0.0273 -0.7366
   48MOL   H45945673   5.560   0.640   1.749 -0.2028 -2.6704 -1.2646
   48MOL   H46045674   5.413   0.449   1.662  2.8529  1.2413  1.4724
   48MOL   H46145675   5.414   0.591   1.558  1.1606 -1.7391 -0.7526
   48MOL   H46245676   5.191   0.662   1.632  1.0383  0.7295  2.3885
   48MOL   H46345677   5.194   0.542   1.757 -2.7963 -2.3570 -0.9931
   48MOL   H46445678   5.220   0.418   1.480  1.6836 -2.2693  2.2114
   48MOL   H46545679   5.082   0.513   1.501 -0.5546 -1.1332 -0.7794
   48MOL   H46645680   5.042   0.271   1.545 -1.0607 -0.6849  0.8321
   48MOL   H46745681   5.011   0.370   1.691  0.3240 -1.2646  0.6551
   48MOL   H46845682   5.262   0.311   1.749 -1.9445 -0.9663  2.3288
   48MOL   H46945683   5.256   0.207   1.599 -2.4378  0.4307 -2.5213
   48MOL   H47045684   5.080   0.158   1.843 -1.6035  0.3880 -0.4266
   48MOL   H47145685   5.078   0.075   1.677  1.3980  1.9689 -1.9587
   48MOL   H47245686   5.176   7.712   1.856  4.4411 -1.6695  2.3310
   48MOL   H47345687   5.308   0.072   1.869 -0.2199  0.4537  0.1073
   48MOL   H47445688   5.394   7.643   1.498 -2.3813 -3.3165  1.8725
   48MOL   H47545689   5.542   7.724   1.551  1.6092 -0.9562  0.1010
   48MOL   H47645690   5.640   7.523   1.619  0.9537  0.6510 -1.5331
   48MOL   H47745691   5.591   7.542   1.452 -1.9561 -0.0750 -0.7411
   48MOL   H47845692   5.367   7.394   1.519  0.6161 -0.2367 -0.8227
   48MOL   H47945693   5.441   7.375   1.668  1.8471  2.0906  1.1226
   48MOL   H48045694   5.567   7.282   1.399  0.5567 -2.0210 -0.1057
   48MOL   H48145695   5.474   7.181   1.511 -1.0635  0.7199 -0.6225
   48MOL   O48245696   5.648   7.189   1.711  0.2894 -0.5521 -0.4297
   48MOL   C48345697   5.756   7.130   1.791 -0.1530 -0.3926  0.4084
   48MOL   C48445698   5.709   7.009   1.871  0.0315  0.2489 -0.3539
   48MOL   C48545699   5.700   6.886   1.781 -0.0919  0.5447 -0.6216
   48MOL   C48645700   5.667   6.754   1.864  0.1592 -0.4880 -0.6906
   48MOL   C48745701   5.642   6.634   1.778  0.3328 -0.8950 -0.0839
   48MOL   C48845702   5.581   6.516   1.854 -0.1517 -0.4320  0.0858
   48MOL   C48945703   5.534   6.399   1.766  0.5828  0.1472  0.5020
   48MOL   C49045704   5.462   6.288   1.843 -0.1357  0.3865 -0.8542
   48MOL   C49145705   5.406   6.169   1.765 -0.4269  0.3488  0.2214
   48MOL   C49245706   5.322   6.076   1.845 -0.3124  0.6305  0.0579
   48MOL   O49345707   5.233   6.159   1.914 -0.4441  0.2156  0.1904
   48MOL   C49445708   5.142   6.108   2.003  0.6727  0.2294 -0.2209
   48MOL   O49545709   5.130   5.984   2.025 -0.7204  0.2614 -0.1573
   48MOL   C49645710   5.063   6.216   2.077  0.4988 -0.5188 -0.1873
   48MOL   C49745711   4.910   6.195   2.084  0.0259 -0.0181 -0.8787
   48MOL   C49845712   4.842   6.275   2.198  0.3030  0.1602  0.2912
   48MOL   C49945713   4.691   6.294   2.174 -0.4185 -0.2227  0.1605
   48MOL   C50045714   4.659   6.404   2.074 -0.3570 -0.1954  1.0013
   48MOL   O50145715   4.735   6.436   1.979  0.2986 -0.1026 -0.1009
   48MOL   H50245716   5.834   7.100   1.721 -1.2836 -2.4406  0.0092
   48MOL   H50345717   5.797   7.209   1.855  1.1811  0.1624 -1.1137
   48MOL   H50445718   5.618   7.032   1.926 -1.4682 -2.1338 -1.7470
   48MOL   H50545719   5.793   6.989   1.937  0.9136  3.7524 -0.3102
   48MOL   H50645720   5.618   6.885   1.709 -0.1377 -0.3101 -0.5661
   48MOL   H50745721   5.792   6.869   1.726  0.2982  0.7839 -0.0426
   48MOL   H50845722   5.579   6.782   1.921  1.0244 -0.4286  0.6480
   48MOL   H50945723   5.748   6.738   1.935  0.8624  1.3129 -1.0432
   48MOL   H51045724   5.731   6.602   1.724  1.8173  1.3717  0.9724
   48MOL   H51145725   5.575   6.664   1.698  0.4901 -0.5138 -0.0749
   48MOL   H51245726   5.494   6.547   1.912  1.2981  2.8812  0.6086
   48MOL   H51345727   5.657   6.484   1.925  1.8436  1.3870 -1.1492
   48MOL   H51445728   5.620   6.349   1.722  0.0413  0.0526 -0.4376
   48MOL   H51545729   5.472   6.439   1.686 -0.5518  0.0308  1.3051
   48MOL   H51645730   5.374   6.341   1.879 -1.6736 -1.1138 -2.3405
   48MOL   H51745731   5.528   6.265   1.927 -1.5829 -0.2860  0.1223
   48MOL   H51845732   5.346   6.205   1.682  1.2794  1.6584 -0.4768
   48MOL   H51945733   5.484   6.114   1.712  0.9374  1.2329  1.2709
   48MOL   H52045734   5.381   6.027   1.923 -1.9121 -1.5259 -0.0604
   48MOL   H52145735   5.266   6.007   1.782 -0.4908  2.0184 -1.3318
   48MOL   H52245736   5.093   6.224   2.182  0.1938  1.9808 -0.2573
   48MOL   H52345737   5.089   6.308   2.024  0.0543 -0.3948 -0.1978
   48MOL   H52445738   4.876   6.095   2.109 -1.6155  0.2766 -1.8696
   48MOL   H52545739   4.863   6.227   1.991  0.7227  1.3790 -0.7666
   48MOL   H52645740   4.900   6.367   2.200  0.1474  0.2431  1.0271
   48MOL   H52745741   4.858   6.242   2.301 -2.0437 -1.4443  0.1803
   48MOL   H52845742   4.641   6.309   2.269  1.1452  0.8088  0.8431
   48MOL   H52945743   4.652   6.204   2.125  1.4178  0.4354 -2.6339
   48MOL   O53045744   4.536   6.463   2.088  0.4551 -0.1339 -0.3978
   48MOL   C53145745   4.481   6.562   2.004 -0.4636  0.0837  0.1782
   48MOL   C53245746   4.504   6.695   2.063  0.3750  0.2171 -0.3383
   48MOL   C53345747   4.446   6.823   1.992  0.8749  0.0080  0.1217
   48MOL   C53445748   4.305   6.848   2.059  0.3621 -0.1063  0.1732
   48MOL   C53545749   4.213   6.945   1.987 -0.2052 -0.4443  0.3987
   48MOL   C53645750   4.070   6.948   2.040  0.3113 -0.1994 -0.1491
   48MOL   C53745751   3.986   6.821   2.000 -0.1072 -0.0809 -0.2471
   48MOL   C53845752   3.837   6.850   2.007  0.0613  0.3438  0.1889
   48MOL   C53945753   3.775   6.862   2.149 -0.3712 -0.0956 -0.7592
   48MOL   C54045754   3.625   6.895   2.161 -0.4437  0.1507  0.0880
   48MOL   O54145755   3.593   6.930   2.289 -0.4741  0.1348  0.4611
   48MOL   C54245756   3.548   6.833   2.372 -0.5002 -0.2583 -0.4349
   48MOL   O54345757   3.559   6.714   2.355  0.3199  0.0451 -0.1934
   48MOL   C54445758   3.508   6.885   2.504 -0.9404  0.5378  0.1338
   48MOL   C54545759   3.467   6.768   2.594  0.2476 -0.6987  0.1080
   48MOL   C54645760   3.582   6.687   2.658 -0.1047  0.2251  0.0542
   48MOL   C54745761   3.521   6.596   2.763 -0.1105  0.5328 -0.2037
   48MOL   C54845762   3.500   6.667   2.897  0.1102 -0.1616 -0.4504
   48MOL   O54945763   3.388   6.674   2.942 -0.5023 -0.1106 -0.1232
   48MOL   H55045764   4.538   6.561   1.911 -0.2754 -1.6035  0.2821
   48MOL   H55145765   4.374   6.551   1.988 -0.5503  1.6922 -0.4194
   48MOL   H55245766   4.612   6.712   2.063  0.2550  1.0118 -0.0533
   48MOL   H55345767   4.476   6.703   2.168  0.4214  0.5627 -0.3493
   48MOL   H55445768   4.522   6.899   2.007  0.3588  0.7857 -1.1872
   48MOL   H55545769   4.444   6.805   1.885  0.7100 -1.4587  0.3556
   48MOL   H55645770   4.337   6.894   2.152 -1.2124  1.3906  0.0071
   48MOL   H55745771   4.253   6.757   2.089 -1.2970  0.0955 -1.9469
   48MOL   H55845772   4.212   6.934   1.878 -1.2158  0.2748  0.3299
   48MOL   H55945773   4.252   7.044   2.008 -1.7447  0.5206 -1.1595
   48MOL   H56045774   4.015   7.028   1.992 -0.4523 -0.7520 -0.2057
   48MOL   H56145775   4.058   6.964   2.147 -2.7612 -5.0397  0.3755
   48MOL   H56245776   4.009   6.730   2.056  0.8319  0.7293  0.6950
   48MOL   H56345777   3.996   6.805   1.893 -2.4440  1.2320 -0.6964
   48MOL   H56445778   3.778   6.771   1.960  2.0586 -0.9577 -0.2033
   48MOL   H56545779   3.814   6.944   1.956 -0.4345 -0.2037 -0.6001
   48MOL   H56645780   3.790   6.774   2.211  0.5329 -0.4419 -1.4571
   48MOL   H56745781   3.835   6.940   2.196 -1.7057 -0.3752  1.4908
   48MOL   H56845782   3.574   6.810   2.115 -1.8962 -0.3285  2.4847
   48MOL   H56945783   3.611   6.979   2.094  1.2146 -0.7196 -1.4009
   48MOL   H57045784   3.593   6.946   2.534 -0.8077  0.5492 -0.2630
   48MOL   H57145785   3.423   6.949   2.482 -1.1133  0.3332  0.2028
   48MOL   H57245786   3.400   6.704   2.535  1.6994 -0.4552 -1.8636
   48MOL   H57345787   3.413   6.815   2.676 -1.7316 -0.4556 -1.2867
   48MOL   H57445788   3.657   6.753   2.702 -0.0176 -0.3433  0.7637
   48MOL   H57545789   3.622   6.617   2.584 -0.5128  1.6488 -1.5731
   48MOL   H57645790   3.590   6.513   2.767 -0.4328  0.3255  1.4209
   48MOL   H57745791   3.421   6.561   2.735  0.3093  0.6067 -1.8287
   48MOL   O57845792   3.607   6.703   2.970 -0.2005  0.0479  0.2165
   48MOL   C57945793   3.591   6.781   3.092 -0.5200 -0.3622 -0.2234
   48MOL   C58045794   3.724   6.836   3.144 -1.1937  0.0147  0.3707
   48MOL   C58145795   3.806   6.732   3.213 -0.1716  0.5443 -0.7007
   48MOL   C58245796   3.941   6.783   3.265  0.8964  0.0045 -0.3262
   48MOL   C58345797   4.032   6.821   3.157  0.7168  0.4358  0.1588
   48MOL   C58445798   4.180   6.847   3.200  0.2989  0.1019 -0.5104
   48MOL   C58545799   4.270   6.905   3.092  0.2862  0.3450 -0.1702
   48MOL   C58645800   4.234   7.047   3.043 -0.3005 -0.1122  0.3794
   48MOL   C58745801   4.285   7.163   3.133  0.5400 -0.4902  0.1808
   48MOL   C58845802   4.175   7.205   3.229  0.0210 -0.2922 -0.8272
   48MOL   O58945803   4.218   7.301   3.323  0.1687 -0.7100 -0.5360
   48MOL   C59045804   4.142   7.342   3.423  0.2581 -0.4232 -0.4976
   48MOL   O59145805   4.031   7.292   3.445 -0.1648  0.2713 -0.3656
   48MOL   C59245806   4.206   7.441   3.524  0.6695 -0.2681 -0.4960
   48MOL   C59345807   4.328   7.365   3.590 -0.2517 -0.0435  0.0978
   48MOL   C59445808   4.406   7.454   3.689 -0.4942 -0.0726 -0.0347
   48MOL   C59545809   4.526   7.397   3.764  0.0834 -0.4595 -0.7917
   48MOL   C59645810   4.614   7.509   3.823  0.0132  0.3555  0.9907
   48MOL   O59745811   4.571   7.621   3.853  0.0472  0.3518 -0.4970
   48MOL   H59845812   3.532   6.868   3.063 -0.5745 -0.0621  0.7753
   48MOL   H59945813   3.531   6.732   3.168 -2.1192 -0.2750 -1.3950
   48MOL   H60045814   3.690   6.915   3.211  1.2335  0.6765  0.8983
   48MOL   H60145815   3.770   6.882   3.056  1.1653  1.7425  2.4083
   48MOL   H60245816   3.739   6.677   3.279  2.3650 -1.6758  0.0745
   48MOL   H60345817   3.823   6.647   3.147 -2.5963 -0.6429  0.1294
   48MOL   H60445818   4.000   6.710   3.321  0.8244 -1.4292 -2.0565
   48MOL   H60545819   3.932   6.872   3.327  0.6057 -0.4805  0.3288
   48MOL   H60645820   3.983   6.908   3.113 -2.3890 -2.1126 -1.5903
   48MOL   H60745821   4.036   6.740   3.085  2.4614  0.8927 -0.2752
   48MOL   H60845822   4.221   6.751   3.232  0.5230 -0.1117 -1.4437
   48MOL   H60945823   4.180   6.905   3.292  0.1372 -0.4750 -0.1383
   48MOL   H61045824   4.270   6.830   3.013 -0.5819  1.2976 -1.1034
   48MOL   H61145825   4.374   6.909   3.123  0.0718 -0.8128  0.7468
   48MOL   H61245826   4.131   7.069   3.016 -0.0826  3.3850  2.1738
   48MOL   H61345827   4.285   7.051   2.947  0.3994 -2.0386  0.6519
   48MOL   H61445828   4.368   7.130   3.195  0.2339  0.4086  1.0858
   48MOL   H61545829   4.306   7.255   3.078 -2.4701  0.7790  1.0351
   48MOL   H61645830   4.145   7.126   3.297  0.0952  0.2250 -0.1898
   48MOL   H61745831   4.094   7.250   3.171 -0.7408  1.3221  1.4040
   48MOL   H61845832   4.256   7.520   3.468  1.1198 -0.9344 -1.0459
   48MOL   H61945833   4.137   7.473   3.602  1.1029  0.2626 -0.3281
   48MOL   H62045834   4.394   7.327   3.511  0.8212  1.0539  0.4444
   48MOL   H62145835   4.291   7.279   3.646  0.0154 -0.3598 -0.2020
   48MOL   H62245836   4.327   7.485   3.758 -0.0472  1.0720 -0.0337
   48MOL   H62345837   4.430   7.545   3.634 -0.0264 -0.3036 -0.2151
   48MOL   H62445838   4.592   7.341   3.697 -1.0552 -1.5497 -1.0083
   48MOL   H62545839   4.500   7.336   3.851  0.9224  0.2727 -0.0124
   48MOL   O62645840   4.737   7.470   3.839  0.4466  0.2656  0.7253
   48MOL   C62745841   4.830   7.564   3.895 -0.1669  0.2016  0.2692
   48MOL   C62845842   4.967   7.532   3.845  0.6085 -0.6531  0.1306
   48MOL   C62945843   5.029   7.421   3.925 -0.2444  0.0778  0.6612
   48MOL   C63045844   5.157   7.370   3.848  0.4621  0.8260 -0.3188
   48MOL   C63145845   5.252   7.289   3.931 -0.1357  0.4266 -0.5617
   48MOL   C63245846   5.210   7.152   3.966  0.0169 -1.2757  0.1620
   48MOL   C63345847   5.317   7.068   4.031 -0.1829 -0.1856  0.4459
   48MOL   C63445848   5.297   6.912   4.044 -0.2332  0.5071  0.1154
   48MOL   C63545849   5.166   6.885   4.123 -1.1550  0.0528  0.1512
   48MOL   C63645850   5.152   6.740   4.170 -0.6542  0.7700 -0.2046
   48MOL   O63745851   5.260   6.692   4.247 -0.0883 -0.0352 -0.0920
   48MOL   C63845852   5.265   6.696   4.383 -0.2992 -0.6387  0.0215
   48MOL   O63945853   5.176   6.744   4.451 -0.0253  0.5903 -0.0460
   48MOL   C64045854   5.392   6.664   4.454 -0.4323  0.9335 -0.1080
   48MOL   C64145855   5.464   6.537   4.396  0.5928 -0.2099 -0.0630
   48MOL   C64245856   5.592   6.506   4.476  0.5825  0.5226  0.4463
   48MOL   C64345857   5.658   6.369   4.434 -0.1802 -0.1951  0.1303
   48MOL   C64445858   5.745   6.386   4.310 -0.3107 -0.3060 -0.3027
   48MOL   O64545859   5.849   6.453   4.321  0.0943  0.9542 -0.1028
   48MOL   H64645860   4.815   7.664   3.853  4.3247  0.4817 -0.9441
   48MOL   H64745861   4.829   7.577   4.003 -2.6737 -3.0438  0.6974
   48MOL   H64845862   5.045   7.609   3.849 -1.3093  1.3877 -0.4297
   48MOL   H64945863   4.953   7.506   3.741  0.4740 -0.3405  0.0692
   48MOL   H65045864   5.053   7.474   4.017  1.4038  1.5952 -0.6198
   48MOL   H65145865   4.949   7.348   3.938 -1.1833  0.7508 -1.2007
   48MOL   H65245866   5.209   7.455   3.804  0.8189  0.5658 -0.4010
   48MOL   H65345867   5.141   7.310   3.759  1.9199  0.3250 -0.2481
   48MOL   H65445868   5.265   7.339   4.027  2.1386 -1.7164  0.3198
   48MOL   H65545869   5.348   7.279   3.880 -0.7931 -1.0029 -1.5370
   48MOL   H65645870   5.178   7.101   3.875  0.7703 -1.6164  0.0840
   48MOL   H65745871   5.128   7.153   4.038 -0.2373 -0.4542 -0.1385
   48MOL   H65845872   5.326   7.111   4.131 -1.5498 -0.0567  0.5156
   48MOL   H65945873   5.410   7.076   3.974  1.1779 -1.5413  2.3520
   48MOL   H66045874   5.388   6.877   4.093  0.1146 -1.5797 -1.9626
   48MOL   H66145875   5.290   6.876   3.941 -0.8217 -2.6047  1.1715
   48MOL   H66245876   5.179   6.949   4.210 -2.9603  0.3875  0.1951
   48MOL   H66345877   5.086   6.927   4.062 -0.4636  2.3337  0.7504
   48MOL   H66445878   5.149   6.675   4.082 -0.0869 -2.2622  1.9495
   48MOL   H66545879   5.052   6.726   4.213 -0.6877  1.7324  0.0360
   48MOL   H66645880   5.460   6.748   4.446  0.9296  0.0312  1.7545
   48MOL   H66745881   5.380   6.659   4.562  3.6915  0.3901  0.4160
   48MOL   H66845882   5.489   6.541   4.290  0.2687  2.0032 -0.0692
   48MOL   H66945883   5.392   6.458   4.418  0.6063 -0.6399 -1.5505
   48MOL   H67045884   5.571   6.502   4.583  3.2227 -1.4839  0.9470
   48MOL   H67145885   5.665   6.584   4.453  1.6924 -0.4030  0.7633
   48MOL   H67245886   5.594   6.281   4.430  0.3653 -0.6279  1.0523
   48MOL   H67345887   5.733   6.345   4.509  0.2596 -2.1849 -0.9088
   48MOL   O67445888   5.711   6.315   4.201  0.5063 -0.1121  0.4041
   48MOL   C67545889   5.789   6.327   4.083  0.4791 -0.0690 -0.3559
   48MOL   C67645890   5.732   6.228   3.980 -0.4017  0.3116  0.3349
   48MOL   C67745891   5.816   6.210   3.854  0.0533 -0.7187 -0.1502
   48MOL   C67845892   5.778   6.086   3.774 -0.4630  0.1422 -0.0659
   48MOL   C67945893   5.836   6.066   3.628 -0.1400  0.9263 -0.7691
   48MOL   C68045894   5.741   6.109   3.522  0.2770  0.3437 -0.0560
   48MOL   C68145895   5.806   6.085   3.388  1.0244 -0.0712  0.2735
   48MOL   C68245896   5.740   6.169   3.282 -0.2560  0.0329  0.4792
   48MOL   C68345897   5.623   6.090   3.226  0.1660  0.0597 -0.1500
   48MOL   C68445898   5.526   6.175   3.141 -0.4005  0.5124  0.4139
   48MOL   O68545899   5.565   6.167   3.006  0.4726  0.0872 -0.2295
   48MOL   C68645900   5.490   6.234   2.907 -0.3945 -0.2037  0.0060
   48MOL   O68745901   5.377   6.283   2.916  0.0013  0.2139 -0.1150
   48MOL   C68845902   5.568   6.244   2.774  0.1714  0.6457 -0.2115
   48MOL   C68945903   5.614   6.112   2.711  0.6308 -0.5344 -0.1435
   48MOL   C69045904   5.495   6.028   2.659 -0.3174  0.1332  0.1213
   48MOL   C69145905   5.426   6.090   2.543  0.5604  0.4756 -0.1265
   48MOL   C69245906   5.304   6.005   2.512 -0.8692 -0.2180  0.5804
   48MOL   O69345907   5.195   6.041   2.549  0.3351  0.3890  0.4960
   48MOL   H69445908   5.788   6.430   4.047 -1.1216 -0.5016 -1.6524
   48MOL   H69545909   5.893   6.302   4.102 -0.6535 -3.2665  2.0712
   48MOL   H69645910   5.631   6.253   3.947 -0.9690 -1.1748  0.8990
   48MOL   H69745911   5.724   6.134   4.035 -0.9869  0.4624  0.5093
   48MOL   H69845912   5.796   6.302   3.799  0.5819 -0.3701  0.2363
   48MOL   H69945913   5.923   6.216   3.876  0.3740 -1.1976 -1.5562
   48MOL   H70045914   5.670   6.098   3.776 -0.6741 -1.6254  2.0241
   48MOL   H70145915   5.792   5.990   3.825 -1.6695 -0.1417 -0.2658
   48MOL   H70245916   5.860   5.964   3.600  1.2659  0.6971  1.1493
   48MOL   H70345917   5.931   6.117   3.616  0.2374  0.2963 -0.4731
   48MOL   H70445918   5.701   6.210   3.535 -1.6374 -0.3588 -0.3945
   48MOL   H70545919   5.654   6.044   3.529 -0.2383  0.6490 -3.0113
   48MOL   H70645920   5.805   5.981   3.355 -1.5501  0.0977 -0.3022
   48MOL   H70745921   5.907   6.124   3.401  0.4655  2.2480 -1.9899
   48MOL   H70845922   5.810   6.178   3.199 -0.5283 -0.6780  0.1678
   48MOL   H70945923   5.710   6.267   3.320 -0.0721 -0.4545  1.9441
   48MOL   H71045924   5.649   6.002   3.167 -1.4907  0.0821 -0.9361
   48MOL   H71145925   5.572   6.042   3.309 -1.0153 -0.0161 -0.9100
   48MOL   H71245926   5.529   6.282   3.162 -0.8306  0.7897 -0.8880
   48MOL   H71345927   5.420   6.151   3.135 -0.3017  0.1493  0.1086
   48MOL   H71445928   5.500   6.301   2.711 -0.9434 -1.1395 -0.6333
   48MOL   H71545929   5.655   6.303   2.805 -0.8737  0.7253  2.7697
   48MOL   H71645930   5.683   6.067   2.783 -1.1630 -0.6945  1.5074
   48MOL   H71745931   5.685   6.132   2.631  1.5180 -0.6616  0.5956
   48MOL   H71845932   5.417   6.018   2.735 -0.2682  0.9887  0.2931
   48MOL   H71945933   5.535   5.929   2.636  0.8356  0.5230  0.4223
   48MOL   H72045934   5.492   6.087   2.456 -0.6504 -0.2332 -1.0337
   48MOL   H72145935   5.400   6.191   2.576 -1.4249 -1.0946  3.2527
   48MOL   O72245936   5.331   5.893   2.436 -0.4656  0.2063 -0.3797
   48MOL   C72345937   5.220   5.815   2.400  0.0752 -0.2432  0.4780
   48MOL   C72445938   5.264   5.674   2.436  0.0332  0.2311 -0.1177
   48MOL   C72545939   5.270   5.658   2.591 -0.5982 -0.3019 -0.3050
   48MOL   C72645940   5.270   5.519   2.637  0.6939  0.0247  0.1284
   48MOL   C72745941   5.240   5.516   2.784 -0.2126  0.1523  0.1306
   48MOL   C72845942   5.293   5.388   2.855 -0.6393  0.3896  0.7924
   48MOL   C72945943   5.247   5.380   3.000  0.7759 -0.6021 -0.2514
   48MOL   C73045944   5.218   5.244   3.056 -0.1331  0.0130 -0.3361
   48MOL   C73145945   5.342   5.150   3.062  0.0843  0.5565  0.0085
   48MOL   C73245946   5.426   5.154   3.189 -1.0261 -0.2413  0.4476
   48MOL   O73345947   5.518   5.265   3.185 -0.4024 -0.6835 -0.6747
   48MOL   C73445948   5.507   5.362   3.277  1.2891  0.2973 -0.1478
   48MOL   O73545949   5.420   5.369   3.363  0.0320  0.0920 -0.7593
   48MOL   C73645950   5.606   5.470   3.257  0.2986 -0.2916  0.5291
   48MOL   C73745951   5.581   5.556   3.139 -0.8149 -0.3205  0.1771
   48MOL   C73845952   5.466   5.660   3.169  0.8626  0.2635  0.2115
   48MOL   C73945953   5.446   5.754   3.053 -0.1863  0.3657  0.1965
   48MOL   C74045954   5.322   5.843   3.073 -0.3448  0.1166  0.0034
   48MOL   O74145955   5.293   5.897   3.181  0.0053 -0.3182  0.1025
   48MOL   H74245956   5.128   5.841   2.451 -0.0389  0.0656  0.1227
   48MOL   H74345957   5.201   5.819   2.292  0.0393  0.1561  0.4971
   48MOL   H74445958   5.353   5.646   2.381  0.3788 -0.5072  0.8045
   48MOL   H74545959   5.185   5.604   2.408 -0.4228 -0.3383  2.4306
   48MOL   H74645960   5.361   5.701   2.631 -1.4583  2.0942 -0.8363
   48MOL   H74745961   5.189   5.703   2.647 -1.7725 -0.4715 -1.8266
   48MOL   H74845962   5.365   5.470   2.616  0.1090 -1.5992  1.1897
   48MOL   H74945963   5.197   5.456   2.586 -1.2523  2.7048 -0.5144
   48MOL   H75045964   5.132   5.523   2.789 -0.1907  0.8243 -0.2537
   48MOL   H75145965   5.286   5.600   2.837  0.2744  0.8647 -1.3758
   48MOL   H75245966   5.401   5.377   2.849 -0.6680  0.0763  0.8385
   48MOL   H75345967   5.237   5.308   2.807  0.4213 -0.3157  0.7215
   48MOL   H75445968   5.154   5.433   3.022  1.9937  1.7428 -0.6735
   48MOL   H75545969   5.334   5.427   3.045  0.5070  1.1266 -1.4741
   48MOL   H75645970   5.136   5.189   3.009 -0.4685  0.4831 -0.3055
   48MOL   H75745971   5.197   5.255   3.162  2.6822 -1.0394  0.3886
   48MOL   H75845972   5.312   5.047   3.045  3.0364 -0.0804 -1.5831
   48MOL   H75945973   5.404   5.171   2.975 -0.6532 -0.0614 -0.6810
   48MOL   H76045974   5.491   5.067   3.198 -3.8201 -2.3312  1.2640
   48MOL   H76145975   5.368   5.148   3.282  0.0347 -2.0123  1.0237
   48MOL   H76245976   5.601   5.539   3.342  0.7652  0.9647 -0.4497
   48MOL   H76345977   5.707   5.429   3.253  1.0467  1.5147  0.1867
   48MOL   H76445978   5.576   5.511   3.040 -2.6530  1.1973 -0.4452
   48MOL   H76545979   5.676   5.609   3.127 -0.6419 -0.8527 -0.9061
   48MOL   H76645980   5.483   5.713   3.263 -0.8620 -2.1073  1.9126
   48MOL   H76745981   5.364   5.620   3.171  1.2841 -0.9617 -1.4339
   48MOL   H76845982   5.435   5.703   2.957  0.5930  0.7801 -0.1245
   48MOL   H76945983   5.540   5.808   3.044  0.4772 -1.1703 -2.8507
   48MOL   O77045984   5.255   5.847   2.958  0.0290 -0.0660  0.5781
   48MOL   C77145985   5.139   5.928   2.945  1.2070  0.4012 -0.0522
   48MOL   C77245986   5.012   5.841   2.979 -0.3008 -0.1112 -0.1186
   48MOL   C77345987   4.985   5.827   3.132  0.2840 -0.3249 -0.0461
   48MOL   C77445988   4.853   5.758   3.161  0.3072  0.3274 -0.7467
   48MOL   C77545989   4.813   5.780   3.306 -0.4537 -0.2642  0.4272
   48MOL   C77645990   4.682   5.697   3.328  0.2818 -0.2860 -0.1069
   48MOL   C77745991   4.649   5.703   3.476  0.0677 -0.2239 -0.6380
   48MOL   C77845992   4.529   5.618   3.517 -0.9145 -0.1755  0.1096
   48MOL   C77945993   4.492   5.627   3.668 -0.5008 -0.1682  0.1038
   48MOL   C78045994   4.395   5.520   3.724  1.0301  0.4653 -0.8545
   48MOL   O78145995   4.261   5.550   3.689  0.3032 -0.1064  0.4273
   48MOL   C78245996   4.165   5.605   3.773  0.1283 -0.0516  0.5276
   48MOL   O78345997   4.185   5.624   3.894  0.3822  0.3654 -0.7278
   48MOL   C78445998   4.028   5.637   3.706 -0.7117  0.0675  0.2800
   48MOL   C78545999   4.031   5.772   3.617 -0.0445 -0.7656 -0.0529
   48MOL   C78646000   3.920   5.764   3.508  0.1105 -0.3097 -0.4337
   48MOL   C78746001   3.908   5.887   3.420 -0.5439  0.4004 -0.3274
   48MOL   C78846002   3.824   5.988   3.490 -0.1070 -0.7707  0.7589
   48MOL   O78946003   3.874   6.094   3.514 -0.3098  0.3225  0.1025
   48MOL   H79046004   5.146   6.024   2.996 -0.3748 -0.1875  1.3119
   48MOL   H79146005   5.139   5.946   2.837  1.1598  0.6206 -0.0152
   48MOL   H79246006   5.025   5.745   2.929  1.0963  0.7120 -1.3824
   48MOL   H79346007   4.927   5.889   2.931 -0.0102  2.4279  1.8007
   48MOL   H79446008   5.064   5.767   3.177 -0.5965 -3.0598 -1.9805
   48MOL   H79546009   4.994   5.927   3.173 -3.5301 -0.0171  0.2668
   48MOL   H79646010   4.854   5.652   3.139  1.0149 -0.0532  1.0399
   48MOL   H79746011   4.779   5.817   3.107 -1.4754 -0.3974  0.8520
   48MOL   H79846012   4.802   5.882   3.342 -1.7679  1.1252 -3.6702
   48MOL   H79946013   4.896   5.733   3.359  0.7438  2.2356  0.8253
   48MOL   H80046014   4.692   5.590   3.308 -0.1585 -0.5841  1.1953
   48MOL   H80146015   4.600   5.737   3.268  1.4924 -0.9088 -2.2074
   48MOL   H80246016   4.626   5.803   3.511  1.2146  0.6425 -2.2871
   48MOL   H80346017   4.733   5.665   3.534 -1.7870 -1.1346  1.5167
   48MOL   H80446018   4.545   5.513   3.495  0.1598 -0.1378  0.7065
   48MOL   H80546019   4.439   5.634   3.457  0.5926 -0.9504 -2.4143
   48MOL   H80646020   4.587   5.610   3.718 -1.5033 -2.9025  1.2179
   48MOL   H80746021   4.458   5.728   3.690 -0.2089 -0.1060  0.2655
   48MOL   H80846022   4.404   5.509   3.832 -1.2899  0.1446 -0.6754
   48MOL   H80946023   4.429   5.428   3.677  1.1381  0.5060 -0.8543
   48MOL   H81046024   4.009   5.561   3.629 -2.9133  2.3701 -1.5394
   48MOL   H81146025   3.953   5.636   3.784 -0.3597 -1.8137  0.6306
   48MOL   H81246026   4.130   5.778   3.572 -0.6116  1.9669 -1.0233
   48MOL   H81346027   4.019   5.861   3.678  0.4868 -1.3044  0.8549
   48MOL   H81446028   3.832   5.728   3.561 -0.6790 -1.7861 -2.6746
   48MOL   H81546029   3.949   5.683   3.441  1.9940 -0.0785  0.0643
   48MOL   H81646030   3.850   5.849   3.337  0.1925 -0.3959 -0.4813
   48MOL   H81746031   4.003   5.933   3.392 -1.0433  0.6684 -1.6133
   48MOL   O81846032   3.706   5.957   3.529  0.6107  0.2232 -0.0077
   48MOL   C81946033   3.635   6.038   3.622 -0.4301 -0.6155 -0.0715
   48MOL   C82046034   3.508   6.060   3.552  0.2737 -0.1165 -0.1804
   48MOL   C82146035   3.398   6.088   3.661  0.3105 -0.0381  0.0775
   48MOL   C82246036   3.265   6.126   3.599 -0.3507 -0.3283 -0.1867
   48MOL   C82346037   3.198   6.002   3.547 -0.3238  0.2829 -0.2687
   48MOL   C82446038   3.063   6.026   3.472  0.7730  0.2577  0.1712
   48MOL   C82546039   3.015   5.903   3.388 -0.2810  0.0813  0.6060
   48MOL   C82646040   3.098   5.873   3.266 -0.5447 -0.2210  0.5904
   48MOL   C82746041   3.088   5.974   3.155  0.1029  0.0560 -0.1066
   48MOL   C82846042   3.159   5.906   3.038  0.1903  0.1698 -0.2847
   48MOL   O82946043   3.295   5.887   3.081 -0.2471  0.5564 -0.3498
   48MOL   C83046044   3.356   5.771   3.062 -0.1239  0.7255  0.1217
   48MOL   O83146045   3.313   5.675   3.007 -0.0122  0.2959 -0.2687
   48MOL   C83246046   3.495   5.770   3.114  0.2316 -0.1807  0.2641
   48MOL   C83346047   3.509   5.765   3.269 -0.1033 -0.3153 -0.2310
   48MOL   C83446048   3.410   5.667   3.345  0.1325 -0.0048  0.1911
   48MOL   C83546049   3.441   5.663   3.493  0.2856  0.2255  0.0325
   48MOL   C83646050   3.323   5.601   3.574 -0.7411  0.2499  0.1577
   48MOL   O83746051   3.248   5.677   3.640  0.3293 -0.4512  0.4517
   48MOL   H83846052   3.625   5.983   3.715  1.0543  0.9501  1.0378
   48MOL   H83946053   3.677   6.136   3.642 -0.6428 -0.1795 -1.6999
   48MOL   H84046054   3.475   5.966   3.507 -0.4919 -0.6868  1.5284
   48MOL   H84146055   3.510   6.132   3.470 -2.3987  1.5402  1.1310
   48MOL   H84246056   3.383   6.000   3.724  2.6791  0.2911  1.1661
   48MOL   H84346057   3.440   6.171   3.718  1.2345 -0.1567 -0.4167
   48MOL   H84446058   3.283   6.198   3.519 -1.6665  1.1346  0.7976
   48MOL   H84546059   3.206   6.177   3.675  0.8350  3.2608 -1.5714
   48MOL   H84646060   3.174   5.926   3.622  1.5902  0.6505  0.7225
   48MOL   H84746061   3.268   5.946   3.485 -0.7392 -0.9275  0.3272
   48MOL   H84846062   3.059   6.121   3.418 -1.3546 -0.8655 -1.7190
   48MOL   H84946063   2.989   6.053   3.548 -1.6702  1.3880 -2.5195
   48MOL   H85046064   2.917   5.930   3.349 -0.4301 -0.7670  0.3753
   48MOL   H85146065   3.004   5.824   3.462  0.1822  0.4184  1.0410
   48MOL   H85246066   3.071   5.768   3.252 -1.7249  0.1726 -0.0776
   48MOL   H85346067   3.203   5.857   3.294 -0.7763 -0.4207  1.3594
   48MOL   H85446068   2.985   5.983   3.123 -0.3668  1.6213  1.7232
   48MOL   H85546069   3.132   6.071   3.177  0.9539 -0.1385 -0.8990
   48MOL   H85646070   3.156   5.957   2.942 -2.2163  1.7266  0.5611
   48MOL   H85746071   3.107   5.814   3.010  0.2578  0.2527 -0.6873
   48MOL   H85846072   3.537   5.676   3.080 -0.1494 -0.7024  1.1894
   48MOL   H85946073   3.560   5.846   3.073  0.6119 -0.9603 -0.5803
   48MOL   H86046074   3.486   5.866   3.301  0.4308 -0.1404 -0.3863
   48MOL   H86146075   3.615   5.745   3.288  0.1833 -0.2247 -1.6919
   48MOL   H86246076   3.415   5.567   3.303  1.6945 -0.2876  1.0076
   48MOL   H86346077   3.302   5.680   3.331  0.2026  0.6441  0.2534
   48MOL   H86446078   3.451   5.764   3.533 -1.4889  0.2062  0.5948
   48MOL   H86546079   3.534   5.607   3.502 -0.0485 -0.2157  0.8112
   48MOL   O86646080   3.308   5.478   3.558 -0.2366 -0.3552  0.1843
   48MOL   C86746081   3.186   5.419   3.580  0.1021 -0.3186 -0.1182
   48MOL   C86846082   3.210   5.275   3.614 -0.4405 -0.1387  0.8837
   48MOL   C86946083   3.274   5.188   3.504  0.2924 -0.0608  0.3141
   48MOL   C87046084   3.315   5.044   3.545  0.4317  0.0182 -0.4629
   48MOL   C87146085   3.393   4.971   3.432  0.2545  0.3254 -0.6403
   48MOL   C87246086   3.544   4.990   3.452  0.0233 -0.1516  0.0279
   48MOL   C87346087   3.626   4.890   3.370 -0.2197 -0.0282 -0.1245
   48MOL   C87446088   3.778   4.922   3.356  0.1589  0.0219  0.0581
   48MOL   C87546089   3.856   4.789   3.326 -0.1757 -1.0508 -0.4168
   48MOL   C87646090   3.999   4.796   3.375  0.0118 -0.3414 -0.0515
   48MOL   O87746091   4.005   4.783   3.518  0.1722  0.1256 -0.3972
   48MOL   C87846092   4.009   4.659   3.566  0.0161 -0.4419 -0.3728
   48MOL   O87946093   4.013   4.557   3.508  0.4058  0.2388  0.5612
   48MOL   C88046094   4.022   4.659   3.715  0.3480  0.4873  0.9941
   48MOL   C88146095   4.171   4.680   3.751  0.4960 -0.3703 -0.5668
   48MOL   C88246096   4.251   4.548   3.750  0.3305  0.1477  0.3971
   48MOL   C88346097   4.391   4.559   3.803 -0.3706 -0.0975  0.7129
   48MOL   C88446098   4.485   4.451   3.759 -0.3965  0.0768 -0.5585
   48MOL   O88546099   4.438   4.349   3.707  0.1008 -0.6682 -0.3921
   48MOL   H88646100   3.145   5.463   3.671  0.5283 -1.2639  0.5457
   48MOL   H88746101   3.117   5.427   3.496  0.0266 -2.3067 -0.2808
   48MOL   H88846102   3.116   5.225   3.640  0.4458 -0.6489  3.2277
   48MOL   H88946103   3.264   5.262   3.708  0.0601  0.0294  0.6227
   48MOL   H89046104   3.215   5.181   3.412  0.3864  1.0364  0.1561
   48MOL   H89146105   3.361   5.239   3.464  1.1292 -1.8253 -0.1594
   48MOL   H89246106   3.218   5.002   3.573 -0.0927  1.1448 -0.5399
   48MOL   H89346107   3.381   5.035   3.631  0.3857  1.3163 -0.2938
   48MOL   H89446108   3.365   5.001   3.331  0.4193  1.3499 -0.3861
   48MOL   H89546109   3.381   4.863   3.447  0.5247  0.1817 -1.4472
   48MOL   H89646110   3.571   4.977   3.557 -1.1849 -1.0639  0.2421
   48MOL   H89746111   3.582   5.085   3.416  0.2101 -1.0051 -2.0949
   48MOL   H89846112   3.588   4.869   3.270  1.6781  1.5160 -1.2029
   48MOL   H89946113   3.623   4.791   3.416  0.5762 -0.0314 -0.0683
   48MOL   H90046114   3.810   4.949   3.457 -0.9428  0.5407  0.2745
   48MOL   H90146115   3.795   5.004   3.287 -0.1007 -0.9221 -1.1447
   48MOL   H90246116   3.803   4.699   3.358 -1.9493 -0.3689 -1.3812
   48MOL   H90346117   3.855   4.758   3.222 -0.1773 -1.4549 -0.2964
   48MOL   H90446118   4.046   4.890   3.346 -2.3677  0.6431 -0.8008
   48MOL   H90546119   4.050   4.715   3.322  1.7382  0.8645 -0.2596
   48MOL   H90646120   3.971   4.749   3.749  0.3750  2.2386 -3.3655
   48MOL   H90746121   3.984   4.567   3.758  0.5887  0.7294  1.7329
   48MOL   H90846122   4.171   4.712   3.856 -1.9457  0.3824 -0.7660
   48MOL   H90946123   4.211   4.763   3.692  1.0067 -0.6075 -0.5579
   48MOL   H91046124   4.252   4.512   3.647  1.6952  0.0091  0.4605
   48MOL   H91146125   4.203   4.468   3.806 -0.4460 -0.1119 -0.6133
   48MOL   H91246126   4.381   4.542   3.910  1.6075 -0.8230  0.7939
   48MOL   H91346127   4.441   4.653   3.780 -1.0492  0.4758  1.5326
   48MOL   O91446128   4.615   4.480   3.779  0.2045  0.0264  0.0098
   48MOL   C91546129   4.712   4.389   3.731 -0.1861 -0.4854  0.0903
   48MOL   C91646130   4.811   4.477   3.648 -0.1812  0.6074  0.7586
   48MOL   C91746131   4.849   4.618   3.708  0.3788  0.1501 -0.5036
   48MOL   C91846132   4.989   4.661   3.652 -0.1590  0.2958 -0.7416
   48MOL   C91946133   5.045   4.780   3.729  0.2591 -0.0944  0.0602
   48MOL   C92046134   5.135   4.869   3.642 -0.3425 -0.4221  0.0399
   48MOL   C92146135   5.219   4.967   3.730  0.9667 -0.3076 -0.2457
   48MOL   C92246136   5.306   5.071   3.661  0.0252 -0.1263  0.4174
   48MOL   C92346137   5.382   5.163   3.755 -0.0552  0.0967 -0.1001
   48MOL   C92446138   5.486   5.252   3.684  0.3936 -0.2437  0.3551
   48MOL   O92546139   5.589   5.174   3.636 -0.1004 -0.0739 -0.6748
   48MOL   C92646140   5.686   5.246   3.568  0.1050 -0.7922  0.4501
   48MOL   O92746141   5.695   5.375   3.565  0.3853  0.0740  0.0072
   48MOL   C92846142   5.784   5.157   3.493 -0.0721  0.5007 -0.3167
   48MOL   C92946143   5.872   5.234   3.395 -0.4021 -0.2554 -0.1900
   48MOL   C93046144   5.978   5.153   3.324  0.0595 -0.0204  0.9343
   48MOL   C93146145   6.086   5.227   3.244 -0.2000 -0.0407 -0.8284
   48MOL   C93246146   6.029   5.300   3.120  0.1008 -0.0106 -0.6744
   48MOL   O93346147   6.101   5.336   3.028  0.0788 -0.1907  0.5440
   48MOL   H93446148   4.767   4.344   3.813  1.4533  0.0654 -0.6921
   48MOL   H93546149   4.669   4.314   3.664 -4.2312  0.6467  1.2353
   48MOL   H93646150   4.777   4.489   3.546  1.0362 -1.3206  0.0869
   48MOL   H93746151   4.905   4.422   3.642  0.3507  1.6742 -1.0909
   48MOL   H93846152   4.768   4.692   3.710 -1.4194 -1.7404 -1.2282
   48MOL   H93946153   4.863   4.602   3.815  1.4222  0.8482 -0.5244
   48MOL   H94046154   4.968   4.695   3.551  0.5857  2.1559 -0.3041
   48MOL   H94146155   5.059   4.577   3.650  1.6807  1.7885 -1.1949
   48MOL   H94246156   5.096   4.751   3.821 -1.5540  0.2396  1.1934
   48MOL   H94346157   4.961   4.848   3.747  0.3987  0.2832 -0.6782
   48MOL   H94446158   5.076   4.918   3.565  1.0101 -1.0887 -1.4533
   48MOL   H94546159   5.206   4.811   3.581  0.7022  1.2946 -0.4094
   48MOL   H94646160   5.286   4.923   3.803  1.2090  2.2158  1.0982
   48MOL   H94746161   5.148   5.016   3.797 -0.2257 -1.2981 -0.7724
   48MOL   H94846162   5.240   5.121   3.590  1.3522 -0.5705 -1.1722
   48MOL   H94946163   5.374   5.011   3.600  0.2625 -1.0760  1.5941
   48MOL   H95046164   5.307   5.225   3.803  2.3679  3.0597 -0.0196
   48MOL   H95146165   5.444   5.102   3.821 -1.2546 -0.5942  0.4051
   48MOL   H95246166   5.524   5.306   3.770 -0.1729 -0.9008  1.0218
   48MOL   H95346167   5.443   5.320   3.611 -1.1514  0.1475  1.6060
   48MOL   H95446168   5.854   5.120   3.568  0.2271  1.6589 -0.0245
   48MOL   H95546169   5.733   5.077   3.439 -1.1323  1.0414 -0.1205
   48MOL   H95646170   5.919   5.319   3.444  0.0954  1.6650 -3.7682
   48MOL   H95746171   5.807   5.282   3.321 -0.7788 -0.3397  0.0879
   48MOL   H95846172   5.938   5.076   3.258  2.3382  0.3405 -0.9224
   48MOL   H95946173   6.033   5.092   3.396 -1.7883 -3.8475 -0.7762
   48MOL   H96046174   6.157   5.150   3.212  1.1397  0.4397  0.9136
   48MOL   H96146175   6.135   5.311   3.293  0.3605 -0.9844  0.2460
   48MOL   H96246176   5.921   5.312   3.124  0.1464 -0.2405  3.3783
   49MOL     O146177   5.566   2.778   4.498  0.0262  0.2904  0.3005
   49MOL     C246178   5.660   2.875   4.533 -0.1880 -0.0215 -0.0780
   49MOL     C346179   5.797   2.844   4.481 -0.5988  0.3853  0.8478
   49MOL     C446180   5.895   2.964   4.479  0.5569 -0.5183 -0.6400
   49MOL     C546181   5.845   3.092   4.413  0.3105  0.2921  0.5355
   49MOL     C646182   5.959   3.197   4.408  0.7189  0.6899 -0.1920
   49MOL     C746183   5.911   3.320   4.335 -0.0310  0.0787 -0.0473
   49MOL     C846184   5.792   3.389   4.405 -0.0056  0.0805  0.0105
   49MOL     C946185   5.767   3.528   4.358  0.2717 -0.3203  0.1344
   49MOL    C1046186   5.633   3.587   4.404  0.0575 -0.5672 -0.3651
   49MOL    C1146187   5.599   3.716   4.320 -0.6320 -0.1485  0.1567
   49MOL    O1246188   5.673   3.829   4.357 -0.0750 -0.2262  0.2647
   49MOL    C1346189   5.625   3.951   4.338  0.2832  0.3668 -0.0563
   49MOL    O1446190   5.522   3.974   4.274 -0.2616 -0.4331  0.1273
   49MOL    C1546191   5.695   4.067   4.411  0.0687  0.1365  0.0807
   49MOL    C1646192   5.852   4.053   4.416  0.3303 -0.0985  0.4009
   49MOL    C1746193   5.938   4.022   4.287  0.1076 -0.2473 -0.0605
   49MOL    C1846194   6.064   3.941   4.332  0.3056  0.2875  0.1647
   49MOL    C1946195   6.202   4.016   4.309  0.5128  0.1727  0.3482
   49MOL    O2046196   6.269   4.057   4.402 -0.1306  0.0040  0.0586
   49MOL    H2146197   5.620   2.966   4.488  3.7477  0.5609 -2.6397
   49MOL    H2246198   5.667   2.879   4.642 -0.6999 -4.6002  0.2161
   49MOL    H2346199   5.782   2.821   4.375  0.7135 -1.9063  1.1250
   49MOL    H2446200   5.836   2.752   4.525  2.8957  1.9541  1.1825
   49MOL    H2546201   5.927   2.986   4.581  0.7506 -0.1078 -0.7909
   49MOL    H2646202   5.987   2.944   4.425  0.8119 -2.6796  0.5422
   49MOL    H2746203   5.754   3.135   4.453  0.9363  1.4110  0.7953
   49MOL    H2846204   5.811   3.063   4.314 -0.1921 -0.0844  0.8171
   49MOL    H2946205   6.052   3.176   4.354 -1.5849  1.7323 -4.8109
   49MOL    H3046206   5.990   3.228   4.508  0.7754 -2.5042  0.8509
   49MOL    H3146207   5.884   3.296   4.232  0.7084 -0.0795 -0.2041
   49MOL    H3246208   5.989   3.394   4.319  0.5658 -0.2006  1.4868
   49MOL    H3346209   5.809   3.385   4.512  0.1415 -0.0132 -0.0170
   49MOL    H3446210   5.701   3.330   4.393 -0.0763 -0.1158  1.4181
   49MOL    H3546211   5.762   3.529   4.249  0.6114 -0.2743  0.1199
   49MOL    H3646212   5.849   3.590   4.394 -0.2279 -0.2962  1.2489
   49MOL    H3746213   5.554   3.512   4.411  0.6147 -1.0482  1.0093
   49MOL    H3846214   5.643   3.617   4.508  1.5890 -0.2490 -0.5996
   49MOL    H3946215   5.491   3.729   4.321 -0.6126  0.0091  0.2476
   49MOL    H4046216   5.621   3.700   4.215  2.2152 -0.2194  0.7094
   49MOL    H4146217   5.680   4.152   4.344 -2.4059 -0.3124  0.0197
   49MOL    H4246218   5.651   4.093   4.507  0.5949 -0.5464  0.5145
   49MOL    H4346219   5.877   3.963   4.473 -1.9928 -0.5998  0.6656
   49MOL    H4446220   5.896   4.137   4.469  2.9879 -1.7027  0.8203
   49MOL    H4546221   5.959   4.105   4.219  1.3516 -1.3848 -1.0884
   49MOL    H4646222   5.869   3.955   4.237 -0.6006 -0.5576  1.3269
   49MOL    H4746223   6.058   3.857   4.264 -3.0767 -0.4993  1.3436
   49MOL    H4846224   6.053   3.900   4.432 -0.9097  0.0069 -0.0718
   49MOL    H4946225   5.486   2.799   4.544  0.4883 -2.0968  2.2996
   49MOL    O5046226   6.243   4.014   4.177 -0.8193 -0.0973  0.5419
   49MOL    C5146227   6.368   4.068   4.146 -0.6784 -0.3309 -0.4224
   49MOL    C5246228   6.370   4.114   4.000  0.3412  0.5197  0.7698
   49MOL    C5346229   6.359   3.988   3.917  0.0534  0.6225  0.3885
   49MOL    C5446230   6.378   4.018   3.768  1.1910 -0.3237 -0.5601
   49MOL    C5546231   6.506   4.088   3.721  0.5195 -0.1777  0.3181
   49MOL    C5646232   6.535   4.083   3.569 -0.5280  0.2105 -0.0100
   49MOL    C5746233   6.669   4.160   3.534 -0.2236  0.3894  0.1396
   49MOL    C5846234   6.711   4.161   3.387  0.4097  0.5232 -0.3775
   49MOL    C5946235   6.842   4.239   3.358 -0.4124  0.3835  0.8084
   49MOL    C6046236   6.839   4.401   3.386  0.4279  0.2471  0.0391
   49MOL    O6146237   6.764   4.463   3.283 -0.6288  0.4532 -0.2449
   49MOL    C6246238   6.653   4.531   3.305  0.2872  0.4316  0.6055
   49MOL    O6346239   6.621   4.566   3.416  0.5411 -0.1677 -0.1940
   49MOL    C6446240   6.578   4.566   3.175  0.6972  0.7593  0.1105
   49MOL    C6546241   6.494   4.450   3.112  0.0145  1.1034  0.0504
   49MOL    C6646242   6.371   4.422   3.201 -0.5989  0.0123 -0.9745
   49MOL    C6746243   6.269   4.326   3.148  0.5283 -0.0028 -0.6068
   49MOL    C6846244   6.330   4.194   3.098 -0.6110 -0.1338 -0.5392
   49MOL    O6946245   6.368   4.181   2.980  0.2930  0.1967  0.1558
   49MOL    H7046246   6.384   4.162   4.198  0.4569 -0.3183 -0.7874
   49MOL    H7146247   6.450   3.997   4.157  0.0203 -0.2424 -4.3532
   49MOL    H7246248   6.458   4.175   3.979  0.3610 -0.2901 -1.6014
   49MOL    H7346249   6.298   4.193   3.983 -0.3475  0.1245  1.7825
   49MOL    H7446250   6.440   3.919   3.940 -0.3762 -0.5020 -1.4031
   49MOL    H7546251   6.261   3.944   3.931 -0.6262 -0.1096 -5.3485
   49MOL    H7646252   6.286   4.054   3.722  0.0478 -1.2457  0.9801
   49MOL    H7746253   6.375   3.913   3.739  1.5825 -1.1944  2.4738
   49MOL    H7846254   6.588   4.037   3.772  0.5709 -1.6484 -1.1871
   49MOL    H7946255   6.500   4.195   3.739 -1.7401 -0.2832  0.3121
   49MOL    H8046256   6.455   4.139   3.520 -0.8685  1.2572  1.7240
   49MOL    H8146257   6.543   3.988   3.517 -1.0441  1.0022 -1.5797
   49MOL    H8246258   6.760   4.119   3.579 -0.9047 -0.1459  1.0514
   49MOL    H8346259   6.658   4.255   3.585  2.6698  1.4273 -1.0668
   49MOL    H8446260   6.643   4.208   3.316 -0.5320 -0.8928 -0.4372
   49MOL    H8546261   6.733   4.063   3.347  2.1598  0.6034  0.3591
   49MOL    H8646262   6.909   4.190   3.428 -0.9131 -1.7264 -0.1553
   49MOL    H8746263   6.885   4.228   3.258  3.2485 -0.7428  2.4542
   49MOL    H8846264   6.940   4.443   3.396  1.3279 -2.0273  0.8511
   49MOL    H8946265   6.782   4.416   3.478 -0.1622 -0.6323 -0.1792
   49MOL    H9046266   6.501   4.640   3.197 -0.5257 -0.3879 -0.2501
   49MOL    H9146267   6.649   4.599   3.100  1.2498 -0.8417 -0.0752
   49MOL    H9246268   6.555   4.362   3.092  0.6423  1.6797 -0.5763
   49MOL    H9346269   6.468   4.490   3.015  0.8826  1.1271 -0.1728
   49MOL    H9446270   6.317   4.512   3.231 -1.7037 -1.0973  0.4819
   49MOL    H9546271   6.411   4.382   3.294 -0.7010 -0.4436 -1.1271
   49MOL    H9646272   6.230   4.381   3.062 -1.1977  0.5975  0.5443
   49MOL    H9746273   6.187   4.304   3.216  0.2027  2.0668 -0.3237
   49MOL    O9846274   6.352   4.105   3.190 -0.3700 -0.0379  0.7925
   49MOL    C9946275   6.411   3.978   3.157 -0.4159  1.3519  0.1032
   49MOL   C10046276   6.342   3.863   3.234 -0.8579 -0.2069 -0.5937
   49MOL   C10146277   6.435   3.745   3.261 -0.2300  0.8727 -0.0230
   49MOL   C10246278   6.474   3.663   3.131  0.4587 -0.0422 -0.3254
   49MOL   C10346279   6.567   3.552   3.161  0.4591  0.0522  0.0324
   49MOL   C10446280   6.611   3.466   3.041  0.1900 -0.5873 -0.3340
   49MOL   C10546281   6.514   3.364   2.985 -0.5435  0.7701  0.1096
   49MOL   C10646282   6.474   3.257   3.092  0.4229 -0.0118 -0.0340
   49MOL   C10746283   6.386   3.138   3.049 -0.3542  0.2112  0.7675
   49MOL   C10846284   6.357   3.030   3.154 -0.0498 -0.4399 -0.0155
   49MOL   O10946285   6.304   2.913   3.103  0.3893  0.4787 -0.0579
   49MOL   C11046286   6.310   2.806   3.178 -0.2353  0.2005  0.7895
   49MOL   O11146287   6.345   2.798   3.293  0.4533 -0.2757 -0.0213
   49MOL   C11246288   6.259   2.668   3.113 -0.7487 -0.2890  0.4109
   49MOL   C11346289   6.252   2.662   2.959  0.3806  0.1766  0.0769
   49MOL   C11446290   6.381   2.653   2.877 -0.3829 -0.8555  0.2769
   49MOL   C11546291   6.369   2.623   2.729  0.0539  0.4628  0.0376
   49MOL   C11646292   6.288   2.727   2.645 -0.4775  1.2533  0.0288
   49MOL   O11746293   6.244   2.834   2.687  0.1701  0.2033 -0.2458
   49MOL   H11846294   6.404   3.951   3.052 -0.3866 -0.4979  0.5666
   49MOL   H11946295   6.517   3.979   3.184 -0.4853 -0.0747  0.4599
   49MOL   H12046296   6.245   3.848   3.186 -1.0214 -3.1769  0.5758
   49MOL   H12146297   6.319   3.898   3.334  2.2333 -1.2404  0.5299
   49MOL   H12246298   6.525   3.776   3.314 -0.1085 -1.1900  1.0076
   49MOL   H12346299   6.389   3.689   3.342  0.2934  2.3837  1.3565
   49MOL   H12446300   6.521   3.726   3.056 -0.4766  1.0637 -0.0080
   49MOL   H12546301   6.389   3.618   3.080 -1.0809  1.5209  0.8265
   49MOL   H12646302   6.534   3.475   3.232 -1.1874  0.3106 -0.4439
   49MOL   H12746303   6.654   3.597   3.208 -0.7586  1.7447  0.6954
   49MOL   H12846304   6.702   3.410   3.062 -0.6750 -1.7028  0.5290
   49MOL   H12946305   6.639   3.533   2.960 -0.7457  0.4479  0.1801
   49MOL   H13046306   6.549   3.307   2.899  0.3302  3.1760 -1.1777
   49MOL   H13146307   6.420   3.403   2.945 -1.2744  0.5154  1.5542
   49MOL   H13246308   6.417   3.299   3.175  1.4183 -0.2940  0.8075
   49MOL   H13346309   6.560   3.215   3.144 -0.2413 -2.9073 -1.2247
   49MOL   H13446310   6.288   3.177   3.020  1.0527  1.7264 -2.0727
   49MOL   H13546311   6.433   3.087   2.965 -0.0757 -0.1873  1.1667
   49MOL   H13646312   6.277   3.067   3.218  1.1716  2.7118 -0.2491
   49MOL   H13746313   6.446   3.012   3.215 -0.5885 -0.3739  0.8026
   49MOL   H13846314   6.313   2.588   3.162  1.3829 -0.8322 -2.6284
   49MOL   H13946315   6.159   2.661   3.156 -0.8331 -0.9432  0.1178
   49MOL   H14046316   6.206   2.751   2.916  1.8119  0.2194 -1.4297
   49MOL   H14146317   6.200   2.571   2.930 -1.8706  0.2373  3.5933
   49MOL   H14246318   6.441   2.571   2.917 -3.1420 -1.2345  3.8905
   49MOL   H14346319   6.432   2.749   2.888  3.4951 -2.8932  0.8459
   49MOL   H14446320   6.326   2.524   2.715  0.8051  0.0646  0.5708
   49MOL   H14546321   6.470   2.619   2.690 -0.6886  0.5514 -2.0123
   49MOL   O14646322   6.258   2.681   2.522 -0.4709 -0.7927  0.2927
   49MOL   C14746323   6.185   2.754   2.425  0.1560 -0.1158  0.1938
   49MOL   C14846324   6.283   2.821   2.332 -0.6609 -0.2740 -0.0217
   49MOL   C14946325   6.213   2.908   2.229 -0.0966  1.0861 -0.2224
   49MOL   C15046326   6.145   3.042   2.270  0.1922  0.1346  0.0858
   49MOL   C15146327   6.111   3.137   2.152  0.4866 -0.2196  0.6492
   49MOL   C15246328   6.037   3.263   2.199  0.0043 -0.5755 -0.4014
   49MOL   C15346329   5.991   3.352   2.078 -0.5215  0.3191 -0.8117
   49MOL   C15446330   5.930   3.482   2.126 -0.7963  0.2181  0.4676
   49MOL   C15546331   5.910   3.572   1.999 -0.5064 -0.0501 -0.4250
   49MOL   C15646332   5.839   3.696   2.054 -0.1467  0.4554 -0.0848
   49MOL   O15746333   5.833   3.799   1.954  0.0139 -0.3227 -0.2447
   49MOL   C15846334   5.809   3.925   1.993  0.4558  0.8421 -0.3472
   49MOL   O15946335   5.823   3.963   2.110 -0.0112 -0.0837 -0.2583
   49MOL   C16046336   5.758   4.017   1.874 -0.9141 -0.0862 -0.3260
   49MOL   C16146337   5.644   3.952   1.793 -0.0120 -0.3646 -0.9712
   49MOL   C16246338   5.695   3.879   1.664  0.6562 -0.1728  0.2012
   49MOL   C16346339   5.607   3.749   1.651 -0.8275 -0.4385  0.2841
   49MOL   C16446340   5.597   3.681   1.514  0.7115 -0.0015  0.3753
   49MOL   O16546341   5.490   3.681   1.452 -0.0385  0.5647  0.7453
   49MOL   H16646342   6.131   2.683   2.363  1.6328 -0.5540 -0.6151
   49MOL   H16746343   6.116   2.830   2.463 -0.3323  0.4969 -1.8914
   49MOL   H16846344   6.350   2.747   2.288  1.1536  0.1756  1.8835
   49MOL   H16946345   6.344   2.896   2.382 -0.4792 -0.3136 -0.1825
   49MOL   H17046346   6.280   2.916   2.143  1.7599  0.2180  1.1087
   49MOL   H17146347   6.145   2.835   2.184 -1.0228  0.1683  2.5512
   49MOL   H17246348   6.211   3.092   2.342  1.7235 -1.4261 -0.1902
   49MOL   H17346349   6.057   3.025   2.332 -1.7337  2.3603 -1.9215
   49MOL   H17446350   6.064   3.081   2.072  0.7622  1.9024 -1.0395
   49MOL   H17546351   6.206   3.167   2.108 -0.2091  0.2249 -0.5465
   49MOL   H17646352   6.100   3.321   2.267 -1.2549  1.2385 -0.7485
   49MOL   H17746353   5.948   3.237   2.257  0.3487 -1.6465 -0.3471
   49MOL   H17846354   5.927   3.294   2.011  1.6397 -2.5182 -0.5397
   49MOL   H17946355   6.084   3.374   2.024 -1.6127 -0.8563 -3.2508
   49MOL   H18046356   5.993   3.528   2.202  1.8257 -0.7906 -1.0590
   49MOL   H18146357   5.836   3.450   2.171 -1.5825  1.0718 -0.5378
   49MOL   H18246358   6.006   3.598   1.955 -0.7950  1.3225 -0.2544
   49MOL   H18346359   5.850   3.513   1.930 -0.1108 -1.7541  0.6683
   49MOL   H18446360   5.903   3.737   2.131 -0.1775 -0.9199  0.6925
   49MOL   H18546361   5.738   3.677   2.090  0.0499  0.5444  0.5100
   49MOL   H18646362   5.709   4.101   1.923  2.0648  1.4964  0.0938
   49MOL   H18746363   5.842   4.059   1.819 -0.2325 -0.2764  0.5445
   49MOL   H18846364   5.579   4.032   1.757  0.0510  0.2580  0.2727
   49MOL   H18946365   5.588   3.879   1.850 -0.5970 -0.6704 -1.9207
   49MOL   H19046366   5.796   3.841   1.674 -0.3671 -2.4630  2.4396
   49MOL   H19146367   5.677   3.935   1.573  1.9031 -0.0649  0.0265
   49MOL   H19246368   5.505   3.762   1.686 -0.5231  1.7058  0.4829
   49MOL   H19346369   5.663   3.680   1.713 -1.1979 -0.5156  0.5329
   49MOL   O19446370   5.712   3.626   1.476 -0.0607  0.5465  0.1740
   49MOL   C19546371   5.713   3.579   1.340 -0.1045  0.1737  0.4718
   49MOL   C19646372   5.844   3.521   1.293 -0.8086 -0.4117  0.0843
   49MOL   C19746373   5.827   3.457   1.148 -0.7833 -0.4626  0.0766
   49MOL   C19846374   5.958   3.417   1.091 -0.1827  0.4831  0.1184
   49MOL   C19946375   5.943   3.327   0.971 -0.6158  0.9031 -0.0145
   49MOL   C20046376   6.076   3.286   0.912 -0.0289 -0.2262 -0.1136
   49MOL   C20146377   6.064   3.226   0.766 -0.2231 -0.1073 -0.1075
   49MOL   C20246378   5.983   3.095   0.753  0.2113  0.4225  0.4347
   49MOL   C20346379   5.976   3.051   0.607  0.9607 -0.1053 -0.3048
   49MOL   C20446380   5.930   2.906   0.602  0.6204  0.4623 -0.2826
   49MOL   O20546381   5.925   2.866   0.466 -0.2760 -0.4066 -0.3104
   49MOL   C20646382   5.919   2.738   0.428  0.1558 -0.7612  0.3808
   49MOL   O20746383   5.920   2.642   0.509  0.0696 -0.0911 -0.6933
   49MOL   C20846384   5.930   2.716   0.280 -0.0559 -0.0237  0.3666
   49MOL   C20946385   6.019   2.817   0.204  0.7172 -0.2208  0.1686
   49MOL   C21046386   5.951   2.953   0.163 -1.0341  0.3043  0.3367
   49MOL   C21146387   6.033   3.047   0.079 -0.1741  0.5280  0.0526
   49MOL   C21246388   5.955   3.168   0.038 -0.3259  0.1201 -0.2977
   49MOL   O21346389   5.941   3.206   7.683  0.3196  0.8563 -0.1148
   49MOL   H21446390   5.644   3.495   1.329  0.9240 -0.5283 -0.8072
   49MOL   H21546391   5.700   3.655   1.264  1.8550  0.6765  0.5914
   49MOL   H21646392   5.867   3.443   1.366 -1.2040  1.2181  1.9721
   49MOL   H21746393   5.921   3.598   1.292 -1.6914  0.4816  0.9936
   49MOL   H21846394   5.762   3.370   1.159  0.8447 -1.6621  0.5354
   49MOL   H21946395   5.789   3.529   1.076  0.8182  0.6954  0.3537
   49MOL   H22046396   6.021   3.371   1.167 -0.9926 -2.8051 -1.1231
   49MOL   H22146397   6.023   3.501   1.065  1.8898 -1.4122 -1.0134
   49MOL   H22246398   5.878   3.373   0.896  0.5092  1.3835 -0.7123
   49MOL   H22346399   5.892   3.233   0.994  0.4595  0.2982 -0.0873
   49MOL   H22446400   6.123   3.218   0.983  0.4362 -0.6150 -0.7907
   49MOL   H22546401   6.149   3.366   0.927 -0.4261 -0.5518  4.1529
   49MOL   H22646402   6.167   3.207   0.735 -0.5241 -0.6944 -0.7677
   49MOL   H22746403   6.034   3.307   0.701  0.9126 -1.2635 -2.1289
   49MOL   H22846404   5.884   3.100   0.798 -0.5937 -2.5274 -0.9027
   49MOL   H22946405   6.032   3.023   0.818  1.1976  1.0055  0.3499
   49MOL   H23046406   5.911   3.115   0.547 -1.2927 -1.8711  0.1923
   49MOL   H23146407   6.074   3.058   0.560  0.6551  0.8598 -0.8121
   49MOL   H23246408   5.838   2.886   0.657  0.4950  0.6518 -0.4194
   49MOL   H23346409   5.998   2.842   0.657 -0.4899  1.2550  2.0494
   49MOL   H23446410   5.981   2.620   0.274  0.8163  0.4249  0.5384
   49MOL   H23546411   5.839   2.698   0.223  1.5343  0.5865 -2.4653
   49MOL   H23646412   6.056   2.761   0.118  2.0624  1.6361 -0.5030
   49MOL   H23746413   6.111   2.827   0.262 -0.1349 -0.2218  1.5289
   49MOL   H23846414   5.919   3.004   0.255  0.6636 -0.7619  1.5394
   49MOL   H23946415   5.867   2.917   0.104 -1.0316  1.3399 -0.3069
   49MOL   H24046416   6.075   2.986   7.763  0.7205  2.5229 -1.0079
   49MOL   H24146417   6.123   3.071   0.135  0.6758  0.4046 -1.2368
   49MOL   O24246418   5.895   3.234   0.142 -0.0929 -0.3720 -0.2042
   49MOL   C24346419   5.801   3.336   0.110  0.0044 -0.5938  0.3290
   49MOL   C24446420   5.704   3.350   0.232 -0.2378 -0.2184  0.0479
   49MOL   C24546421   5.777   3.421   0.351 -0.6990  0.1195 -0.3443
   49MOL   C24646422   5.684   3.481   0.461  0.2236  0.4325 -0.1153
   49MOL   C24746423   5.766   3.561   0.562 -0.0960 -0.4186 -0.1874
   49MOL   C24846424   5.685   3.632   0.671 -0.0135  0.0311  0.2887
   49MOL   C24946425   5.773   3.646   0.792  0.2380  0.6056  0.2395
   49MOL   C25046426   5.866   3.769   0.774  0.2849  0.4137  0.5331
   49MOL   C25146427   5.939   3.819   0.898  0.2147  0.6872 -0.7412
   49MOL   C25246428   6.010   3.946   0.878 -0.0970 -0.6172  0.6842
   49MOL   O25346429   6.111   3.961   0.981 -0.2197 -0.0733  0.0074
   49MOL   C25446430   6.138   4.080   1.025  0.3035  0.3946  0.4506
   49MOL   O25546431   6.077   4.191   1.011  0.0810  0.0826  0.1474
   49MOL   C25646432   6.266   4.077   1.116 -0.3512  0.8812 -0.2321
   49MOL   C25746433   6.366   4.175   1.064  0.0325  0.5056 -0.1510
   49MOL   C25846434   6.434   4.151   0.930 -0.1851  1.2673  0.0731
   49MOL   C25946435   6.535   4.267   0.901 -0.1495  0.0408 -0.1552
   49MOL   C26046436   6.575   4.296   0.756 -0.0118  0.5138 -1.2629
   49MOL   O26146437   6.686   4.272   0.711  0.0776  0.2007  0.3147
   49MOL   H26246438   5.849   3.432   0.088 -1.2022 -0.0881 -0.1442
   49MOL   H26346439   5.755   3.320   0.013 -1.0422  0.7594  0.5832
   49MOL   H26446440   5.660   3.254   0.260 -0.4176 -0.4962 -1.1301
   49MOL   H26546441   5.617   3.412   0.209 -0.8291 -1.3687 -0.9004
   49MOL   H26646442   5.840   3.340   0.388  1.5041  0.5371 -3.1087
   49MOL   H26746443   5.840   3.498   0.307 -1.7920  0.7192 -0.8942
   49MOL   H26846444   5.637   3.396   0.510  1.5123  0.4858  1.2489
   49MOL   H26946445   5.604   3.543   0.420  0.3093  1.7873  1.6938
   49MOL   H27046446   5.826   3.639   0.514 -1.4839 -0.6449 -2.3778
   49MOL   H27146447   5.838   3.492   0.604 -0.7691 -0.6578  0.5750
   49MOL   H27246448   5.612   3.558   0.704 -0.4031 -0.0975 -0.8443
   49MOL   H27346449   5.627   3.717   0.634  0.3510 -0.0498 -0.4728
   49MOL   H27446450   5.827   3.552   0.799 -1.0096 -0.3250 -2.0558
   49MOL   H27546451   5.708   3.651   0.879  1.1486 -2.0915  1.1087
   49MOL   H27646452   5.808   3.855   0.739  1.5068  1.1097  0.2029
   49MOL   H27746453   5.920   3.752   0.681 -1.4788 -0.4272 -0.3625
   49MOL   H27846454   5.884   3.829   0.991 -1.2784  1.5807 -1.6840
   49MOL   H27946455   6.014   3.742   0.915  0.5387  1.1826  0.0479
   49MOL   H28046456   5.947   4.035   0.880  0.9390  0.2238 -1.5527
   49MOL   H28146457   6.055   3.935   0.779  0.9110 -1.1250  1.1897
   49MOL   H28246458   6.245   4.096   1.222  1.2191  2.3178 -0.1584
   49MOL   H28346459   6.310   3.978   1.106 -2.0589  0.0555  0.1156
   49MOL   H28446460   6.451   4.184   1.131  0.0519  0.9513 -0.2374
   49MOL   H28546461   6.327   4.276   1.055  0.7434  0.8393  0.5340
   49MOL   H28646462   6.350   4.151   0.860  0.9354  1.2084 -1.3057
   49MOL   H28746463   6.488   4.056   0.924  0.2900  1.4611  1.1659
   49MOL   H28846464   6.627   4.242   0.954  1.4133  0.9717 -2.3348
   49MOL   H28946465   6.493   4.363   0.933 -1.9739 -1.0524  0.7575
   49MOL   O29046466   6.466   4.337   0.688 -0.3443  0.0825  0.5124
   49MOL   C29146467   6.472   4.377   0.552 -0.8006 -0.2139 -0.2631
   49MOL   C29246468   6.473   4.527   0.548 -0.5903  0.3741 -0.4100
   49MOL   C29346469   6.457   4.598   0.411 -0.0221 -0.3331 -0.3636
   49MOL   C29446470   6.441   4.747   0.434  0.7206 -0.1905 -0.8297
   49MOL   C29546471   6.312   4.801   0.365  0.2680 -0.1567  0.1745
   49MOL   C29646472   6.303   4.957   0.346 -0.6043 -0.3924  0.1347
   49MOL   C29746473   6.408   5.016   0.249 -0.3282 -0.1979 -0.5651
   49MOL   C29846474   6.389   5.168   0.233 -0.3185 -0.2450 -0.2370
   49MOL   C29946475   6.492   5.230   0.138 -0.5042 -0.9812  0.3633
   49MOL   C30046476   6.468   5.385   0.102 -0.4200  0.3059  0.0789
   49MOL   O30146477   6.481   5.464   0.221 -0.0812  0.0576 -0.7790
   49MOL   C30246478   6.494   5.595   0.218 -0.3663 -0.2398  0.1288
   49MOL   O30346479   6.480   5.662   0.117 -0.2676  0.3608 -0.3648
   49MOL   C30446480   6.543   5.654   0.350 -0.7494  1.3049  0.0213
   49MOL   C30546481   6.474   5.616   0.478 -0.0140 -0.3638  0.0360
   49MOL   C30646482   6.518   5.481   0.540 -1.0352 -0.2190 -0.1061
   49MOL   C30746483   6.455   5.455   0.677 -0.2696  0.3189  0.0807
   49MOL   C30846484   6.308   5.412   0.685  0.1792  0.5797 -0.5668
   49MOL   O30946485   6.227   5.464   0.760  0.1352  0.5017 -0.1223
   49MOL   H31046486   6.558   4.340   0.497 -1.2658  1.0334 -1.8829
   49MOL   H31146487   6.382   4.337   0.506 -0.8622 -0.0849 -0.2541
   49MOL   H31246488   6.561   4.562   0.602 -0.7477 -1.4259  1.0685
   49MOL   H31346489   6.382   4.536   0.608  1.4239 -1.4271  3.0887
   49MOL   H31446490   6.541   4.586   0.343  2.3535  3.1266  1.7624
   49MOL   H31546491   6.378   4.541   0.361 -0.5527  0.2030 -0.1535
   49MOL   H31646492   6.528   4.798   0.395  0.5059  0.7858 -0.0735
   49MOL   H31746493   6.434   4.780   0.538  2.4043  0.3747 -0.8942
   49MOL   H31846494   6.229   4.765   0.425  1.2790 -2.4367  0.2466
   49MOL   H31946495   6.298   4.763   0.263 -0.7500 -2.8793  1.2765
   49MOL   H32046496   6.298   5.009   0.442 -0.6338  0.6163 -0.4072
   49MOL   H32146497   6.215   4.982   0.287  0.7211 -0.3613 -1.8697
   49MOL   H32246498   6.402   4.958   0.157 -0.0969 -3.6643  1.5210
   49MOL   H32346499   6.506   4.996   0.291  0.6204  1.8491 -1.7602
   49MOL   H32446500   6.401   5.218   0.329 -1.3479 -0.8257  0.2087
   49MOL   H32546501   6.290   5.174   0.188  0.3076 -3.1724 -2.1420
   49MOL   H32646502   6.582   5.231   0.199 -0.9480  0.6066  1.0195
   49MOL   H32746503   6.516   5.176   0.046  1.2354 -0.0103  0.2153
   49MOL   H32846504   6.370   5.397   0.056 -0.4993 -0.6239 -0.0000
   49MOL   H32946505   6.536   5.430   0.030 -0.8530  0.1411 -0.4311
   49MOL   H33046506   6.651   5.637   0.355 -1.3561 -2.5752  1.6607
   49MOL   H33146507   6.525   5.761   0.336 -2.0880  1.7583  4.4542
   49MOL   H33246508   6.366   5.621   0.465  0.0015 -0.8867 -0.3260
   49MOL   H33346509   6.492   5.694   0.552  0.9219 -0.3143 -0.2405
   49MOL   H33446510   6.625   5.492   0.562 -1.0053  0.8730 -0.7647
   49MOL   H33546511   6.500   5.393   0.479  0.6751  0.2019 -1.2539
   49MOL   H33646512   6.437   5.544   0.737  1.9626  1.7519 -1.3126
   49MOL   H33746513   6.512   5.382   0.735 -0.1002  2.1172  2.2445
   49MOL   O33846514   6.271   5.326   0.594 -0.0571  0.3765  0.3158
   49MOL   C33946515   6.150   5.262   0.588 -0.2463 -0.5512  0.5791
   49MOL   C34046516   6.087   5.269   0.452  0.4458  0.5051 -0.5729
   49MOL   C34146517   5.971   5.168   0.444  0.1268  0.5147 -0.5220
   49MOL   C34246518   5.928   5.144   0.302  0.6651 -0.1771 -0.1891
   49MOL   C34346519   5.821   5.028   0.294  0.0799  0.7416 -0.0863
   49MOL   C34446520   5.793   4.999   0.147 -0.2430 -0.6152  0.2438
   49MOL   C34546521   5.709   4.874   0.130  0.3323  0.0082 -0.1481
   49MOL   C34646522   5.672   4.835   7.749  0.4865 -0.3214 -0.0627
   49MOL   C34746523   5.575   4.715   7.746 -0.9184  0.0918  0.0445
   49MOL   C34846524   5.501   4.699   7.614 -0.3043  0.2496 -0.3858
   49MOL   O34946525   5.384   4.783   7.594  0.6740  0.5766 -0.4043
   49MOL   C35046526   5.298   4.767   7.489 -0.4431  0.8367  0.6035
   49MOL   O35146527   5.308   4.695   7.389  0.0573 -0.8854  0.1275
   49MOL   C35246528   5.172   4.854   7.508 -0.1611 -0.3797 -0.3311
   49MOL   C35346529   5.091   4.892   7.386  0.1639 -0.6686 -0.4925
   49MOL   C35446530   5.157   4.987   7.282 -0.0549  0.5219 -0.3204
   49MOL   C35546531   5.060   5.018   7.168  0.5611 -0.6080  0.2543
   49MOL   C35646532   4.987   5.152   7.179 -0.4988  0.1105  0.0892
   49MOL   O35746533   4.979   5.217   7.280 -0.1968  0.0513 -0.0918
   49MOL   H35846534   6.178   5.157   0.597 -1.4249 -0.9141  0.1252
   49MOL   H35946535   6.087   5.276   0.675 -1.7503 -1.2431 -0.3752
   49MOL   H36046536   6.166   5.239   0.383  0.9361  2.0749 -0.7225
   49MOL   H36146537   6.054   5.370   0.426  0.8874  0.3371 -1.8011
   49MOL   H36246538   5.998   5.072   0.486 -1.2191  0.2357 -0.2632
   49MOL   H36346539   5.886   5.186   0.510  0.1745 -0.1517 -0.2763
   49MOL   H36446540   6.011   5.110   0.240  0.0006  2.1452 -2.4540
   49MOL   H36546541   5.884   5.226   0.244  3.4351  0.9177 -0.8017
   49MOL   H36646542   5.739   5.043   0.364  0.4666  0.6733  0.3890
   49MOL   H36746543   5.870   4.935   0.320  0.1360  0.0174 -2.6555
   49MOL   H36846544   5.891   4.984   0.102  0.3756 -0.6947  1.5779
   49MOL   H36946545   5.741   5.086   0.107  0.9271  1.2810  2.7012
   49MOL   H37046546   5.620   4.867   0.194 -0.2266  0.2770 -0.8854
   49MOL   H37146547   5.772   4.793   0.165 -0.2829  0.1647  1.3898
   49MOL   H37246548   5.760   4.810   7.691  0.9627  1.5229 -0.1641
   49MOL   H37346549   5.626   4.916   7.693  0.6285 -0.8560 -0.9578
   49MOL   H37446550   5.639   4.631   0.009  0.0449  0.2102 -1.7388
   49MOL   H37546551   5.497   4.721   0.057  0.3021 -0.4376  1.3656
   49MOL   H37646552   5.464   4.597   7.613  0.1819  0.0773 -0.6003
   49MOL   H37746553   5.574   4.714   7.535  0.7291 -3.0571 -0.0922
   49MOL   H37846554   5.112   4.807   7.586 -1.5054  1.0541 -0.4825
   49MOL   H37946555   5.204   4.952   7.542  2.7256 -1.8995  1.5069
   49MOL   H38046556   4.998   4.941   7.416  1.2777  0.7439  0.7003
   49MOL   H38146557   5.052   4.799   7.344 -0.2329 -0.1011 -1.3935
   49MOL   H38246558   5.248   4.936   7.251 -0.2882  0.7678 -1.4480
   49MOL   H38346559   5.196   5.078   7.327  0.3059  1.7996 -3.0957
   49MOL   H38446560   4.990   4.939   7.143  0.2030 -0.5044  0.9115
   49MOL   H38546561   5.112   5.043   7.075  0.1465 -2.6749 -0.5522
   49MOL   O38646562   4.940   5.193   7.062 -0.1172  0.3074 -0.3313
   49MOL   C38746563   4.862   5.308   7.049 -0.2932  0.0675 -0.5366
   49MOL   C38846564   4.816   5.326   6.908 -0.0509  0.5292 -0.1908
   49MOL   C38946565   4.699   5.420   6.899  0.1552  0.4126  0.4888
   49MOL   C39046566   4.673   5.461   6.759 -0.8504  0.1385 -0.0810
   49MOL   C39146567   4.540   5.543   6.731  0.1820  0.1324  0.0101
   49MOL   C39246568   4.539   5.621   6.599 -0.1539 -0.3956  0.9009
   49MOL   C39346569   4.562   5.521   6.483  0.2191 -0.1633  0.4622
   49MOL   C39446570   4.561   5.587   6.347 -0.0254 -0.3509 -0.1926
   49MOL   C39546571   4.689   5.666   6.316 -0.0311 -0.1350  0.0730
   49MOL   C39646572   4.670   5.759   6.194  0.3198 -0.4630  0.4093
   49MOL   O39746573   4.602   5.873   6.230  0.5524 -0.3507 -0.0152
   49MOL   C39846574   4.632   5.992   6.189 -0.4554 -0.1432 -1.4571
   49MOL   O39946575   4.731   6.027   6.121  0.1311 -0.0405 -0.0349
   49MOL   C40046576   4.525   6.095   6.219  0.3449 -0.3728  0.1386
   49MOL   C40146577   4.437   6.127   6.105  0.0009  0.2801 -0.3024
   49MOL   C40246578   4.485   6.229   6.000  0.6321  0.3322  0.2610
   49MOL   C40346579   4.368   6.247   5.902 -0.4340 -0.4722  0.0073
   49MOL   C40446580   4.410   6.273   5.759  0.2517  0.6297 -0.1698
   49MOL   O40546581   4.487   6.194   5.704  0.3321 -0.3105  0.5875
   49MOL   H40646582   4.771   5.301   7.108  0.3901  0.7545  0.6217
   49MOL   H40746583   4.910   5.398   7.086  1.0835 -0.9815  0.2981
   49MOL   H40846584   4.785   5.230   6.868 -1.3200  1.0989 -0.5942
   49MOL   H40946585   4.901   5.366   6.852  1.9716 -1.4008  1.4333
   49MOL   H41046586   4.610   5.368   6.934 -1.4668  1.3535 -2.0688
   49MOL   H41146587   4.711   5.511   6.957  0.8882 -0.2470  1.3797
   49MOL   H41246588   4.650   5.370   6.705 -1.2043  0.6995 -0.8791
   49MOL   H41346589   4.764   5.499   6.712 -1.2777  1.9466  0.4903
   49MOL   H41446590   4.535   5.619   6.808  2.2560  1.1014 -0.7719
   49MOL   H41546591   4.454   5.476   6.733  0.3789 -0.0997  2.5375
   49MOL   H41646592   4.620   5.694   6.602 -0.8423  0.4534 -0.3960
   49MOL   H41746593   4.440   5.666   6.590 -0.2576 -0.4647  1.7104
   49MOL   H41846594   4.491   5.438   6.494  0.8789 -0.5948  1.6824
   49MOL   H41946595   4.656   5.466   6.491  0.7887  0.9635  1.9436
   49MOL   H42046596   4.471   5.648   6.335 -0.3339 -0.7064  0.2912
   49MOL   H42146597   4.557   5.504   6.277  0.2841 -1.6487  1.3205
   49MOL   H42246598   4.725   5.732   6.395  2.7248 -0.3684 -0.9253
   49MOL   H42346599   4.772   5.595   6.311  0.5107  0.4609  0.4900
   49MOL   H42446600   4.641   5.698   6.108  1.8805 -0.2926 -0.2684
   49MOL   H42546601   4.770   5.798   6.177 -0.5891  1.6710 -0.2018
   49MOL   H42646602   4.469   6.058   6.303 -0.4216 -1.8491 -1.0087
   49MOL   H42746603   4.570   6.188   6.254  0.6741 -0.5919  0.3001
   49MOL   H42846604   4.343   6.153   6.155  0.0293 -1.5154  0.7094
   49MOL   H42946605   4.411   6.032   6.060  1.3057  1.0111 -2.6534
   49MOL   H43046606   4.574   6.178   5.964 -0.3059 -0.0395 -1.6180
   49MOL   H43146607   4.524   6.326   6.031  0.4975  0.8749 -1.2327
   49MOL   H43246608   4.288   6.312   5.936 -1.2511 -1.7900  0.6555
   49MOL   H43346609   4.317   6.151   5.907  0.0090 -0.6606  1.0713
   49MOL   O43446610   4.357   6.379   5.711 -0.1181  0.6278  0.1801
   49MOL   C43546611   4.418   6.452   5.607  0.2547 -0.0259 -0.5006
   49MOL   C43646612   4.488   6.580   5.670  0.3363  0.1755  0.6688
   49MOL   C43746613   4.566   6.659   5.561  0.1227 -0.3944 -0.5146
   49MOL   C43846614   4.605   6.799   5.611 -0.3838  0.9188  0.6730
   49MOL   C43946615   4.661   6.888   5.496 -0.2711  0.2893 -0.4474
   49MOL   C44046616   4.684   7.034   5.537  0.2529 -0.1174 -0.2100
   49MOL   C44146617   4.774   7.108   5.437  0.2377 -0.3988 -0.3353
   49MOL   C44246618   4.821   7.247   5.497  0.1933  0.4952  0.2128
   49MOL   C44346619   4.915   7.325   5.396  0.7880  0.0502  0.1859
   49MOL   C44446620   5.063   7.299   5.423 -0.6512 -0.0213  0.6242
   49MOL   O44546621   5.158   7.382   5.356 -0.2219 -0.6236  0.0289
   49MOL   C44646622   5.181   7.510   5.389 -0.0120  0.1227 -0.3202
   49MOL   O44746623   5.117   7.583   5.470 -0.0706 -0.1487 -0.0732
   49MOL   C44846624   5.300   7.568   5.305  0.4890 -0.2243  0.2808
   49MOL   C44946625   5.334   7.713   5.326  0.1483 -0.0965  0.7584
   49MOL   C45046626   5.463   7.754   5.244  1.0200 -0.4080  0.7673
   49MOL   C45146627   5.590   7.698   5.304  0.2237  0.7162 -0.2730
   49MOL   C45246628   5.620   7.549   5.278 -0.6063  0.2596  0.0958
   49MOL   O45346629   5.667   7.476   5.363  0.3011 -0.2517  0.1863
   49MOL   H45446630   4.490   6.395   5.549 -0.4988 -2.6316  1.0873
   49MOL   H45546631   4.331   6.485   5.550  0.5667 -1.0870 -1.6156
   49MOL   H45646632   4.556   6.556   5.751  0.7283  1.0003  0.5770
   49MOL   H45746633   4.406   6.646   5.697  0.7641  0.3121  1.6355
   49MOL   H45846634   4.662   6.607   5.557 -1.9192 -4.6402  2.0379
   49MOL   H45946635   4.521   6.674   5.463  0.1058 -0.6428 -0.5450
   49MOL   H46046636   4.683   6.788   5.686 -0.4401  0.3212  0.6500
   49MOL   H46146637   4.519   6.838   5.666  0.1571  1.6453  1.0110
   49MOL   H46246638   4.591   6.887   5.412  1.5186  1.2506 -1.9905
   49MOL   H46346639   4.756   6.847   5.463 -0.8914  0.0390 -1.9469
   49MOL   H46446640   4.745   7.039   5.628  1.7410 -1.8655 -1.0825
   49MOL   H46546641   4.588   7.085   5.541  0.0841 -0.4870  0.4349
   49MOL   H46646642   4.715   7.128   5.347 -2.7116 -1.8090  1.2127
   49MOL   H46746643   4.867   7.053   5.422  0.5777  0.4035 -1.2644
   49MOL   H46846644   4.867   7.250   5.596 -0.0710 -0.7929  0.3904
   49MOL   H46946645   4.729   7.306   5.492 -3.1254 -4.4535 -1.1858
   49MOL   H47046646   4.878   7.306   5.295  0.9710 -2.0946  0.4855
   49MOL   H47146647   4.898   7.430   5.418 -0.7132 -0.2874  0.6755
   49MOL   H47246648   5.083   7.194   5.400 -0.5383  0.1825 -0.2344
   49MOL   H47346649   5.066   7.313   5.531 -2.0720 -2.6316  1.0428
   49MOL   H47446650   5.381   7.499   5.324 -0.4283 -0.7934  2.2339
   49MOL   H47546651   5.256   7.562   5.205 -0.5619  0.0635  0.7133
   49MOL   H47646652   5.352   7.726   5.433  1.5681 -1.6104  0.7176
   49MOL   H47746653   5.242   0.004   5.305 -1.0241 -1.9586  0.8889
   49MOL   H47846654   5.473   0.096   5.264 -0.0611 -0.5382  2.0435
   49MOL   H47946655   5.455   7.726   5.139  1.8995  3.6090 -0.4381
   49MOL   H48046656   5.582   7.702   5.412 -1.8603  0.9150 -0.4090
   49MOL   H48146657   5.673   7.762   5.275  0.7508  0.3780  0.4646
   49MOL   O48246658   5.597   7.511   5.154 -0.4704 -0.0077  0.1468
   49MOL   C48346659   5.652   7.385   5.112  0.1371  0.1493  0.5592
   49MOL   C48446660   5.546   7.272   5.116  0.2195 -0.2254  0.0424
   49MOL   C48546661   5.450   7.275   4.990  0.6079  0.3073  0.4259
   49MOL   C48646662   5.348   7.380   5.000  0.2954  0.1297  1.3202
   49MOL   C48746663   5.260   7.378   4.877  0.5565  0.7330 -0.4561
   49MOL   C48846664   5.143   7.477   4.887  0.4534 -0.5250 -0.1106
   49MOL   C48946665   5.050   7.487   4.766 -0.0519 -0.2637 -0.4177
   49MOL   C49046666   5.108   7.558   4.645  0.3392  0.2099 -0.0971
   49MOL   C49146667   5.004   7.589   4.535  0.4091 -0.4733 -0.1124
   49MOL   C49246668   5.075   7.605   4.403 -0.3884 -0.0454  0.2444
   49MOL   O49346669   5.122   7.475   4.365  0.2704 -0.6652 -0.5803
   49MOL   C49446670   5.033   7.382   4.317 -0.1129  0.5934 -0.1385
   49MOL   O49546671   4.916   7.403   4.290 -0.3171  0.0368 -0.2947
   49MOL   C49646672   5.096   7.239   4.331 -0.0050 -0.1290  0.1402
   49MOL   C49746673   5.130   7.201   4.475  0.5956 -0.6316 -0.1655
   49MOL   C49846674   5.119   7.048   4.498 -0.1346 -0.7549  0.4041
   49MOL   C49946675   5.139   7.011   4.644  0.1559 -0.2921 -0.2244
   49MOL   C50046676   5.280   6.999   4.695  0.2861  0.3384 -0.7737
   49MOL   O50146677   5.305   6.947   4.804 -0.4367  0.4312 -0.1210
   49MOL   H50246678   5.680   7.402   5.008 -0.3096  2.0852  0.7196
   49MOL   H50346679   5.748   7.355   5.154  0.7889  1.8115  0.3220
   49MOL   H50446680   5.487   7.289   5.206 -0.9468  1.8357 -1.0658
   49MOL   H50546681   5.600   7.177   5.115  3.0483  1.3274 -0.3408
   49MOL   H50646682   5.508   7.284   4.898 -0.2290  0.1810 -0.1215
   49MOL   H50746683   5.411   7.173   4.993  2.6981 -0.5519  0.0169
   49MOL   H50846684   5.396   7.478   5.001  0.5647 -0.0014  1.2354
   49MOL   H50946685   5.298   7.375   5.096 -1.0302  0.3093  0.6616
   49MOL   H51046686   5.215   7.279   4.875  1.6886  0.1593  0.8832
   49MOL   H51146687   5.324   7.396   4.790  0.0052 -0.4803 -1.1183
   49MOL   H51246688   5.179   7.579   4.899 -0.2397  0.3718 -4.7057
   49MOL   H51346689   5.098   7.455   4.984 -0.8272  2.3606  0.0084
   49MOL   H51446690   4.961   7.545   4.789  0.5124  0.4127  0.0819
   49MOL   H51546691   5.007   7.389   4.748  3.3785 -1.8450 -0.4126
   49MOL   H51646692   5.183   7.489   4.606  0.3712  0.0946  0.1685
   49MOL   H51746693   5.166   7.645   4.674 -0.5894  1.1724 -1.0772
   49MOL   H51846694   4.928   7.512   4.524  1.3387 -1.5563  0.9275
   49MOL   H51946695   4.948   7.679   4.563  1.4988  0.2235 -0.1401
   49MOL   H52046696   5.155   7.678   4.414  0.4215 -0.6931 -1.1636
   49MOL   H52146697   5.007   7.631   4.322  0.8239  2.3636 -0.0350
   49MOL   H52246698   5.009   7.178   4.303  1.4854 -1.8218 -0.9245
   49MOL   H52346699   5.178   7.234   4.259 -3.1718  1.2046 -3.7566
   49MOL   H52446700   5.058   7.236   4.549  0.8646  1.0764 -0.7039
   49MOL   H52546701   5.233   7.226   4.503 -0.2224  2.7649  0.0159
   49MOL   H52646702   5.191   7.002   4.430  1.1046  1.0642  0.4651
   49MOL   H52746703   5.020   7.021   4.461  0.6678 -2.1932 -0.7417
   49MOL   H52846704   5.113   6.905   4.655  0.1584 -0.2162  0.5975
   49MOL   H52946705   5.077   7.067   4.713  1.9109 -0.0389  1.1917
   49MOL   O53046706   5.367   7.042   4.601  0.5061  0.6097  0.2967
   49MOL   C53146707   5.505   7.029   4.606  0.0084 -0.1521 -0.1196
   49MOL   C53246708   5.579   7.059   4.471 -0.2213 -0.3513  0.5258
   49MOL   C53346709   5.571   7.217   4.456  0.0403 -0.4808  0.5282
   49MOL   C53446710   5.596   7.260   4.305 -0.3310 -0.2074 -0.7539
   49MOL   C53546711   5.507   7.370   4.253  0.2926 -0.0493  0.7333
   49MOL   C53646712   5.533   7.506   4.319 -0.1201 -0.0379 -0.1304
   49MOL   C53746713   5.443   7.614   4.259  0.0032 -0.3367  0.5476
   49MOL   C53846714   5.450   7.756   4.316  0.3388  0.7495  0.2083
   49MOL   C53946715   5.440   7.748   4.470 -0.7981 -0.8549  0.1098
   49MOL   C54046716   5.420   0.126   4.537  0.2694 -0.0162  0.2815
   49MOL   O54146717   5.329   0.215   4.472 -0.8186 -0.0717 -0.6206
   49MOL   C54246718   5.197   0.207   4.483  0.4074 -0.3672  0.9853
   49MOL   O54346719   5.140   0.113   4.544  0.0634 -0.3123  0.3147
   49MOL   C54446720   5.121   0.314   4.408  0.1988 -0.2416 -0.9239
   49MOL   C54546721   5.126   0.298   4.255  1.4457  0.2590  0.1983
   49MOL   C54646722   5.028   0.191   4.203 -0.3384 -0.0430  0.7368
   49MOL   C54746723   5.044   0.159   4.053 -0.5090 -0.5206 -0.2680
   49MOL   C54846724   5.163   0.062   4.020  0.1993 -0.4328 -0.2084
   49MOL   O54946725   5.164   7.707   4.052 -0.5337  0.1530 -0.5336
   49MOL   H55046726   5.537   7.098   4.685 -2.1576 -0.3872  1.0118
   49MOL   H55146727   5.524   6.927   4.640 -1.8157 -0.2567  0.6475
   49MOL   H55246728   5.537   7.002   4.388  0.2887  0.5903 -0.3834
   49MOL   H55346729   5.684   7.036   4.490 -0.1128  0.4499  0.9150
   49MOL   H55446730   5.468   7.243   4.481 -0.1683 -1.3133  0.5346
   49MOL   H55546731   5.628   7.273   4.531 -0.0457 -0.4892  0.6003
   49MOL   H55646732   5.583   7.178   4.235 -2.9064 -0.9209  0.5146
   49MOL   H55746733   5.700   7.291   4.299  0.0240 -1.0895  0.6580
   49MOL   H55846734   5.401   7.346   4.268  0.2277  0.9820  2.0218
   49MOL   H55946735   5.515   7.382   4.145 -0.0746  0.9837  0.8125
   49MOL   H56046736   5.636   7.542   4.320 -0.4859  1.0308  0.3590
   49MOL   H56146737   5.523   7.487   4.426 -1.0224  1.4228  0.0687
   49MOL   H56246738   5.340   7.582   4.276 -0.0806 -0.8418 -0.8722
   49MOL   H56346739   5.457   7.614   4.151 -0.1009  1.6912  0.5078
   49MOL   H56446740   5.371   0.054   4.274  1.5036  1.7902 -0.4482
   49MOL   H56546741   5.546   0.035   4.291  1.1440 -0.1943  1.6413
   49MOL   H56646742   5.356   7.687   4.503 -1.2114  0.7435  2.0954
   49MOL   H56746743   5.530   7.704   4.513  0.7904 -0.6047 -2.8103
   49MOL   H56846744   5.513   0.183   4.539 -0.1880  0.9477 -2.8932
   49MOL   H56946745   5.381   0.111   4.638  0.8834  1.8036  0.8030
   49MOL   H57046746   5.022   0.337   4.447  1.6197  2.0006  1.5362
   49MOL   H57146747   5.171   0.411   4.414 -0.5441  0.2205 -2.0923
   49MOL   H57246748   5.227   0.277   4.221  2.0360 -1.6748  2.9955
   49MOL   H57346749   5.096   0.396   4.216  1.5151  0.3349  0.3375
   49MOL   H57446750   4.931   0.238   4.221  0.3126  1.1652  1.1530
   49MOL   H57546751   5.044   0.110   4.274 -0.6085  1.5287  2.6394
   49MOL   H57646752   5.043   0.246   3.987 -0.1510 -0.7010 -0.5124
   49MOL   H57746753   4.953   0.107   4.022  0.4567 -1.6909 -1.2044
   49MOL   O57846754   5.258   0.115   3.941  0.4666  0.6225  0.1881
   49MOL   C57946755   5.370   0.043   3.905 -0.1726 -0.1809  0.7373
   49MOL   C58046756   5.493   0.138   3.894  0.8912 -0.0541 -0.2821
   49MOL   C58146757   5.523   0.222   4.020 -0.4717 -0.2881  0.0775
   49MOL   C58246758   5.612   0.346   3.978  0.5163 -0.3465  0.5025
   49MOL   C58346759   5.684   0.420   4.102  0.3824  0.2964 -0.1496
   49MOL   C58446760   5.784   0.514   4.043  0.3019  0.1048 -0.0021
   49MOL   C58546761   5.860   0.598   4.148  0.5007 -0.3240 -1.3721
   49MOL   C58646762   5.931   0.519   4.255  0.6374  0.1420 -0.8379
   49MOL   C58746763   6.046   0.428   4.204 -0.3917 -0.3277 -0.6415
   49MOL   C58846764   6.122   0.378   4.319 -0.6013 -0.0707  0.2750
   49MOL   O58946765   6.228   0.292   4.276 -0.9062 -0.2770 -0.1859
   49MOL   C59046766   6.326   0.259   4.361 -0.0694 -0.7940  0.0651
   49MOL   O59146767   6.346   0.315   4.470 -0.0630 -0.0561 -0.1192
   49MOL   C59246768   6.405   0.144   4.314 -0.5802  0.0959 -0.6865
   49MOL   C59346769   6.519   0.098   4.407  0.3593 -0.7872 -0.2712
   49MOL   C59446770   6.470   0.002   4.520  0.1846  0.1987  0.2714
   49MOL   C59546771   6.579   7.728   4.618 -0.8507 -0.6242  0.1365
   49MOL   C59646772   6.662   0.076   4.692 -0.3904 -0.6179  1.0422
   49MOL   O59746773   6.779   0.056   4.717 -0.3667  0.9225 -0.5268
   49MOL   H59846774   5.393   7.733   3.981 -0.8561  1.7662  2.9028
   49MOL   H59946775   5.370   7.751   3.812 -1.8385 -0.3685  0.8361
   49MOL   H60046776   5.482   0.204   3.808  1.1758  0.0511 -0.2372
   49MOL   H60146777   5.579   0.076   3.869  0.8349 -0.0035 -0.6079
   49MOL   H60246778   5.430   0.265   4.058  0.0043 -0.8373  1.9281
   49MOL   H60346779   5.570   0.180   4.108  2.9161  3.1831  0.0412
   49MOL   H60446780   5.556   0.415   3.916 -1.2893 -1.7076  0.5678
   49MOL   H60546781   5.684   0.306   3.907  1.2784 -1.1848  1.7208
   49MOL   H60646782   5.725   0.341   4.166  1.2401  1.3549  0.6303
   49MOL   H60746783   5.612   0.467   4.169  0.8577 -1.8089  1.9149
   49MOL   H60846784   5.741   0.580   3.968 -3.0100 -0.0128  1.7025
   49MOL   H60946785   5.859   0.455   3.991  0.8033 -0.8110  1.7178
   49MOL   H61046786   5.798   0.680   4.185 -0.1390 -0.0945 -2.9266
   49MOL   H61146787   5.948   0.647   4.105  1.1092  2.9072  3.1383
   49MOL   H61246788   5.866   0.448   4.307  1.6483 -0.3439 -0.2125
   49MOL   H61346789   5.972   0.588   4.329  1.3427  0.8487 -1.8727
   49MOL   H61446790   6.013   0.343   4.145  0.3462 -0.4704 -0.8538
   49MOL   H61546791   6.105   0.483   4.131 -1.8584 -0.4101 -1.9017
   49MOL   H61646792   6.052   0.320   4.379  0.1412  0.6607  1.8685
   49MOL   H61746793   6.151   0.463   4.381 -3.2429 -0.1623  1.6992
   49MOL   H61846794   6.339   0.060   4.289 -0.1633 -0.1487 -0.9777
   49MOL   H61946795   6.438   0.177   4.215 -0.8784 -0.2363 -0.9005
   49MOL   H62046796   6.571   0.180   4.458 -0.4714 -0.8943  0.7688
   49MOL   H62146797   6.600   0.054   4.349  0.4645 -0.6377 -0.2389
   49MOL   H62246798   6.437   7.670   4.480  1.8767 -0.3774  0.2244
   49MOL   H62346799   6.398   0.061   4.577 -1.8343 -1.0501 -0.8937
   49MOL   H62446800   6.650   7.659   4.574  0.8669  1.4833 -0.4905
   49MOL   H62546801   6.522   7.682   4.699 -3.5918 -1.4275 -2.1445
   49MOL   O62646802   6.592   0.192   4.729 -0.2814  0.8174  0.2023
   49MOL   C62746803   6.656   0.290   4.802  0.4242 -0.3103 -0.2420
   49MOL   C62846804   6.571   0.409   4.809 -0.2152  0.7180 -0.7573
   49MOL   C62946805   6.579   0.489   4.676  0.5838  0.3150  0.1733
   49MOL   C63046806   6.496   0.615   4.696  0.0782 -0.2799 -0.1155
   49MOL   C63146807   6.340   0.594   4.703  0.1798  0.0608  0.4619
   49MOL   C63246808   6.262   0.730   4.716 -0.3722 -0.0107  1.1950
   49MOL   C63346809   6.118   0.704   4.778 -1.0351 -0.0824 -0.1934
   49MOL   C63446810   6.033   0.832   4.770  0.5198  0.5968 -0.5890
   49MOL   C63546811   6.036   0.918   4.893 -1.0904  0.2177 -0.0660
   49MOL   C63646812   5.917   1.014   4.903 -0.6543  0.5486  0.4719
   49MOL   O63746813   5.930   1.085   5.024  0.1891  0.1114 -0.2974
   49MOL   C63846814   5.831   1.159   5.074  0.1758 -0.3661 -0.7323
   49MOL   O63946815   5.721   1.183   5.016  0.2987  0.1088  0.4663
   49MOL   C64046816   5.874   1.230   5.207 -0.3050 -0.3139  0.2686
   49MOL   C64146817   5.764   1.316   5.259  0.1269  0.1677  0.2598
   49MOL   C64246818   5.800   1.385   5.397  0.5502 -0.2552  0.2475
   49MOL   C64346819   5.683   1.482   5.441  0.2630  0.4251 -0.4063
   49MOL   C64446820   5.696   1.531   5.587 -0.4047  0.4647  0.0680
   49MOL   O64546821   5.804   1.548   5.638  0.2968  0.0544 -0.2801
   49MOL   H64646822   6.670   0.249   4.902 -1.7710 -1.4766 -0.3747
   49MOL   H64746823   6.754   0.324   4.768 -0.3240  1.7429 -0.4682
   49MOL   H64846824   6.605   0.478   4.887  1.5389 -1.7155  0.7161
   49MOL   H64946825   6.466   0.381   4.817 -0.7254  3.0851  1.4715
   49MOL   H65046826   6.681   0.522   4.659  0.7865  0.6873  1.9804
   49MOL   H65146827   6.554   0.428   4.589  2.4571 -4.3212  2.7094
   49MOL   H65246828   6.508   0.677   4.607  1.7522 -0.8115 -0.2738
   49MOL   H65346829   6.521   0.664   4.790  1.4969  0.6491 -0.9561
   49MOL   H65446830   6.325   0.543   4.798 -1.3547 -0.1677  0.1122
   49MOL   H65546831   6.306   0.533   4.619 -0.3980 -2.1070  2.2210
   49MOL   H65646832   6.271   0.777   4.618  0.4818  0.1749  1.3591
   49MOL   H65746833   6.318   0.800   4.777  3.0105 -2.6900  1.3152
   49MOL   H65846834   6.118   0.677   4.883  2.6462  1.4996  0.2735
   49MOL   H65946835   6.073   0.627   4.714  1.7962 -1.6000 -0.4552
   49MOL   H66046836   5.935   0.792   4.746  0.8659 -0.9900  0.5472
   49MOL   H66146837   6.057   0.894   4.684 -2.1544  0.9349 -1.1432
   49MOL   H66246838   6.059   0.868   4.987  1.8521  0.8041 -0.4160
   49MOL   H66346839   6.128   0.977   4.886 -0.3398 -1.2034 -3.0732
   49MOL   H66446840   5.828   0.953   4.915  1.1461 -2.3130 -0.2426
   49MOL   H66546841   5.918   1.076   4.813  1.7649 -0.0519  0.0492
   49MOL   H66646842   5.899   1.148   5.275 -0.2856  0.0289  0.6774
   49MOL   H66746843   5.958   1.297   5.188 -1.7248  1.9222  1.5913
   49MOL   H66846844   5.667   1.267   5.259  0.0077  0.3755 -1.3302
   49MOL   H66946845   5.753   1.395   5.184  2.3372 -0.2963 -0.5824
   49MOL   H67046846   5.886   1.452   5.394  1.0089 -0.8406  0.1138
   49MOL   H67146847   5.816   1.303   5.466 -0.5350 -3.2859 -2.9448
   49MOL   H67246848   5.588   1.429   5.440  1.3322 -1.5633  0.0202
   49MOL   H67346849   5.679   1.563   5.369  0.4152 -0.3111 -1.2611
   49MOL   O67446850   5.578   1.563   5.647 -0.6617  0.1981  0.2038
   49MOL   C67546851   5.563   1.600   5.782  0.4746 -0.1030 -0.1743
   49MOL   C67646852   5.459   1.498   5.848 -0.0221 -0.4043 -0.3512
   49MOL   C67746853   5.398   1.566   5.971  0.6270  0.1645  0.3542
   49MOL   C67846854   5.324   1.457   6.056 -0.0442 -0.2188  0.3963
   49MOL   C67946855   5.270   1.511   6.188  0.0377  0.4660 -0.1339
   49MOL   C68046856   5.177   1.413   6.268 -0.5868 -0.5987  0.0089
   49MOL   C68146857   5.037   1.417   6.203  0.0134 -0.0531  0.0958
   49MOL   C68246858   4.946   1.315   6.279  0.9034 -0.2130  0.2376
   49MOL   C68346859   4.798   1.324   6.235 -0.1035 -0.8618 -0.6773
   49MOL   C68446860   4.701   1.245   6.323 -0.7047  0.6925 -0.4926
   49MOL   O68546861   4.727   1.105   6.317  0.9817  0.3780  0.3597
   49MOL   C68646862   4.669   1.030   6.229 -0.1042 -0.0124  0.1511
   49MOL   O68746863   4.600   1.073   6.131 -0.5090  0.4735 -0.8535
   49MOL   C68846864   4.701   0.881   6.251  0.1120  0.0941 -0.1466
   49MOL   C68946865   4.586   0.804   6.310  1.0447  0.3493  0.1950
   49MOL   C69046866   4.535   0.859   6.448 -0.5283 -0.8651  0.2107
   49MOL   C69146867   4.597   0.791   6.571 -0.7149  0.4968 -0.1992
   49MOL   C69246868   4.699   0.883   6.641 -0.2311  0.4717  0.3632
   49MOL   O69346869   4.692   0.903   6.763 -0.4623 -0.3608  0.2636
   49MOL   H69446870   5.657   1.594   5.836 -0.5390 -1.8436  1.4517
   49MOL   H69546871   5.512   1.695   5.768  2.8691  1.2372 -0.0834
   49MOL   H69646872   5.508   1.405   5.878  1.5485 -0.4624 -2.9946
   49MOL   H69746873   5.388   1.470   5.771  1.9418  1.6964 -3.0122
   49MOL   H69846874   5.474   1.613   6.033  0.5715  0.0074  0.5447
   49MOL   H69946875   5.331   1.643   5.933 -0.4191 -0.7049  0.4046
   49MOL   H70046876   5.392   1.374   6.077  1.6639  0.9130 -0.5797
   49MOL   H70146877   5.248   1.420   5.987  0.9540 -1.0820 -0.2627
   49MOL   H70246878   5.214   1.602   6.168 -0.9874 -0.3382 -0.9737
   49MOL   H70346879   5.362   1.530   6.243 -1.3228  1.7812  1.7538
   49MOL   H70446880   5.185   1.435   6.375 -2.4705 -1.0301  0.2681
   49MOL   H70546881   5.221   1.313   6.260  2.1812  0.6774 -1.0134
   49MOL   H70646882   5.044   1.401   6.095  0.9802 -0.5056  0.2199
   49MOL   H70746883   5.005   1.519   6.223  0.3580 -0.0772  0.7594
   49MOL   H70846884   4.946   1.342   6.384 -0.4114 -0.2799  0.2642
   49MOL   H70946885   4.984   1.213   6.263  1.3805 -0.4247  2.5734
   49MOL   H71046886   4.772   1.429   6.252 -0.9343 -1.4208  1.5497
   49MOL   H71146887   4.785   1.316   6.127  0.1393  1.7289 -0.9273
   49MOL   H71246888   4.597   1.258   6.293  0.0332  0.5594 -3.2314
   49MOL   H71346889   4.713   1.280   6.426 -1.9325 -3.1277  1.0630
   49MOL   H71446890   4.721   0.836   6.153 -1.0767 -0.7254 -0.0373
   49MOL   H71546891   4.792   0.864   6.308  0.1304  1.1336  0.1340
   49MOL   H71646892   4.601   0.696   6.315 -1.5623  0.0449  2.2144
   49MOL   H71746893   4.501   0.820   6.243  0.5706  0.9409  0.9374
   49MOL   H71846894   4.431   0.829   6.462 -0.2681 -1.7709  0.2115
   49MOL   H71946895   4.530   0.967   6.468  3.6440 -0.6585  0.6417
   49MOL   H72046896   4.647   0.699   6.539 -1.8139 -0.0485 -0.3825
   49MOL   H72146897   4.518   0.767   6.643 -1.3995  1.4415 -0.6294
   49MOL   O72246898   4.794   0.930   6.558 -0.0107 -0.2798 -0.3673
   49MOL   C72346899   4.913   0.980   6.611  0.7668  0.4089 -0.0127
   49MOL   C72446900   5.026   0.994   6.509 -0.4727 -0.0375 -0.3054
   49MOL   C72546901   5.145   1.070   6.565 -0.3358  0.4540  0.2701
   49MOL   C72646902   5.253   0.982   6.633 -0.4416 -0.4711  0.3012
   49MOL   C72746903   5.345   1.070   6.716 -0.1186 -0.1485 -0.0607
   49MOL   C72846904   5.485   1.006   6.735 -0.6829 -0.4768  0.1670
   49MOL   C72946905   5.578   1.115   6.804  0.9862  0.4228  0.5970
   49MOL   C73046906   5.724   1.073   6.809 -0.0544 -0.5131 -0.3372
   49MOL   C73146907   5.813   1.199   6.837 -0.7481  0.1584 -0.1033
   49MOL   C73246908   5.960   1.164   6.804 -0.2250 -0.1807 -0.1172
   49MOL   O73346909   5.968   1.159   6.657 -0.2578 -0.0757 -1.1348
   49MOL   C73446910   6.072   1.105   6.598  0.3956 -0.8982  0.1475
   49MOL   O73546911   6.169   1.044   6.648  0.8408  0.1250 -0.5825
   49MOL   C73646912   6.069   1.128   6.443  0.3214  0.5021 -0.4322
   49MOL   C73746913   6.068   1.273   6.388 -0.5608  0.1319 -0.2666
   49MOL   C73846914   6.199   1.352   6.412  0.2655  0.0839 -0.8395
   49MOL   C73946915   6.332   1.294   6.375  0.2429  0.1035  0.3296
   49MOL   C74046916   6.364   1.307   6.222 -0.0706  0.5017  0.3627
   49MOL   O74146917   6.421   1.402   6.169  0.2800  0.1423 -0.2080
   49MOL   H74246918   4.893   1.073   6.665 -1.1780  0.5471 -0.9384
   49MOL   H74346919   4.959   0.910   6.680  0.1964 -1.2772 -1.2984
   49MOL   H74446920   4.998   1.048   6.419  0.9969 -0.9653 -1.3404
   49MOL   H74546921   5.055   0.894   6.478  2.2212  0.2010  1.2367
   49MOL   H74646922   5.189   1.128   6.483 -2.6948  2.2889  0.2475
   49MOL   H74746923   5.110   1.148   6.634 -0.4489 -0.5909  1.4022
   49MOL   H74846924   5.296   0.930   6.548 -0.5717  0.6219 -0.4490
   49MOL   H74946925   5.203   0.913   6.701  0.9199 -1.0998  0.6641
   49MOL   H75046926   5.304   1.103   6.811  2.2101 -2.3838  1.8010
   49MOL   H75146927   5.363   1.163   6.664  0.6576  0.2353  0.8872
   49MOL   H75246928   5.519   0.981   6.634 -2.9582  1.4730 -1.1496
   49MOL   H75346929   5.493   0.910   6.785  2.4282 -0.5775 -0.3956
   49MOL   H75446930   5.548   1.141   6.906 -0.4142  2.0417 -0.1970
   49MOL   H75546931   5.564   1.200   6.738  1.6332 -0.4930 -0.7345
   49MOL   H75646932   5.741   1.027   6.712  1.2603  0.6344 -0.6704
   49MOL   H75746933   5.739   0.994   6.882  1.4262 -0.0436 -0.1174
   49MOL   H75846934   5.791   1.286   6.776  1.2195 -0.9890 -2.5677
   49MOL   H75946935   5.809   1.221   6.943 -0.7268 -0.8165  0.1116
   49MOL   H76046936   5.995   1.074   6.854  0.2899 -0.3435 -0.7491
   49MOL   H76146937   6.015   1.251   6.841  0.0773 -0.6869  0.6270
   49MOL   H76246938   6.157   1.077   6.405  1.3082  1.3946  0.5883
   49MOL   H76346939   5.986   1.077   6.394  0.5989  0.0883 -0.4695
   49MOL   H76446940   5.992   1.330   6.442  0.5950  0.4144  1.0993
   49MOL   H76546941   6.026   1.264   6.288  1.2964 -1.1564 -0.9571
   49MOL   H76646942   6.202   1.385   6.516 -1.1716  0.4605 -0.9002
   49MOL   H76746943   6.183   1.447   6.360 -1.1713 -0.7192 -1.8858
   49MOL   H76846944   6.347   1.198   6.426  1.1979 -1.1158 -2.1386
   49MOL   H76946945   6.397   1.358   6.433 -0.8148  0.5620  1.0277
   49MOL   O77046946   6.332   1.181   6.160 -0.4165 -0.0669 -0.2554
   49MOL   C77146947   6.347   1.165   6.020 -0.1771 -0.2337 -0.1340
   49MOL   C77246948   6.240   1.070   5.959 -0.1866  0.0978 -0.1814
   49MOL   C77346949   6.271   0.924   5.982 -0.5777 -0.8141 -0.1892
   49MOL   C77446950   6.246   0.860   6.122 -0.2484 -0.0239 -0.0259
   49MOL   C77546951   6.100   0.857   6.163  0.1969 -0.2917  0.1310
   49MOL   C77646952   6.072   0.807   6.306  0.6361 -1.1866 -0.8696
   49MOL   C77746953   5.923   0.792   6.356 -0.5573 -0.6388 -0.0092
   49MOL   C77846954   5.921   0.692   6.477 -0.4762 -0.7469 -0.4436
   49MOL   C77946955   5.786   0.635   6.525  0.2910  0.4494  0.0413
   49MOL   C78046956   5.686   0.739   6.583  0.8310  0.2390 -0.3356
   49MOL   O78146957   5.572   0.671   6.626  0.9262  1.0097 -0.8376
   49MOL   C78246958   5.469   0.665   6.548  0.0413  0.0854  0.5140
   49MOL   O78346959   5.453   0.721   6.440 -0.2901  0.0613  0.0752
   49MOL   C78446960   5.359   0.575   6.611  0.2898 -0.6998 -0.0270
   49MOL   C78546961   5.383   0.419   6.605 -0.1236 -0.8975 -0.2130
   49MOL   C78646962   5.530   0.382   6.636 -0.2830  0.2380  0.0643
   49MOL   C78746963   5.560   0.238   6.654 -0.0033  0.1915 -0.8936
   49MOL   C78846964   5.705   0.195   6.635  0.4416  0.3163 -1.0773
   49MOL   O78946965   5.738   0.081   6.670  0.2468  0.3033  0.3301
   49MOL   H79046966   6.339   1.265   5.978 -3.7838 -0.9616 -1.3370
   49MOL   H79146967   6.449   1.139   5.994  0.1448  0.4610  0.4235
   49MOL   H79246968   6.243   1.095   5.853  0.4328 -0.6689 -0.3476
   49MOL   H79346969   6.136   1.098   5.980  0.1268  1.2997 -0.2072
   49MOL   H79446970   6.206   0.858   5.924 -1.0908 -2.2795  1.9420
   49MOL   H79546971   6.376   0.904   5.963 -0.1609  0.2537  0.9424
   49MOL   H79646972   6.299   0.922   6.195 -0.0911  0.6678 -0.7246
   49MOL   H79746973   6.287   0.759   6.133 -1.5388 -0.8648 -2.5185
   49MOL   H79846974   6.038   0.805   6.089 -1.1472  0.5630  0.6425
   49MOL   H79946975   6.063   0.959   6.163 -1.2249 -0.7719 -1.2897
   49MOL   H80046976   6.118   0.873   6.379 -0.4671  0.3942 -1.5733
   49MOL   H80146977   6.132   0.716   6.311  1.8208 -0.4287 -1.2083
   49MOL   H80246978   5.876   0.743   6.271  0.3946 -0.6542 -0.5340
   49MOL   H80346979   5.862   0.879   6.379 -0.2914 -0.0841 -1.4071
   49MOL   H80446980   5.968   0.742   6.562  0.5712  0.8719 -1.9363
   49MOL   H80546981   5.984   0.608   6.448  1.6208  0.4891  0.3352
   49MOL   H80646982   5.727   0.583   6.450 -0.4359  0.9777  0.2338
   49MOL   H80746983   5.813   0.562   6.602  1.4937 -1.3733 -2.0454
   49MOL   H80846984   5.663   0.823   6.518 -1.4555  1.3311  1.7990
   49MOL   H80946985   5.723   0.795   6.669  1.6741  0.0204 -0.5545
   49MOL   H81046986   5.343   0.608   6.713 -0.6175 -0.0807 -0.3627
   49MOL   H81146987   5.264   0.597   6.562 -0.4287  0.7348  1.9470
   49MOL   H81246988   5.359   0.374   6.509 -2.2407  1.3455 -0.8048
   49MOL   H81346989   5.321   0.376   6.683 -0.2258  0.1919  0.3129
   49MOL   H81446990   5.560   0.435   6.726  0.2707  1.2706 -0.7128
   49MOL   H81546991   5.592   0.434   6.562 -0.4942 -0.2491 -0.4612
   49MOL   H81646992   5.508   0.183   6.575  1.2380 -1.5235 -0.5318
   49MOL   H81746993   5.524   0.197   6.749  1.0521 -0.5210 -0.7957
   49MOL   O81846994   5.781   0.269   6.558 -0.2918  0.3747 -0.2768
   49MOL   C81946995   5.918   0.233   6.541  0.2107  0.6544 -0.0025
   49MOL   C82046996   5.998   0.247   6.670  0.3169 -0.5273  0.3536
   49MOL   C82146997   6.149   0.258   6.646  0.2096 -0.2281  0.3831
   49MOL   C82246998   6.220   0.233   6.788 -0.3951 -0.2634  0.2699
   49MOL   C82346999   6.367   0.275   6.777 -0.4104  0.4465  0.2279
   49MOL   C82447000   6.455   0.179   6.696  0.2811 -0.1273 -0.3120
   49MOL   C82547001   6.499   0.058   6.781  0.4725  0.2137 -0.1698
   49MOL   C82647002   6.597   7.726   6.709  0.7393  0.2219 -0.1955
   49MOL   C82747003   6.614   7.587   6.778 -0.1499  0.9755  0.3460
   49MOL   C82847004   6.726   7.504   6.715  0.0031  0.3462 -0.1232
   49MOL   O82947005   6.854   7.543   6.762 -0.4200  0.4641 -0.5490
   49MOL   C83047006   6.953   7.461   6.764 -0.3060  0.2605  0.2533
   49MOL   O83147007   6.957   7.342   6.729  0.8799 -0.0675  0.0171
   49MOL   C83247008   7.083   7.526   6.821  0.0304  0.3773 -0.2792
   49MOL   C83347009   7.146   7.643   6.740 -0.4460  0.1232 -0.3093
   49MOL   C83447010   7.184   7.607   6.593  0.7500  0.2920 -0.0252
   49MOL   C83547011   7.332   7.559   6.578  0.0090  0.2331  0.4050
   49MOL   C83647012   7.439   7.662   6.569 -0.5013 -0.0291 -0.1004
   49MOL   O83747013   7.553   7.619   6.557  0.0668 -0.0007 -0.0794
   49MOL   H83847014   5.936   0.130   6.510  1.2003  2.0498 -4.4779
   49MOL   H83947015   5.943   0.310   6.467  2.2723  0.2959  0.3227
   49MOL   H84047016   5.974   0.164   6.736  1.4858 -0.7865  0.4737
   49MOL   H84147017   5.962   0.328   6.733 -0.3723 -0.5238 -0.0387
   49MOL   H84247018   6.165   0.173   6.579 -2.2474 -0.3517 -0.1101
   49MOL   H84347019   6.171   0.350   6.592 -0.8864  0.8680  1.7787
   49MOL   H84447020   6.199   0.131   6.822 -1.3945  0.0335  0.5672
   49MOL   H84547021   6.185   0.303   6.863 -1.4112  0.5663 -0.9502
   49MOL   H84647022   6.400   0.288   6.880  0.1828  0.1524  0.0780
   49MOL   H84747023   6.365   0.369   6.722  2.0144  0.7946  0.6929
   49MOL   H84847024   6.541   0.241   6.671 -0.7013  0.7776 -1.5209
   49MOL   H84947025   6.415   0.159   6.597  1.7599 -0.8282 -0.7796
   49MOL   H85047026   6.409   7.761   6.793 -0.4089  1.3159 -0.9809
   49MOL   H85147027   6.528   0.083   6.883  2.3406 -1.5027 -0.2473
   49MOL   H85247028   6.692   0.013   6.693  0.4963  0.7423  0.0436
   49MOL   H85347029   6.568   7.720   6.604 -1.1488  2.5709  0.1303
   49MOL   H85447030   6.628   7.607   6.884  1.8850 -0.8314  0.4476
   49MOL   H85547031   6.529   7.520   6.767  2.0457 -1.4617 -3.0128
   49MOL   H85647032   6.723   7.500   6.606  1.5374 -3.3335 -0.0938
   49MOL   H85747033   6.704   7.402   6.746 -3.6993  0.5971 -1.6673
   49MOL   H85847034   7.056   7.577   6.914  0.4150 -1.4851  0.8624
   49MOL   H85947035   7.156   7.452   6.852  0.1838  1.4680  2.1069
   49MOL   H86047036   7.224   7.691   6.798 -0.7145  0.9478 -0.6237
   49MOL   H86147037   7.080   7.730   6.741  0.5519  0.8807 -0.3275
   49MOL   H86247038   7.166   7.694   6.530  0.1005  0.1299 -0.0664
   49MOL   H86347039   7.112   7.541   6.545 -0.4129  2.1972 -0.9922
   49MOL   H86447040   7.344   7.524   6.475 -0.6525 -0.8729  0.6873
   49MOL   H86547041   7.356   7.478   6.646  0.3736  0.9051  1.0758
   49MOL   O86647042   7.403   0.023   6.592  0.0454 -0.2981 -0.9060
   49MOL   C86747043   7.478   0.129   6.538 -0.2198  0.0986 -0.0445
   49MOL   C86847044   7.595   0.176   6.641 -0.3387 -0.0507 -0.0378
   49MOL   C86947045   7.684   0.284   6.568  0.1439 -0.0550 -0.0271
   49MOL   C87047046   0.025   0.349   6.659 -0.1075  0.8929 -0.0703
   49MOL   C87147047   7.746   0.488   6.697 -0.4295  0.5825 -0.5306
   49MOL   C87247048   0.106   0.569   6.739  0.3240  0.4350  0.5839
   49MOL   C87347049   0.081   0.723   6.753 -0.4224 -0.0998  1.2947
   49MOL   C87447050   7.726   0.761   6.839  0.2202 -0.2313  0.6508
   49MOL   C87547051   7.732   0.715   6.983 -0.5126  0.2805 -0.8416
   49MOL   C87647052   7.596   0.738   7.053  0.5316 -0.1854 -0.6226
   49MOL   O87747053   7.599   0.672   7.176  0.5905 -0.3042 -0.1221
   49MOL   C87847054   7.483   0.649   7.233 -0.3881  0.0897  0.6462
   49MOL   O87947055   7.373   0.697   7.205  0.0300  0.0881  0.8890
   49MOL   C88047056   7.495   0.534   7.338  0.2837  0.0639  0.0652
   49MOL   C88147057   7.595   0.533   7.455 -0.3389 -0.1254  0.1163
   49MOL   C88247058   7.559   0.444   7.571 -0.2049  0.3322 -0.2584
   49MOL   C88347059   7.677   0.424   7.666  0.0219 -0.2099  0.2849
   49MOL   C88447060   7.754   0.294   7.655 -0.7463  0.5249 -0.6754
   49MOL   O88547061   0.106   0.300   7.616 -0.8017 -0.4041 -0.4073
   49MOL   H88647062   7.509   0.104   6.437 -1.3763  1.3530 -0.7230
   49MOL   H88747063   7.418   0.219   6.521  1.3409  1.5470  1.7671
   49MOL   H88847064   7.657   0.095   6.680  0.3920 -0.2444 -1.5305
   49MOL   H88947065   7.548   0.223   6.727  0.8886  0.8527  0.1545
   49MOL   H89047066   7.732   0.249   6.476 -0.4224  1.9464 -1.1318
   49MOL   H89147067   7.617   0.359   6.525  0.4254  0.3391  0.2195
   49MOL   H89247068   0.123   0.355   6.610 -0.0905  1.8419  0.0758
   49MOL   H89347069   0.058   0.290   6.744  1.5060  3.8886  1.4533
   49MOL   H89447070   7.678   0.471   6.780 -1.0563 -0.3685 -1.2246
   49MOL   H89547071   7.692   0.542   6.619 -0.5709  0.4943 -0.4932
   49MOL   H89647072   0.188   0.564   6.667  0.8254 -2.6844  1.3110
   49MOL   H89747073   0.133   0.528   6.836 -0.7840  2.7667  1.9396
   49MOL   H89847074   0.076   0.756   6.649  1.0769 -0.4084  1.1188
   49MOL   H89947075   0.170   0.765   6.801 -0.8809  2.1281  0.2778
   49MOL   H90047076   7.643   0.703   6.798 -0.0146 -0.4049  1.3487
   49MOL   H90147077   7.703   0.867   6.832 -0.1155 -0.4329 -1.5926
   49MOL   H90247078   0.001   0.612   6.998  0.6832  0.6548 -0.9383
   49MOL   H90347079   0.048   0.777   7.021  1.9249 -0.6041 -4.3619
   49MOL   H90447080   7.512   0.702   6.993  0.4113 -0.0180 -0.5556
   49MOL   H90547081   7.583   0.846   7.065 -0.9524 -0.2771 -1.2693
   49MOL   H90647082   7.394   0.522   7.376 -0.0783  0.4965 -0.7524
   49MOL   H90747083   7.508   0.440   7.285 -0.3185 -0.4356  0.7805
   49MOL   H90847084   7.609   0.635   7.493 -0.4457 -0.1182  0.1372
   49MOL   H90947085   7.688   0.501   7.409  0.3606  0.3576  1.1707
   49MOL   H91047086   7.522   0.353   7.523  2.3226  0.8845 -3.4646
   49MOL   H91147087   7.476   0.479   7.631  0.8046 -0.7619  1.8346
   49MOL   H91247088   7.649   0.442   0.005  2.7533  1.2644  0.8047
   49MOL   H91347089   7.752   0.503   7.657 -0.5179  0.2010 -0.7031
   49MOL   O91447090   7.681   0.191   7.683  0.8813  0.4755 -0.6250
   49MOL   C91547091   7.736   0.065   7.710 -0.3485  0.1677  0.4513
   49MOL   C91647092   7.678   7.735   7.601  0.0227  0.9135 -0.2121
   49MOL   C91747093   7.731   7.749   7.452  0.4908  0.0009 -0.2306
   49MOL   C91847094   7.738   7.615   7.375  0.1537  0.2358 -0.3769
   49MOL   C91947095   0.084   7.523   7.423  0.0241 -0.0605 -0.6430
   49MOL   C92047096   0.224   7.551   7.359  0.2115 -0.5109  0.0139
   49MOL   C92147097   0.336   7.471   7.419  0.8188  0.6704  1.3141
   49MOL   C92247098   0.326   7.320   7.394  0.3060 -0.6533  0.6257
   49MOL   C92347099   0.361   7.230   7.512 -0.6815  0.2317 -0.0412
   49MOL   C92447100   0.338   7.081   7.499  0.8743  0.2316  0.0547
   49MOL   O92547101   0.403   7.025   7.383 -0.5682 -0.1821  0.1378
   49MOL   C92647102   0.382   6.897   7.358 -0.5421  0.0547 -0.1924
   49MOL   O92747103   0.315   6.822   7.434  0.0809 -0.2905 -0.1389
   49MOL   C92847104   0.446   6.846   7.226  0.4361 -0.3429 -0.7429
   49MOL   C92947105   0.445   6.691   7.214 -0.2346  0.1914  0.2321
   49MOL   C93047106   0.574   6.626   7.250  0.2890 -0.0858 -0.1487
   49MOL   C93147107   0.575   6.479   7.226 -0.1765 -0.7718  0.3740
   49MOL   C93247108   0.498   6.402   7.338 -0.1873  0.0589 -0.0559
   49MOL   O93347109   0.484   6.453   7.450 -0.1565 -1.0920 -0.0755
   49MOL   H93447110   0.080   0.072   7.710 -0.4322  1.8664  1.3684
   49MOL   H93547111   7.705   0.035   0.045  2.2718 -3.0051  0.3807
   49MOL   H93647112   7.571   7.720   7.618  0.1017  1.5939  0.9311
   49MOL   H93747113   7.718   7.640   7.635 -1.4676  0.4622  0.3167
   49MOL   H93847114   7.663   0.052   7.401 -2.0970 -2.7970 -0.6482
   49MOL   H93947115   0.065   0.030   7.441  0.2696  0.3496 -0.7831
   49MOL   H94047116   7.756   7.640   7.270  0.4339 -1.0996 -0.6537
   49MOL   H94147117   7.637   7.575   7.375 -0.3683  1.4140  2.7858
   49MOL   H94247118   0.052   7.419   7.411  1.0599 -0.8246  2.7613
   49MOL   H94347119   0.097   7.536   7.530  1.0988 -2.8787 -0.4000
   49MOL   H94447120   0.242   7.655   7.387 -0.5338  0.1985 -2.0885
   49MOL   H94547121   0.211   7.539   7.252  0.6453 -1.6887  0.0888
   49MOL   H94647122   0.343   7.477   7.527  0.7116  0.3659  1.3398
   49MOL   H94747123   0.426   7.521   7.384 -0.1410  0.1391 -2.1140
   49MOL   H94847124   0.391   7.291   7.312 -0.4966  1.6827 -0.8666
   49MOL   H94947125   0.221   7.300   7.371  1.0749 -1.1694 -2.5730
   49MOL   H95047126   0.468   7.238   7.533 -1.2754  0.4484  3.1672
   49MOL   H95147127   0.325   7.275   7.605 -0.6397  0.1932 -0.0064
   49MOL   H95247128   0.233   7.053   7.506  1.1525 -1.2274 -1.4073
   49MOL   H95347129   0.388   7.048   7.591  0.0631 -1.7169 -0.1721
   49MOL   H95447130   0.390   6.881   7.139  1.8519  1.5327 -0.9359
   49MOL   H95547131   0.545   6.887   7.205 -0.2218  1.7516  0.1799
   49MOL   H95647132   0.432   6.674   7.108  0.2739 -0.0310  0.2044
   49MOL   H95747133   0.355   6.642   7.253  0.1999 -1.5874 -0.9571
   49MOL   H95847134   0.587   6.651   7.355  0.3501 -0.4802 -0.0613
   49MOL   H95947135   0.665   6.664   7.202  1.3066 -1.3018  0.7828
   49MOL   H96047136   0.678   6.443   7.229 -0.5462 -1.8084  0.9953
   49MOL   H96147137   0.546   6.447   7.126  0.7853 -0.6831  0.0613
   49MOL   H96247138   0.454   6.308   7.307 -0.7562 -0.1126  1.2488
   50MOL     O147139   2.943   2.681   2.007  0.5634  0.0959 -0.1241
   50MOL     C247140   2.962   2.812   2.047  0.5053 -0.3513  0.8368
   50MOL     C347141   2.982   2.812   2.200  0.5875 -0.4593 -0.8456
   50MOL     C447142   3.000   2.957   2.252  0.4959  0.0594  0.4309
   50MOL     C547143   2.953   2.961   2.395  0.5086  0.6854 -0.1797
   50MOL     C647144   2.976   3.104   2.453 -0.9991  0.1857 -0.3428
   50MOL     C747145   2.905   3.145   2.583 -1.0283  0.8368 -0.0549
   50MOL     C847146   2.930   3.287   2.619  0.7104 -0.2144 -0.0111
   50MOL     C947147   2.830   3.358   2.719  0.1232  0.2806 -0.2567
   50MOL    C1047148   2.685   3.345   2.675  0.0431 -0.2336  0.2741
   50MOL    C1147149   2.589   3.438   2.753 -0.2323 -0.0287 -0.3357
   50MOL    O1247150   2.601   3.567   2.695  0.4275  0.2781  0.3237
   50MOL    C1347151   2.561   3.673   2.763  0.4210 -0.0598 -0.0428
   50MOL    O1447152   2.509   3.672   2.875 -0.0787  0.4961  1.1333
   50MOL    C1547153   2.599   3.803   2.691  0.2301 -0.2246 -0.2382
   50MOL    C1647154   2.483   3.901   2.691 -0.6211  0.1262 -0.2740
   50MOL    C1747155   2.385   3.858   2.577  0.4739 -0.1590  0.2414
   50MOL    C1847156   2.256   3.945   2.574 -0.7502  0.0964  0.6547
   50MOL    C1947157   2.293   4.081   2.510  0.5760  0.8186  1.0385
   50MOL    O2047158   2.342   4.171   2.576  0.1167 -0.1867 -0.3910
   50MOL    H2147159   3.054   2.853   2.006 -1.0358  1.4951 -0.8834
   50MOL    H2247160   2.878   2.878   2.028  0.2347 -1.1937 -0.9634
   50MOL    H2347161   3.067   2.748   2.224  0.4836 -0.6793 -1.0573
   50MOL    H2447162   2.893   2.775   2.250 -0.5844  3.1469 -0.1449
   50MOL    H2547163   3.102   2.993   2.237 -0.1467  1.1737 -1.4214
   50MOL    H2647164   2.932   3.009   2.184 -0.1137  0.8349  1.6056
   50MOL    H2747165   3.010   2.889   2.454 -2.0862 -1.4540 -0.1480
   50MOL    H2847166   2.845   2.943   2.396  0.6975 -0.4084  0.7774
   50MOL    H2947167   2.938   3.178   2.382 -1.3243 -0.1429 -0.5123
   50MOL    H3047168   3.081   3.129   2.463 -0.9818 -0.6257  1.6090
   50MOL    H3147169   2.960   3.081   2.652  0.5799  2.3983  0.1319
   50MOL    H3247170   2.803   3.109   2.592 -0.3272 -1.5907 -1.1032
   50MOL    H3347171   2.932   3.349   2.530  1.6752  1.1058  0.9226
   50MOL    H3447172   3.032   3.300   2.656  0.2670 -0.0455  1.1964
   50MOL    H3547173   2.849   3.465   2.710  1.2246  0.0033 -1.3455
   50MOL    H3647174   2.846   3.338   2.825  0.3272  1.4943 -0.0446
   50MOL    H3747175   2.669   3.365   2.569 -1.1482 -3.9499 -0.3296
   50MOL    H3847176   2.651   3.244   2.696 -2.4358  0.7386  1.2749
   50MOL    H3947177   2.634   3.439   2.852  1.8281  1.0895 -1.2600
   50MOL    H4047178   2.489   3.397   2.769 -0.9753  0.6497 -2.9505
   50MOL    H4147179   2.680   3.847   2.749  2.3280 -3.1454 -0.8620
   50MOL    H4247180   2.640   3.778   2.593 -0.3280 -0.6147 -0.3736
   50MOL    H4347181   2.521   3.999   2.661  1.8861 -1.2289 -1.7553
   50MOL    H4447182   2.441   3.915   2.790  2.5066  0.4795  1.0503
   50MOL    H4547183   2.357   3.757   2.607 -0.5930 -0.2398 -0.9806
   50MOL    H4647184   2.434   3.853   2.480  2.7099  0.0885  1.3124
   50MOL    H4747185   2.224   3.956   2.677 -2.4236 -0.2153  0.1779
   50MOL    H4847186   2.173   3.902   2.518 -0.8046  0.9259  0.0851
   50MOL    H4947187   2.854   2.666   2.036  0.6482 -1.4289 -0.6346
   50MOL    O5047188   2.264   4.080   2.383 -0.0842  0.2203 -0.4272
   50MOL    C5147189   2.301   4.197   2.306  0.7695 -0.0112 -0.3475
   50MOL    C5247190   2.203   4.319   2.306  0.8332 -0.1332  0.0992
   50MOL    C5347191   2.079   4.297   2.219  0.2913 -0.5321 -0.7793
   50MOL    C5447192   1.977   4.413   2.215 -0.4137  0.1033 -0.7069
   50MOL    C5547193   1.852   4.379   2.138  0.6295  0.4862  0.6509
   50MOL    C5647194   1.742   4.488   2.138  0.0215  0.2339 -0.1742
   50MOL    C5747195   1.775   4.619   2.069 -0.3657 -0.4076  0.4482
   50MOL    C5847196   1.655   4.707   2.050  0.2052 -0.0553  0.2563
   50MOL    C5947197   1.681   4.846   1.979 -0.5933  0.1451  0.1044
   50MOL    C6047198   1.558   4.926   1.946 -0.0870 -0.6167  0.0546
   50MOL    O6147199   1.459   4.852   1.878 -0.3966 -0.0927 -0.4006
   50MOL    C6247200   1.352   4.918   1.835 -0.5420  0.6759 -0.3782
   50MOL    O6347201   1.343   5.040   1.828 -0.2442 -0.0662  0.5638
   50MOL    C6447202   1.251   4.817   1.770 -0.6651 -0.1899 -0.4223
   50MOL    C6547203   1.175   4.872   1.650 -0.7768  0.7584  0.5021
   50MOL    C6647204   1.252   4.922   1.527 -0.2164  0.0650 -0.2077
   50MOL    C6747205   1.153   4.981   1.425  0.2816  0.2930 -0.9079
   50MOL    C6847206   1.076   4.870   1.343 -0.2255  0.2142 -0.5048
   50MOL    O6947207   1.122   4.837   1.229 -0.8209  0.0870 -0.6731
   50MOL    H7047208   2.402   4.220   2.340  1.2380  1.3576 -2.5568
   50MOL    H7147209   2.294   4.157   2.205  1.2503 -2.1279  0.4326
   50MOL    H7247210   2.252   4.410   2.274 -1.8121  0.6263 -2.0111
   50MOL    H7347211   2.177   4.338   2.410 -1.3004 -0.6154 -0.3204
   50MOL    H7447212   2.116   4.279   2.118 -1.8073  0.6109 -1.8014
   50MOL    H7547213   2.028   4.201   2.229 -0.5707  0.1139  1.0950
   50MOL    H7647214   2.032   4.492   2.165  2.1809  1.0370  3.3209
   50MOL    H7747215   1.959   4.447   2.318 -1.2207 -1.1246 -0.4230
   50MOL    H7847216   1.820   4.286   2.184  0.9858  1.7711  3.6050
   50MOL    H7947217   1.882   4.372   2.033  0.3709  2.7576  0.4091
   50MOL    H8047218   1.702   4.513   2.236  1.1505 -0.0892  0.3633
   50MOL    H8147219   1.664   4.435   2.083  1.3256 -0.7592 -1.1012
   50MOL    H8247220   1.818   4.603   1.970  0.8922  1.2845  0.6940
   50MOL    H8347221   1.844   4.673   2.134 -3.4601  3.0236  1.0525
   50MOL    H8447222   1.605   4.722   2.145 -2.5629 -1.4759 -0.9095
   50MOL    H8547223   1.587   4.641   1.997 -0.4397  0.6935  0.1319
   50MOL    H8647224   1.746   4.908   2.042 -1.2424  0.8319  0.1041
   50MOL    H8747225   1.742   4.822   1.892 -1.8326 -4.3035  0.3410
   50MOL    H8847226   1.582   5.019   1.895 -0.5284 -1.6834 -2.2081
   50MOL    H8947227   1.503   4.947   2.038  1.7431 -0.5330  1.1385
   50MOL    H9047228   1.307   4.730   1.736  1.9488  1.7484 -1.2176
   50MOL    H9147229   1.190   4.786   1.855  2.6364 -0.9596  1.7653
   50MOL    H9247230   1.105   4.950   1.679  1.0219  1.7956  2.1337
   50MOL    H9347231   1.113   4.786   1.622 -0.4067  0.0564  1.7477
   50MOL    H9447232   1.311   4.845   1.477 -1.2384 -0.6496 -0.3306
   50MOL    H9547233   1.327   4.996   1.556  0.7086 -1.1053  0.4437
   50MOL    H9647234   1.205   5.041   1.350 -2.9924  1.4931 -2.3006
   50MOL    H9747235   1.088   5.044   1.485  0.6891 -0.4530  0.3405
   50MOL    O9847236   0.952   4.837   1.393 -0.4426  0.3311  0.1904
   50MOL    C9947237   0.873   4.744   1.318 -0.0111  0.1585 -0.2198
   50MOL   C10047238   0.775   4.832   1.234 -0.5616 -0.1781  0.3500
   50MOL   C10147239   0.719   4.771   1.110 -0.6079 -0.1583  0.0410
   50MOL   C10247240   0.821   4.726   1.000 -0.1543  0.8633 -0.4959
   50MOL   C10347241   0.754   4.672   0.874 -0.1756  0.4660 -0.1672
   50MOL   C10447242   0.859   4.611   0.778 -0.0602 -1.0363 -0.4999
   50MOL   C10547243   0.804   4.522   0.663  1.0578  0.1537 -0.1934
   50MOL   C10647244   0.898   4.469   0.557  0.3291 -0.0599  0.1384
   50MOL   C10747245   0.846   4.462   0.412 -0.2250  0.5052 -0.1307
   50MOL   C10847246   0.913   4.371   0.318 -0.0293  0.7713 -0.7737
   50MOL   O10947247   1.045   4.415   0.298 -0.2319 -0.1757  0.2761
   50MOL   C11047248   1.142   4.321   0.261 -0.8113 -0.4994 -0.1246
   50MOL   O11147249   1.126   4.201   0.248 -0.6706  0.0832  0.3273
   50MOL   C11247250   1.274   4.387   0.226 -0.4136  0.1661 -0.0224
   50MOL   C11347251   1.332   4.474   0.346  0.8362 -0.3837  0.4040
   50MOL   C11447252   1.471   4.530   0.320 -0.0056  0.1013  0.2946
   50MOL   C11547253   1.530   4.596   0.441  0.5835 -0.0167 -0.3609
   50MOL   C11647254   1.446   4.706   0.505  0.3219 -0.8973  0.6400
   50MOL   O11747255   1.434   4.812   0.451 -0.1674 -0.2221  1.0591
   50MOL   H11847256   0.931   4.678   1.253  3.5489 -0.1552  3.0804
   50MOL   H11947257   0.825   4.689   1.399 -0.6171  1.1136  0.0784
   50MOL   H12047258   0.808   4.931   1.203 -0.3238 -0.3248  0.1381
   50MOL   H12147259   0.695   4.861   1.303 -1.0314 -0.0173 -0.2578
   50MOL   H12247260   0.654   4.687   1.137  1.5702 -1.8211  0.2675
   50MOL   H12347261   0.654   4.851   1.075  0.2707  1.3877  1.8871
   50MOL   H12447262   0.897   4.660   1.041  0.7491  2.7780  0.9840
   50MOL   H12547263   0.881   4.812   0.971  2.4272 -0.8097 -0.2092
   50MOL   H12647264   0.703   4.752   0.819 -0.1116 -0.9517 -2.3692
   50MOL   H12747265   0.674   4.600   0.891 -0.2166  0.2477 -1.2377
   50MOL   H12847266   0.936   4.553   0.830  1.4508  2.3885  1.2617
   50MOL   H12947267   0.921   4.691   0.736 -2.4458  0.6505 -0.8628
   50MOL   H13047268   0.729   4.587   0.619 -0.2578 -1.4321 -0.3305
   50MOL   H13147269   0.744   4.440   0.701  0.1103  0.2543 -1.4293
   50MOL   H13247270   0.931   4.370   0.588  1.0883  0.3757  0.7497
   50MOL   H13347271   0.992   4.524   0.555  0.2773  0.0747  1.0485
   50MOL   H13447272   0.746   4.419   0.417  0.0011  0.1883  2.0460
   50MOL   H13547273   0.832   4.563   0.374 -2.9673  0.4182  0.5195
   50MOL   H13647274   0.853   4.353   0.228  1.1619  0.3706 -1.5005
   50MOL   H13747275   0.927   4.272   0.360  2.7051  1.5516  0.2898
   50MOL   H13847276   1.346   4.312   0.194  1.3631  2.5608 -1.8293
   50MOL   H13947277   1.267   4.454   0.140 -2.9450  0.3519  0.2975
   50MOL   H14047278   1.330   4.416   0.438 -1.3641  0.2257  0.7641
   50MOL   H14147279   1.262   4.553   0.376 -0.5838 -1.7321  0.7046
   50MOL   H14247280   1.449   4.611   0.250 -0.1008 -1.7997 -1.9482
   50MOL   H14347281   1.538   4.450   0.289 -2.2959 -2.1367  0.9278
   50MOL   H14447282   1.624   4.651   0.427  1.4753 -1.7407 -1.3738
   50MOL   H14547283   1.544   4.515   0.512 -1.0364 -1.2415 -1.4111
   50MOL   O14647284   1.379   4.665   0.607 -0.3705 -0.6853 -0.1623
   50MOL   C14747285   1.286   4.753   0.669 -0.4911 -1.0591 -0.3497
   50MOL   C14847286   1.205   4.673   0.776  0.0375 -0.9870  0.7994
   50MOL   C14947287   1.286   4.631   0.893  0.2000  0.1665 -0.1700
   50MOL   C15047288   1.206   4.556   0.998  0.1528  0.0755  0.1672
   50MOL   C15147289   1.291   4.545   1.127 -0.4336  0.7660 -0.2461
   50MOL   C15247290   1.217   4.483   1.246 -0.4993  0.0467 -0.0569
   50MOL   C15347291   1.284   4.512   1.383 -0.2029  0.2498 -0.2922
   50MOL   C15447292   1.189   4.456   1.493 -0.2191  0.2370 -0.2486
   50MOL   C15547293   1.247   4.448   1.627 -0.0429 -0.0554 -0.4158
   50MOL   C15647294   1.147   4.428   1.740 -0.2217  0.4148  0.0852
   50MOL   O15747295   1.207   4.435   1.867 -0.5124  0.2175 -0.3354
   50MOL   C15847296   1.265   4.321   1.912  0.2442  0.1075  0.1798
   50MOL   O15947297   1.266   4.215   1.854  0.0655 -0.6218 -0.0477
   50MOL   C16047298   1.339   4.354   2.039 -0.5320  0.3996  0.2905
   50MOL   C16147299   1.403   4.228   2.111 -0.2606  0.8643 -0.3334
   50MOL   C16247300   1.297   4.163   2.201 -0.1871 -0.0397  0.6398
   50MOL   C16347301   1.343   4.033   2.268 -0.1031  0.2829 -0.2831
   50MOL   C16447302   1.362   3.914   2.168 -0.2388 -0.3017 -0.4543
   50MOL   O16547303   1.470   3.849   2.161 -0.2965 -0.1089  0.0153
   50MOL   H16647304   1.331   4.844   0.708 -0.6540 -1.0991 -0.0677
   50MOL   H16747305   1.227   4.797   0.589  2.8767  0.8072 -1.8715
   50MOL   H16847306   1.143   4.591   0.739  0.9563 -1.2626 -0.1628
   50MOL   H16947307   1.130   4.744   0.809 -1.7002 -2.0149 -0.8264
   50MOL   H17047308   1.361   4.559   0.862  0.0029  0.0866 -0.4632
   50MOL   H17147309   1.327   4.726   0.927  0.5916  0.0606 -0.3501
   50MOL   H17247310   1.168   4.459   0.967  0.8078 -0.0104 -0.3610
   50MOL   H17347311   1.116   4.615   1.014  0.1348 -0.1770  1.0295
   50MOL   H17447312   1.329   4.646   1.143 -1.2722  1.3340 -1.7071
   50MOL   H17547313   1.384   4.494   1.104 -0.3957  0.2560  1.0111
   50MOL   H17647314   1.192   4.380   1.221 -0.5639 -0.2023  1.0079
   50MOL   H17747315   1.119   4.530   1.250 -0.1720  0.6928  0.5937
   50MOL   H17847316   1.296   4.617   1.407 -2.4980  0.2169  1.1141
   50MOL   H17947317   1.381   4.462   1.390 -0.3834 -0.7456 -3.8718
   50MOL   H18047318   1.170   4.352   1.467 -0.9542  0.5460 -0.9600
   50MOL   H18147319   1.092   4.506   1.487  0.7675  1.9659 -2.3574
   50MOL   H18247320   1.320   4.367   1.629 -0.6793 -0.6091  0.9495
   50MOL   H18347321   1.302   4.539   1.652 -0.7678  0.1019  0.6357
   50MOL   H18447322   1.092   4.336   1.717  1.7513 -1.5739  2.9260
   50MOL   H18547323   1.071   4.506   1.749 -0.9266  0.0665 -2.4953
   50MOL   H18647324   1.421   4.417   2.007 -0.3010 -1.0370 -2.0616
   50MOL   H18747325   1.269   4.404   2.106 -0.7758  0.8853 -0.3210
   50MOL   H18847326   1.486   4.269   2.169 -1.2397  0.4401  1.3972
   50MOL   H18947327   1.448   4.162   2.037  1.1900  0.7582  0.6206
   50MOL   H19047328   1.204   4.135   2.151  0.6568  0.0486 -1.0263
   50MOL   H19147329   1.259   4.237   2.271 -1.2829  0.7462 -0.7332
   50MOL   H19247330   1.266   4.000   2.338 -1.1492 -0.5537 -1.7988
   50MOL   H19347331   1.429   4.046   2.334  1.0685  0.6748 -1.8600
   50MOL   O19447332   1.254   3.887   2.091 -0.5996 -0.1460 -0.2430
   50MOL   C19547333   1.260   3.786   1.991  0.1298 -0.0708 -0.0266
   50MOL   C19647334   1.142   3.798   1.900 -0.2487 -0.2691 -0.4901
   50MOL   C19747335   1.131   3.938   1.832 -0.4935 -0.0193 -0.6818
   50MOL   C19847336   1.035   3.938   1.706  0.1993  0.0222  0.8919
   50MOL   C19947337   1.030   4.074   1.642 -0.1384 -0.1988 -0.0539
   50MOL   C20047338   0.933   4.078   1.518  0.8383  0.0002 -0.4090
   50MOL   C20147339   0.784   4.037   1.550  0.4093 -0.2290 -0.1010
   50MOL   C20247340   0.680   4.101   1.452 -0.5849 -0.1398  0.0341
   50MOL   C20347341   0.539   4.082   1.500  0.3626  0.1440 -0.6780
   50MOL   C20447342   0.432   4.111   1.397 -0.1010 -0.7248  0.9352
   50MOL   O20547343   0.307   4.110   1.466 -0.7010 -0.3731 -0.4360
   50MOL   C20647344   0.224   4.211   1.441 -0.4830  0.1492 -0.1288
   50MOL   O20747345   0.241   4.302   1.359 -0.0478  0.0807 -0.1881
   50MOL   C20847346   0.101   4.215   1.540 -0.2625 -0.1762  0.0759
   50MOL   C20947347   0.124   4.169   1.688 -0.7972  0.0542 -0.0473
   50MOL   C21047348   0.234   4.243   1.768 -0.2799 -0.9974 -0.4449
   50MOL   C21147349   0.177   4.377   1.831 -0.1994  0.9629  0.3092
   50MOL   C21247350   0.272   4.443   1.925 -0.1575  0.0887 -0.4630
   50MOL   O21347351   0.360   4.380   1.983 -0.7167  0.0739 -0.7745
   50MOL   H21447352   1.354   3.783   1.935  0.4043 -2.2156  0.5097
   50MOL   H21547353   1.263   3.692   2.046  1.4246 -0.2279 -0.3528
   50MOL   H21647354   1.055   3.768   1.959  0.3647 -0.3806  0.3661
   50MOL   H21747355   1.150   3.725   1.819 -0.2418  0.4690 -1.1595
   50MOL   H21847356   1.099   4.020   1.897 -2.0326 -2.3711  1.6330
   50MOL   H21947357   1.230   3.957   1.791 -0.2539 -0.7819 -0.4651
   50MOL   H22047358   0.932   3.920   1.736  0.0187  0.7115  0.7049
   50MOL   H22147359   1.059   3.860   1.634 -0.1860 -0.2116  1.0163
   50MOL   H22247360   1.131   4.106   1.617  0.2634 -0.7624  0.8279
   50MOL   H22347361   0.986   4.136   1.720 -0.7101 -0.0048 -0.5254
   50MOL   H22447362   0.975   4.029   1.431  0.9109 -0.8747  0.1110
   50MOL   H22547363   0.927   4.182   1.486 -2.0611  0.2143  0.6801
   50MOL   H22647364   0.767   4.053   1.657 -1.8594 -2.5022 -0.0745
   50MOL   H22747365   0.773   3.928   1.548  1.2641 -0.3910  2.2164
   50MOL   H22847366   0.702   4.049   1.359 -0.8760 -0.4473  0.1377
   50MOL   H22947367   0.699   4.208   1.444 -1.3029 -0.0238 -0.1891
   50MOL   H23047368   0.535   3.980   1.537  2.9505  1.3220  3.2282
   50MOL   H23147369   0.522   4.148   1.585 -0.0317  0.0117 -0.6533
   50MOL   H23247370   0.434   4.031   1.323 -0.9303 -0.0422  0.1617
   50MOL   H23347371   0.450   4.209   1.353 -0.4949 -1.6485 -1.3636
   50MOL   H23447372   0.091   4.323   1.534  0.2087 -0.2386 -2.7339
   50MOL   H23547373   0.008   4.191   1.488  1.1384 -1.1407 -2.0568
   50MOL   H23647374   0.155   4.066   1.667 -0.5506  0.3388 -1.0982
   50MOL   H23747375   0.029   4.160   1.741 -0.4466 -1.8581  0.2891
   50MOL   H23847376   0.328   4.265   1.717  0.7798  0.7024  2.1409
   50MOL   H23947377   0.244   4.178   1.854  1.7190 -1.8021 -1.2614
   50MOL   H24047378   0.094   4.375   1.901 -0.6186 -3.4929 -0.1731
   50MOL   H24147379   0.151   4.451   1.755 -2.4408  2.1082  2.1316
   50MOL   O24247380   0.255   4.575   1.939 -0.5194  0.1518 -0.2625
   50MOL   C24347381   0.348   4.640   2.020  0.0757 -0.2594  0.7063
   50MOL   C24447382   0.334   4.792   2.004 -0.0480 -0.4969 -0.4531
   50MOL   C24547383   0.447   4.879   2.077 -0.3042  0.1145  0.3037
   50MOL   C24647384   0.445   5.025   2.035 -0.5799 -0.4815 -0.4424
   50MOL   C24747385   0.570   5.107   2.082  0.0493 -0.9991  0.3985
   50MOL   C24847386   0.607   5.093   2.232 -0.2832  0.0947 -0.8401
   50MOL   C24947387   0.717   4.990   2.267 -0.1699  0.3334 -0.1451
   50MOL   C25047388   0.773   5.008   2.410 -0.0829 -0.3731  0.1538
   50MOL   C25147389   0.874   5.127   2.428  0.2198 -0.1561  0.0080
   50MOL   C25247390   0.904   5.145   2.580  0.0165  0.4241 -0.0462
   50MOL   O25347391   0.974   5.034   2.638 -0.7324  0.4669 -0.1826
   50MOL   C25447392   1.110   5.026   2.634 -0.0783  0.0890 -0.1704
   50MOL   O25547393   1.181   5.114   2.586  0.4340  0.5280  0.6269
   50MOL   C25647394   1.166   4.893   2.681 -0.1623  0.7385  0.0222
   50MOL   C25747395   1.290   4.904   2.771  0.4798 -0.7612  0.5919
   50MOL   C25847396   1.424   4.892   2.697  0.4845  0.2781  0.0979
   50MOL   C25947397   1.543   4.940   2.789 -0.1562 -0.5238  0.9054
   50MOL   C26047398   1.562   4.841   2.901  0.6408  1.0408  0.8672
   50MOL   O26147399   1.521   4.856   3.012 -0.8526 -0.3133 -0.0263
   50MOL   H26247400   0.342   4.606   2.123 -0.1932 -3.6730 -0.3673
   50MOL   H26347401   0.449   4.612   1.990  0.3875  1.3839  0.1753
   50MOL   H26447402   0.237   4.827   2.038 -0.5987 -1.5186 -0.9356
   50MOL   H26547403   0.338   4.815   1.897 -0.7955 -1.3998 -0.6825
   50MOL   H26647404   0.450   4.860   2.184  0.5137 -2.5899 -0.1413
   50MOL   H26747405   0.549   4.849   2.052  0.0431  2.2675 -0.9300
   50MOL   H26847406   0.365   5.078   2.086 -1.3654 -2.4433  0.4019
   50MOL   H26947407   0.428   5.032   1.927  1.3695 -1.0549 -0.8019
   50MOL   H27047408   0.548   5.213   2.075  1.4840 -0.7848 -1.5612
   50MOL   H27147409   0.656   5.102   2.014 -0.1046 -0.6327  0.1742
   50MOL   H27247410   0.524   5.086   2.302 -0.5901 -0.1047 -1.2279
   50MOL   H27347411   0.650   5.190   2.258 -1.9446  0.1916  1.6674
   50MOL   H27447412   0.805   5.006   2.204  1.4583  2.1346  2.5220
   50MOL   H27547413   0.675   4.889   2.264  0.9068 -0.1295  0.2240
   50MOL   H27647414   0.814   4.915   2.450  0.1490  0.5184  2.0590
   50MOL   H27747415   0.680   5.014   2.467  0.1901 -0.5462  0.6202
   50MOL   H27847416   0.965   5.110   2.370  0.6885  0.4063  0.5736
   50MOL   H27947417   0.827   5.215   2.383 -2.2627 -0.2370  2.3587
   50MOL   H28047418   0.814   5.147   2.642 -0.1718 -3.9804 -0.0665
   50MOL   H28147419   0.951   5.241   2.600 -0.0438  0.3464  0.4800
   50MOL   H28247420   1.085   4.859   2.746  1.3139 -1.5790  0.7030
   50MOL   H28347421   1.188   4.828   2.596  0.3883  1.7231 -0.5878
   50MOL   H28447422   1.278   4.824   2.844  0.6023 -0.9396  0.4168
   50MOL   H28547423   1.287   5.000   2.822 -1.8236 -0.2421 -0.4620
   50MOL   H28647424   1.417   4.956   2.609  0.2087  0.3978  0.2064
   50MOL   H28747425   1.448   4.793   2.656 -1.4618  0.4023 -1.3987
   50MOL   H28847426   1.533   5.040   2.830  4.2816  1.0829 -1.5592
   50MOL   H28947427   1.630   4.937   2.723  0.4898  2.6089  1.5461
   50MOL   O29047428   1.625   4.727   2.853 -0.3331 -0.2090 -0.6823
   50MOL   C29147429   1.669   4.631   2.943  0.6798 -0.0157  0.5088
   50MOL   C29247430   1.548   4.543   2.997 -0.2742 -0.1506  0.0477
   50MOL   C29347431   1.589   4.434   3.109 -0.2102  0.1092  0.0977
   50MOL   C29447432   1.540   4.295   3.087 -0.1130 -0.5780  0.1391
   50MOL   C29547433   1.606   4.196   3.178 -0.1241  0.1080 -0.8412
   50MOL   C29647434   1.542   4.053   3.160  0.0247 -0.1143  0.8613
   50MOL   C29747435   1.603   3.975   3.044  0.4966  0.2287 -0.3294
   50MOL   C29847436   1.572   3.826   3.053  0.4241  0.0348  0.0422
   50MOL   C29947437   1.646   3.747   2.938  0.0876  0.1927  0.2334
   50MOL   C30047438   1.577   3.619   2.922 -0.1143 -0.1660  0.3397
   50MOL   O30147439   1.641   3.523   2.834 -0.5048 -0.3395 -0.1606
   50MOL   C30247440   1.577   3.412   2.798 -0.5143 -1.0071 -0.4003
   50MOL   O30347441   1.465   3.376   2.838 -0.4404 -0.7759  0.3504
   50MOL   C30447442   1.646   3.334   2.691 -0.0106 -0.0388  0.4732
   50MOL   C30547443   1.548   3.238   2.607 -0.1301 -0.0839 -0.2771
   50MOL   C30647444   1.449   3.314   2.525  0.1682 -0.2304  0.2909
   50MOL   C30747445   1.370   3.227   2.422  0.7110 -0.2399  0.1858
   50MOL   C30847446   1.256   3.144   2.480 -0.2539 -0.3114 -0.7319
   50MOL   O30947447   1.229   3.156   2.598  0.3802  0.2161 -0.0004
   50MOL   H31047448   1.752   4.578   2.895  3.1368  2.5602  1.7615
   50MOL   H31147449   1.727   4.678   3.023  0.1444  1.0639  0.2665
   50MOL   H31247450   1.492   4.501   2.914 -0.8348 -0.6605  0.6859
   50MOL   H31347451   1.475   4.611   3.041 -1.8628 -1.9631  0.2299
   50MOL   H31447452   1.696   4.437   3.128  0.0998 -1.8020 -1.2537
   50MOL   H31547453   1.534   4.469   3.196 -2.9101 -0.3695 -1.3494
   50MOL   H31647454   1.548   4.273   2.980 -0.9667  0.9863 -0.2738
   50MOL   H31747455   1.433   4.295   3.105 -0.6339 -1.6166 -2.7092
   50MOL   H31847456   1.581   4.238   3.275 -0.1707  1.3008 -1.3629
   50MOL   H31947457   1.714   4.203   3.177 -0.0771 -0.0697  0.8447
   50MOL   H32047458   1.433   4.052   3.148  0.0069 -0.4389  1.0306
   50MOL   H32147459   1.562   3.991   3.247  1.9067 -0.8581 -0.0707
   50MOL   H32247460   1.709   3.998   3.035  0.9117 -1.3206  0.4096
   50MOL   H32347461   1.567   4.013   2.948  0.9633  0.7944 -0.2810
   50MOL   H32447462   1.468   3.822   3.022  0.7055  1.8770 -1.2640
   50MOL   H32547463   1.564   3.775   3.149 -0.1905 -0.7529 -0.4230
   50MOL   H32647464   1.645   3.808   2.848  0.0485 -0.2467 -0.0658
   50MOL   H32747465   1.746   3.736   2.979 -0.1094 -1.5381  0.3040
   50MOL   H32847466   1.477   3.628   2.880 -0.1965 -0.5936  0.4348
   50MOL   H32947467   1.578   3.570   3.020 -2.0980 -1.6391 -0.3469
   50MOL   H33047468   1.687   3.406   2.619 -1.6102  2.8310  2.3223
   50MOL   H33147469   1.728   3.276   2.732 -1.3505 -1.4849  1.1307
   50MOL   H33247470   1.508   3.160   2.673 -1.3057  0.2025 -0.6347
   50MOL   H33347471   1.615   3.181   2.543 -0.5488 -1.1814  0.2395
   50MOL   H33447472   1.502   3.386   2.461  1.6516  1.1133  2.9661
   50MOL   H33547473   1.378   3.378   2.576  0.1583 -0.3130  0.3799
   50MOL   H33647474   1.430   3.153   2.368 -1.6433 -2.6958  0.8320
   50MOL   H33747475   1.324   3.301   2.356 -0.8090 -0.9145  0.4906
   50MOL   O33847476   1.187   3.074   2.384 -0.1776 -0.0681 -0.5468
   50MOL   C33947477   1.082   2.991   2.407  0.2076  0.2718  0.2794
   50MOL   C34047478   0.946   3.060   2.409  0.3550  0.2970 -0.4634
   50MOL   C34147479   0.839   2.958   2.444 -0.2394 -0.0094  0.0238
   50MOL   C34247480   0.706   3.018   2.473  0.2470  0.0513  0.1192
   50MOL   C34347481   0.591   2.920   2.471 -0.0331 -0.4205  0.5861
   50MOL   C34447482   0.570   2.849   2.609  0.5288  0.6551 -0.8095
   50MOL   C34547483   0.452   2.748   2.616 -0.5124  0.5256 -0.1251
   50MOL   C34647484   0.428   2.671   2.753  0.0262  0.1792  0.0694
   50MOL   C34747485   0.350   2.757   2.853 -0.5173  0.5535 -0.4842
   50MOL   C34847486   0.311   2.676   2.975 -0.2378  0.2322 -0.0308
   50MOL   O34947487   0.432   2.627   3.025  0.7034 -0.6081 -0.0561
   50MOL   C35047488   0.489   2.683   3.142  0.1879  0.0437  0.2351
   50MOL   O35147489   0.424   2.753   3.219  0.4779  0.1416 -0.0130
   50MOL   C35247490   0.634   2.657   3.162 -0.0394  0.0568 -0.0192
   50MOL   C35347491   0.711   2.748   3.053  0.0801 -0.0149 -0.8690
   50MOL   C35447492   0.763   2.661   2.939  0.8591  0.0517  0.9122
   50MOL   C35547493   0.895   2.597   2.978 -0.3123 -0.9535  0.0782
   50MOL   C35647494   1.017   2.688   2.936  0.0241  0.1652  0.0488
   50MOL   O35747495   1.101   2.640   2.855 -0.3660 -0.9903 -0.5870
   50MOL   H35847496   1.072   2.924   2.322 -0.1702 -2.3932  2.3323
   50MOL   H35947497   1.109   2.918   2.483  1.5042  0.6224  0.1649
   50MOL   H36047498   0.917   3.104   2.313 -1.6707  0.2505  0.0896
   50MOL   H36147499   0.945   3.140   2.483 -0.2286 -0.1497  0.0190
   50MOL   H36247500   0.822   2.891   2.359  0.6705 -0.3713  0.1140
   50MOL   H36347501   0.876   2.904   2.531 -0.8173  0.1166  0.3459
   50MOL   H36447502   0.683   3.087   2.391  1.0882  4.4212  3.3394
   50MOL   H36547503   0.700   3.076   2.565  3.5839 -2.3655  1.9460
   50MOL   H36647504   0.608   2.849   2.390 -0.9603 -0.0012  0.0010
   50MOL   H36747505   0.501   2.977   2.445  1.4442  1.3776 -0.7859
   50MOL   H36847506   0.552   2.925   2.684  2.5449  1.0809 -0.7511
   50MOL   H36947507   0.663   2.802   2.640 -0.4053 -1.5093 -1.1723
   50MOL   H37047508   0.485   2.675   2.542  0.9085 -1.6279  2.5494
   50MOL   H37147509   0.362   2.801   2.585 -0.1981  1.7078  0.9346
   50MOL   H37247510   0.529   2.659   2.793 -1.2286 -0.3652  3.2297
   50MOL   H37347511   0.390   2.571   2.733  1.2507  0.2544 -2.9236
   50MOL   H37447512   0.412   2.843   2.879  1.1335 -0.6717 -0.2547
   50MOL   H37547513   0.262   2.798   2.803 -0.8860  1.0916  0.6084
   50MOL   H37647514   0.245   2.591   2.956 -1.9726  1.2849  1.0991
   50MOL   H37747515   0.253   2.744   3.038 -1.0167  0.0648 -0.5613
   50MOL   H37847516   0.676   2.671   3.261 -0.8644 -1.8445  0.6257
   50MOL   H37947517   0.632   2.549   3.147  1.0046 -0.3146  2.3133
   50MOL   H38047518   0.783   2.813   3.103 -0.8424 -0.0929  0.5878
   50MOL   H38147519   0.639   2.815   3.008  0.1068  0.7626  0.2327
   50MOL   H38247520   0.769   2.712   2.843  0.6220 -0.7656  0.4569
   50MOL   H38347521   0.697   2.577   2.915  1.8176 -0.3576 -0.3811
   50MOL   H38447522   0.906   2.503   2.924 -4.6928 -1.8817  0.5663
   50MOL   H38547523   0.902   2.576   3.084 -0.3934 -2.1145 -0.1321
   50MOL   O38647524   1.021   2.799   3.002 -0.0900  0.4365  0.3524
   50MOL   C38747525   1.131   2.882   2.983 -0.1136 -0.0550  0.3476
   50MOL   C38847526   1.110   2.991   2.877 -0.1747 -0.3225 -0.3909
   50MOL   C38947527   0.978   3.074   2.888  0.0640 -0.1115 -0.2952
   50MOL   C39047528   0.962   3.186   2.780 -0.3958  0.2407  0.2107
   50MOL   C39147529   0.835   3.275   2.804 -0.2001  0.2008 -0.3422
   50MOL   C39247530   0.829   3.403   2.715 -0.2126  0.2569  0.1892
   50MOL   C39347531   0.720   3.501   2.762 -0.0631  0.8455 -0.2426
   50MOL   C39447532   0.732   3.551   2.908  0.0881  0.5020 -0.8113
   50MOL   C39547533   0.625   3.654   2.949  0.0198 -0.1705 -0.1759
   50MOL   C39647534   0.662   3.718   3.083  0.0922 -0.7681 -0.7069
   50MOL   O39747535   0.543   3.761   3.139 -0.0340  0.9131 -0.1138
   50MOL   C39847536   0.472   3.680   3.211 -0.2618  0.4089 -0.3925
   50MOL   O39947537   0.484   3.556   3.213 -0.5092 -0.2751 -0.4487
   50MOL   C40047538   0.358   3.744   3.291 -0.3272 -0.1371  0.4132
   50MOL   C40147539   0.379   3.716   3.434 -0.9160 -0.0560 -0.3743
   50MOL   C40247540   0.261   3.753   3.530  0.5119 -0.6392 -0.3883
   50MOL   C40347541   0.275   3.708   3.671  0.1565 -0.4281 -0.3301
   50MOL   C40447542   0.173   3.768   3.768  0.8666  0.4844 -0.0273
   50MOL   O40547543   0.060   3.793   3.731 -1.0547  0.6681 -0.3374
   50MOL   H40647544   1.138   2.925   3.083 -2.1442  0.8725  0.1082
   50MOL   H40747545   1.215   2.815   2.965  0.0907  0.6069 -1.2288
   50MOL   H40847546   1.110   2.940   2.780 -2.7321 -0.6193 -0.2665
   50MOL   H40947547   1.194   3.059   2.890 -0.6842  0.2878 -0.2831
   50MOL   H41047548   0.896   3.004   2.875 -1.7700  1.7088  1.1647
   50MOL   H41147549   0.982   3.117   2.988  2.6909  0.1857 -0.4830
   50MOL   H41247550   0.953   3.132   2.686  1.8021 -2.6811  1.6090
   50MOL   H41347551   1.051   3.246   2.760 -0.9859  0.1643 -2.9667
   50MOL   H41447552   0.842   3.309   2.908  1.2554 -0.3744 -0.2306
   50MOL   H41547553   0.751   3.208   2.789  1.0545 -1.1544 -1.5198
   50MOL   H41647554   0.815   3.379   2.609  1.0645 -2.3284  0.5569
   50MOL   H41747555   0.926   3.444   2.742 -1.1970  2.9672 -0.2759
   50MOL   H41847556   0.621   3.457   2.765  0.5898 -0.6581 -0.0585
   50MOL   H41947557   0.709   3.582   2.690 -1.7806 -0.1050 -1.0735
   50MOL   H42047558   0.833   3.580   2.938 -0.3260  0.2629  0.8814
   50MOL   H42147559   0.701   3.465   2.969 -0.1309  1.8270  0.9952
   50MOL   H42247560   0.612   3.727   2.869 -0.4632 -0.1332 -0.0624
   50MOL   H42347561   0.529   3.603   2.952 -0.0643 -0.0018 -0.0071
   50MOL   H42447562   0.735   3.798   3.069 -1.4631  1.1617  1.7421
   50MOL   H42547563   0.716   3.649   3.147  0.5629 -0.0149 -0.2743
   50MOL   H42647564   0.350   3.851   3.269 -2.3033 -0.4960 -0.6624
   50MOL   H42747565   0.272   3.693   3.248 -1.9793  2.4985  0.4653
   50MOL   H42847566   0.472   3.760   3.471 -0.6836 -0.7524 -0.1246
   50MOL   H42947567   0.406   3.613   3.456  2.2700  0.9179  0.5439
   50MOL   H43047568   0.166   3.716   3.490  0.9937 -2.8586  0.4424
   50MOL   H43147569   0.249   3.861   3.530 -1.8462 -0.8659 -2.2007
   50MOL   H43247570   0.371   3.726   3.720 -0.1434 -1.8375  0.8312
   50MOL   H43347571   0.257   3.601   3.657  2.2566 -1.2594  2.6639
   50MOL   O43447572   0.229   3.791   3.885 -0.1683  0.4141 -0.1057
   50MOL   C43547573   0.149   3.831   4.006 -0.0940 -0.6578  0.4216
   50MOL   C43647574   0.107   3.719   4.102 -0.2688 -0.2308  0.0860
   50MOL   C43747575   0.208   3.630   4.177 -0.3970 -0.5375  0.4049
   50MOL   C43847576   0.130   3.528   4.255 -0.0453 -0.6267  0.8290
   50MOL   C43947577   0.216   3.438   4.339 -0.9995 -0.4626  0.4394
   50MOL   C44047578   0.134   3.340   4.420 -0.2579  0.3728 -0.3712
   50MOL   C44147579   0.225   3.246   4.506  0.0407  0.0939  1.4342
   50MOL   C44247580   0.155   3.156   4.602 -0.4491  0.4259  0.0797
   50MOL   C44347581   0.237   3.036   4.654  0.0842 -0.1578 -0.5232
   50MOL   C44447582   0.197   2.977   4.791 -0.1777  0.0276  0.2451
   50MOL   O44547583   0.304   2.900   4.836  0.3970 -0.3060  0.4910
   50MOL   C44647584   0.273   2.804   4.918 -0.2405  0.3960 -0.5528
   50MOL   O44747585   0.172   2.799   4.990  0.2050  0.4670  0.5694
   50MOL   C44847586   0.386   2.703   4.933  0.0557 -0.3470 -0.0885
   50MOL   C44947587   0.519   2.773   4.930 -0.9376  0.0098  0.1257
   50MOL   C45047588   0.638   2.668   4.962 -0.0167 -0.9084 -0.0779
   50MOL   C45147589   0.788   2.710   4.970 -0.0510  0.2250  0.4233
   50MOL   C45247590   0.848   2.788   4.863 -0.6093 -0.3182  0.2812
   50MOL   O45347591   0.796   2.803   4.752 -0.2307 -0.0910  0.3392
   50MOL   H45447592   0.210   3.895   4.070 -1.4987  1.2490 -0.0694
   50MOL   H45547593   0.060   3.884   3.972  1.4641  0.2541 -2.4146
   50MOL   H45647594   0.033   3.658   4.050  1.2721 -1.5617 -0.6139
   50MOL   H45747595   0.053   3.769   4.183 -1.3763  1.9288 -1.8972
   50MOL   H45847596   0.269   3.573   4.108  0.5191  1.0049 -0.0669
   50MOL   H45947597   0.270   3.694   4.240  1.6790 -0.7686 -1.3563
   50MOL   H46047598   0.078   3.468   4.180 -0.4258 -1.4829  1.7691
   50MOL   H46147599   0.049   3.568   4.316  0.8405  2.0780  0.2838
   50MOL   H46247600   0.279   3.499   4.405 -0.0487 -0.0640 -0.8223
   50MOL   H46347601   0.288   3.378   4.284  0.5878  0.4807  1.4463
   50MOL   H46447602   0.070   3.278   4.357  0.5204 -0.6916 -0.1508
   50MOL   H46547603   0.063   3.395   4.480 -1.3486 -0.2902 -1.0274
   50MOL   H46647604   0.292   3.311   4.561  1.2072  0.5256 -0.4381
   50MOL   H46747605   0.288   3.192   4.435 -0.8274 -1.1369  1.5867
   50MOL   H46847606   0.060   3.119   4.564 -1.0809  0.2481  1.8029
   50MOL   H46947607   0.129   3.216   4.689  1.4261 -0.6959  1.4760
   50MOL   H47047608   0.236   2.961   4.575 -1.7392 -1.2920  0.5596
   50MOL   H47147609   0.337   3.076   4.668  0.5682 -0.5259 -2.7575
   50MOL   H47247610   0.102   2.924   4.775 -1.3842  2.6916 -1.7599
   50MOL   H47347611   0.171   3.054   4.863  0.0970 -0.1556  0.5401
   50MOL   H47447612   0.383   2.660   5.033  0.1694 -0.7203 -0.2447
   50MOL   H47547613   0.374   2.621   4.862 -1.3333 -0.2158 -0.0186
   50MOL   H47647614   0.528   2.838   5.016  0.9080  2.1390 -1.6040
   50MOL   H47747615   0.544   2.818   4.834 -1.9334 -0.4098 -0.3444
   50MOL   H47847616   0.631   2.583   4.894  0.8129 -0.9647 -0.0932
   50MOL   H47947617   0.618   2.617   5.057  2.8786  0.8782  1.5457
   50MOL   H48047618   0.852   2.624   4.989  0.5448  0.6732  0.4534
   50MOL   H48147619   0.797   2.778   5.054 -3.6378  0.4490  0.7413
   50MOL   O48247620   0.971   2.836   4.899 -0.4578 -0.0542  0.0397
   50MOL   C48347621   1.065   2.879   4.801  0.0695  0.4389 -0.0144
   50MOL   C48447622   1.034   3.016   4.748  0.3045  0.4068 -0.4259
   50MOL   C48547623   1.141   3.066   4.656  0.0922 -0.5537 -0.0223
   50MOL   C48647624   1.130   3.213   4.618  0.1009  0.3537 -0.3210
   50MOL   C48747625   1.250   3.254   4.535  0.3440  0.6131 -0.1655
   50MOL   C48847626   1.376   3.293   4.603 -0.3807 -0.5250 -0.1694
   50MOL   C48947627   1.500   3.244   4.522  0.7046 -0.1335 -0.5695
   50MOL   C49047628   1.630   3.277   4.593  0.1237 -1.0224  0.5108
   50MOL   C49147629   1.757   3.209   4.524  0.2158  0.6273 -0.0194
   50MOL   C49247630   1.832   3.142   4.632 -2.0279  0.3343  0.1363
   50MOL   O49347631   1.946   3.082   4.581 -0.8027  0.0384 -0.0008
   50MOL   C49447632   2.032   3.015   4.659  0.1245 -0.9809  0.4838
   50MOL   O49547633   2.036   3.025   4.778  0.0200 -0.3795 -0.0820
   50MOL   C49647634   2.142   2.940   4.578  0.5169 -0.4435  0.1355
   50MOL   C49747635   2.099   2.798   4.534 -0.5136  0.0603  0.9095
   50MOL   C49847636   2.217   2.710   4.489 -0.0265  0.3488 -0.0479
   50MOL   C49947637   2.267   2.743   4.348  0.1387 -0.3646  0.3325
   50MOL   C50047638   2.189   2.684   4.231 -0.1607  0.7229 -0.3135
   50MOL   O50147639   2.127   2.761   4.157  0.0654 -0.2102  0.2042
   50MOL   H50247640   1.163   2.876   4.848  1.0608  0.1320 -2.0469
   50MOL   H50347641   1.071   2.805   4.722 -1.2225  1.3174 -0.9613
   50MOL   H50447642   1.036   3.088   4.831 -4.0456 -1.4295  1.4244
   50MOL   H50547643   0.934   3.022   4.707 -0.6295 -0.1399  1.7050
   50MOL   H50647644   1.238   3.049   4.702 -0.8489 -0.2356  2.1511
   50MOL   H50747645   1.141   3.005   4.566 -3.2776 -0.9413  0.1852
   50MOL   H50847646   1.124   3.278   4.705 -1.1101  1.0893 -0.9283
   50MOL   H50947647   1.034   3.227   4.567  0.1378  1.6758 -0.0478
   50MOL   H51047648   1.228   3.343   4.476 -1.2847  0.4281  0.1343
   50MOL   H51147649   1.272   3.166   4.474  1.9441 -0.5390  2.0173
   50MOL   H51247650   1.375   3.228   4.690  0.4692  0.1901  0.3897
   50MOL   H51347651   1.383   3.402   4.606 -1.0908 -0.4741 -0.3517
   50MOL   H51447652   1.490   3.291   4.424  2.5587  0.3808 -0.5238
   50MOL   H51547653   1.498   3.135   4.511 -1.2006 -0.2118  0.2967
   50MOL   H51647654   1.623   3.241   4.695 -0.6582  0.2838  0.9250
   50MOL   H51747655   1.637   3.385   4.583 -0.6958 -1.0264 -0.1810
   50MOL   H51847656   1.733   3.130   4.453  0.1999  0.8498 -0.2620
   50MOL   H51947657   1.811   3.288   4.472 -0.8253  1.4747  0.1872
   50MOL   H52047658   1.773   3.063   4.678 -1.4165 -0.1399  0.1212
   50MOL   H52147659   1.863   3.220   4.703 -1.1286  1.3641 -1.3631
   50MOL   H52247660   2.164   2.991   4.484  1.0213  0.2548  0.6298
   50MOL   H52347661   2.237   2.929   4.632  0.9734 -1.3426 -0.8262
   50MOL   H52447662   2.015   2.811   4.465 -1.0336 -0.9633  1.3334
   50MOL   H52547663   2.051   2.744   4.616 -0.0393 -3.5010 -1.0734
   50MOL   H52647664   2.195   2.604   4.500  0.5446  0.0416 -1.7637
   50MOL   H52747665   2.297   2.711   4.562  0.6994  1.1441 -0.8446
   50MOL   H52847666   2.368   2.705   4.335 -0.5944 -2.3862  0.4998
   50MOL   H52947667   2.278   2.851   4.335 -1.0450 -0.0953  1.4270
   50MOL   O53047668   2.173   2.546   4.226 -0.0463  0.2502 -0.4457
   50MOL   C53147669   2.087   2.483   4.126  0.3234 -0.3947 -0.2995
   50MOL   C53247670   2.162   2.453   3.992  0.3760  0.1254  0.0569
   50MOL   C53347671   2.191   2.582   3.906  0.3004 -0.5171  0.1180
   50MOL   C53447672   2.231   2.544   3.757  0.5567 -0.3724 -0.9363
   50MOL   C53547673   2.287   2.671   3.694 -0.2546  0.1630 -0.0707
   50MOL   C53647674   2.335   2.656   3.549  0.1215 -0.3435  0.0376
   50MOL   C53747675   2.399   2.790   3.510  0.5762  0.2664  0.4637
   50MOL   C53847676   2.446   2.784   3.362  0.1654 -0.6035  0.0024
   50MOL   C53947677   2.535   2.901   3.314 -0.1993  0.0989 -0.6160
   50MOL   C54047678   2.463   3.039   3.309  0.1685  0.6539 -0.3375
   50MOL   O54147679   2.461   3.088   3.445  0.0788  0.9353 -0.4775
   50MOL   C54247680   2.351   3.154   3.491  0.2816  0.0971  0.4973
   50MOL   O54347681   2.253   3.184   3.422 -0.2430 -0.9283  0.2544
   50MOL   C54447682   2.355   3.192   3.646 -0.3671  0.0776  0.2517
   50MOL   C54547683   2.375   3.074   3.740  0.6670 -0.5998  0.1623
   50MOL   C54647684   2.347   3.094   3.889 -0.2338  0.8186  0.1938
   50MOL   C54747685   2.342   2.963   3.979 -0.0416 -0.1175  0.2292
   50MOL   C54847686   2.483   2.919   4.027 -0.2061 -0.5218  0.3426
   50MOL   O54947687   2.586   2.981   3.997  0.5040  0.2663 -0.5068
   50MOL   H55047688   2.043   2.397   4.177  0.6321 -0.7717 -0.6688
   50MOL   H55147689   1.998   2.539   4.096 -0.1379 -0.6008  0.6509
   50MOL   H55247690   2.093   2.402   3.925 -0.7365 -0.4015  1.5763
   50MOL   H55347691   2.253   2.397   4.016  0.5662  1.0319  1.4827
   50MOL   H55447692   2.101   2.643   3.907  0.1640 -0.7020 -0.4746
   50MOL   H55547693   2.261   2.641   3.965  0.5433  0.3122 -0.9770
   50MOL   H55647694   2.140   2.518   3.704  0.2544 -1.1561 -0.0534
   50MOL   H55747695   2.307   2.467   3.747 -1.8686 -3.2049  1.3561
   50MOL   H55847696   2.370   2.712   3.752  2.5229 -2.6481 -1.8915
   50MOL   H55947697   2.213   2.751   3.692 -0.1958  0.2380  0.6628
   50MOL   H56047698   2.260   2.610   3.484  0.2546 -2.8676  1.6162
   50MOL   H56147699   2.413   2.580   3.550 -0.5653 -1.0477  0.6231
   50MOL   H56247700   2.484   2.824   3.569  2.0911 -3.6798  0.6791
   50MOL   H56347701   2.319   2.864   3.514  0.9039  0.8116 -1.9543
   50MOL   H56447702   2.350   2.793   3.310 -0.8450 -3.7601  1.2072
   50MOL   H56547703   2.509   2.702   3.328  0.5626  0.0346 -0.8253
   50MOL   H56647704   2.628   2.894   3.370 -1.9537  0.8781  2.4888
   50MOL   H56747705   2.565   2.884   3.210  2.3626  2.2487 -0.2762
   50MOL   H56847706   2.360   3.038   3.273 -0.8994  0.9447  2.5865
   50MOL   H56947707   2.517   3.109   3.245 -0.7695  0.6015 -1.1851
   50MOL   H57047708   2.425   3.275   3.659 -0.4437  0.0312  0.9602
   50MOL   H57147709   2.260   3.242   3.666 -1.7596 -2.7419  0.9795
   50MOL   H57247710   2.474   3.030   3.730  0.7239 -0.0617 -2.0303
   50MOL   H57347711   2.295   3.004   3.716  2.1529 -2.3389  0.1447
   50MOL   H57447712   2.253   3.148   3.904 -0.1638  0.6313  1.3711
   50MOL   H57547713   2.423   3.158   3.935  0.5807 -0.9842  1.4003
   50MOL   H57647714   2.294   2.873   3.940 -0.6664  0.3882 -0.1735
   50MOL   H57747715   2.279   3.000   4.059  0.6789  0.9787  0.3017
   50MOL   O57847716   2.476   2.814   4.101  0.3810 -0.6239  0.0268
   50MOL   C57947717   2.598   2.747   4.148 -0.0187  0.3154 -0.1055
   50MOL   C58047718   2.592   2.600   4.134  0.0079  0.0349 -0.1153
   50MOL   C58147719   2.574   2.551   3.989 -0.1441 -0.0311  0.5953
   50MOL   C58247720   2.688   2.588   3.885  0.4962  0.0302 -0.3905
   50MOL   C58347721   2.651   2.539   3.741  0.3130  0.4198  0.4136
   50MOL   C58447722   2.753   2.598   3.637  0.1924 -0.3718  0.4811
   50MOL   C58547723   2.732   2.529   3.497 -0.1008  0.9132 -0.4307
   50MOL   C58647724   2.796   2.594   3.378 -0.0210  0.0518 -0.2942
   50MOL   C58747725   2.783   2.514   3.243 -0.1478  0.0959  0.4128
   50MOL   C58847726   2.862   2.566   3.117 -0.1231  0.0153  0.2482
   50MOL   O58947727   2.842   2.503   2.992 -0.4605  0.1804  0.2892
   50MOL   C59047728   2.730   2.521   2.917 -0.6296  0.5429  0.3369
   50MOL   O59147729   2.633   2.592   2.949 -0.2323  0.1488 -0.0446
   50MOL   C59247730   2.736   2.441   2.794 -0.1912  0.2548 -0.7840
   50MOL   C59347731   2.615   2.353   2.771  0.3452 -0.4834 -0.7861
   50MOL   C59447732   2.596   2.299   2.632 -0.5925 -0.6180 -0.2282
   50MOL   C59547733   2.465   2.224   2.618  0.6141  0.4380 -0.1182
   50MOL   C59647734   2.478   2.089   2.688 -0.0091 -0.1193  0.3710
   50MOL   O59747735   2.553   2.006   2.633  0.6134  0.1424 -0.2045
   50MOL   H59847736   2.690   2.790   4.109  1.0571  0.7920  2.8220
   50MOL   H59947737   2.612   2.761   4.255 -2.0666 -1.1225  0.3794
   50MOL   H60047738   2.509   2.560   4.193  1.4668 -0.2293  1.8386
   50MOL   H60147739   2.680   2.555   4.181  0.9197  0.5362 -1.2978
   50MOL   H60247740   2.552   2.445   3.981  0.9443 -0.4245  2.4600
   50MOL   H60347741   2.482   2.594   3.951 -0.4984 -1.2414  0.0753
   50MOL   H60447742   2.779   2.538   3.916  1.0482  0.3718 -1.4390
   50MOL   H60547743   2.712   2.694   3.879 -0.1936  0.3778  2.3173
   50MOL   H60647744   2.547   2.561   3.714  0.1489 -2.4011 -1.4424
   50MOL   H60747745   2.674   2.434   3.726 -0.5607  0.1938  0.6326
   50MOL   H60847746   2.851   2.576   3.678  0.5359  2.3789  1.1773
   50MOL   H60947747   2.736   2.705   3.628  0.3832 -0.3892 -0.1564
   50MOL   H61047748   2.626   2.529   3.469  0.1096  1.5676 -1.2360
   50MOL   H61147749   2.755   2.424   3.516 -1.4323  0.5237 -0.8445
   50MOL   H61247750   2.898   2.623   3.403  0.3963 -0.4410 -1.3789
   50MOL   H61347751   2.746   2.688   3.353  0.1109 -0.2610 -1.7669
   50MOL   H61447752   2.814   2.413   3.271  1.1288  0.1214 -0.8213
   50MOL   H61547753   2.679   2.516   3.211  0.1245 -2.7118 -0.7451
   50MOL   H61647754   2.966   2.559   3.148 -0.0907 -1.1259 -0.0957
   50MOL   H61747755   2.839   2.673   3.115 -1.0531 -0.2025 -1.1182
   50MOL   H61847756   2.757   2.502   2.706 -2.1633  0.7686 -0.9075
   50MOL   H61947757   2.820   2.372   2.793  0.5318  1.1209 -0.8492
   50MOL   H62047758   2.518   2.401   2.780  2.3028  3.2586  1.5990
   50MOL   H62147759   2.618   2.273   2.844  2.6191  1.4879  1.3544
   50MOL   H62247760   2.683   2.235   2.620 -0.6440 -0.5318 -1.0766
   50MOL   H62347761   2.606   2.379   2.559  0.3942 -0.7107 -0.1952
   50MOL   H62447762   2.448   2.208   2.512 -0.6938  1.1011 -0.0166
   50MOL   H62547763   2.378   2.275   2.659  0.1387 -1.3043  1.1378
   50MOL   O62647764   2.414   2.086   2.813  0.3743  0.4234  0.0275
   50MOL   C62747765   2.454   1.980   2.895  0.3211 -0.5696 -0.5381
   50MOL   C62847766   2.568   2.033   2.993  0.3906 -1.0615  0.7967
   50MOL   C62947767   2.585   1.955   3.123 -0.0926  0.2752  0.4691
   50MOL   C63047768   2.674   2.023   3.229 -0.2143 -0.4190  0.1215
   50MOL   C63147769   2.705   1.927   3.347 -0.2848  0.0464 -0.7043
   50MOL   C63247770   2.777   1.989   3.463 -0.2525 -0.7952 -1.2058
   50MOL   C63347771   2.772   1.909   3.590  0.0237  0.8341 -0.6110
   50MOL   C63447772   2.888   1.918   3.687  0.1505 -0.2887 -0.8743
   50MOL   C63547773   2.840   1.852   3.815 -0.2623 -0.1900 -0.3563
   50MOL   C63647774   2.822   1.702   3.821 -0.0627  0.4411  0.1751
   50MOL   O63747775   2.758   1.666   3.939 -0.6152 -0.1754 -0.3058
   50MOL   C63847776   2.630   1.694   3.949  0.2345  0.0233 -0.4296
   50MOL   O63947777   2.556   1.746   3.868 -0.3089 -0.4277  0.1832
   50MOL   C64047778   2.570   1.646   4.083  0.1092 -0.3357  0.1323
   50MOL   C64147779   2.646   1.685   4.215 -0.3951 -0.5403  0.1681
   50MOL   C64247780   2.678   1.833   4.217  0.1939 -0.0286 -0.6706
   50MOL   C64347781   2.731   1.887   4.354 -0.2317  0.0042 -0.2619
   50MOL   C64447782   2.614   1.927   4.453  0.1739 -0.4064  0.3262
   50MOL   O64547783   2.601   2.045   4.497 -0.1038  0.1113  0.1943
   50MOL   H64647784   2.360   1.951   2.943  0.7384 -0.5157  0.3181
   50MOL   H64747785   2.477   1.894   2.831  1.1471  0.1224 -1.1908
   50MOL   H64847786   2.530   2.129   3.030  0.0760 -1.4360  1.4651
   50MOL   H64947787   2.660   2.047   2.937  0.0025  0.6782  0.5688
   50MOL   H65047788   2.487   1.929   3.162  0.1448 -1.0313  0.2200
   50MOL   H65147789   2.629   1.859   3.097  2.8918  1.9869 -1.1042
   50MOL   H65247790   2.619   2.112   3.259  1.3827  0.4985  0.4110
   50MOL   H65347791   2.770   2.062   3.193  0.6671  0.5912  3.3741
   50MOL   H65447792   2.755   1.836   3.313  0.1071 -0.5937  1.5472
   50MOL   H65547793   2.609   1.890   3.384 -0.6143  2.1421  0.6499
   50MOL   H65647794   2.739   2.091   3.479 -2.3067 -1.9815  2.0191
   50MOL   H65747795   2.879   2.008   3.430  0.7139 -1.7970  1.0944
   50MOL   H65847796   2.758   1.802   3.569  0.8482  1.0238 -2.1951
   50MOL   H65947797   2.679   1.925   3.645  0.0644 -1.8861  0.3731
   50MOL   H66047798   2.912   2.021   3.715  1.8019 -1.3116  1.6411
   50MOL   H66147799   2.980   1.873   3.652  1.8257  1.5456  1.0156
   50MOL   H66247800   2.913   1.878   3.892  0.3151  1.4754 -1.4512
   50MOL   H66347801   2.748   1.903   3.844 -0.2711 -0.3252 -0.1432
   50MOL   H66447802   2.919   1.652   3.824  0.4200  1.3114 -0.7527
   50MOL   H66547803   2.764   1.662   3.737 -2.3194  1.0369  1.3942
   50MOL   H66647804   2.463   1.666   4.087  0.3381  0.5892  1.8552
   50MOL   H66747805   2.577   1.538   4.067  0.7810 -0.6527  2.4102
   50MOL   H66847806   2.739   1.630   4.233  0.0238 -0.7953 -2.6287
   50MOL   H66947807   2.576   1.655   4.294  1.1468  0.8471  2.1205
   50MOL   H67047808   2.588   1.890   4.191 -1.1119 -1.8215 -0.1628
   50MOL   H67147809   2.752   1.857   4.141  1.6485 -1.2577  0.3419
   50MOL   H67247810   2.790   1.978   4.343  1.1955 -0.7866  0.6710
   50MOL   H67347811   2.799   1.811   4.393 -0.0339  0.1882 -0.2445
   50MOL   O67447812   2.526   1.825   4.484 -0.2845 -1.1191 -0.2257
   50MOL   C67547813   2.403   1.858   4.545 -0.0657 -0.5609  0.3661
   50MOL   C67647814   2.361   1.750   4.643  0.0400 -0.4246 -0.2800
   50MOL   C67747815   2.328   1.616   4.577  0.1274  0.3051 -0.2967
   50MOL   C67847816   2.293   1.514   4.681  0.5852  0.1111  0.4909
   50MOL   C67947817   2.269   1.375   4.628  0.0983  0.0908  0.0820
   50MOL   C68047818   2.245   1.259   4.732 -0.3060 -0.7379 -0.1580
   50MOL   C68147819   2.357   1.161   4.742 -0.7442  0.3302  0.2923
   50MOL   C68247820   2.326   1.043   4.832  0.0228  0.6369 -0.3420
   50MOL   C68347821   2.445   0.942   4.861  0.7748  0.5748 -0.5536
   50MOL   C68447822   2.408   0.815   4.943  0.1924  0.3229 -0.4753
   50MOL   O68547823   2.327   0.730   4.869 -0.5012  0.2213  0.7737
   50MOL   C68647824   2.245   0.646   4.930  0.4267  0.1818  0.3288
   50MOL   O68747825   2.225   0.642   5.056  0.5218 -0.4196  0.4147
   50MOL   C68847826   2.182   0.545   4.830  0.7320  0.4123  0.4191
   50MOL   C68947827   2.126   0.414   4.890  0.1010  0.1526  0.4345
   50MOL   C69047828   2.019   0.360   4.794  0.5034 -0.4448 -0.1507
   50MOL   C69147829   1.980   0.217   4.822  0.6632 -0.9206 -1.1463
   50MOL   C69247830   1.928   0.132   4.705  0.4144 -0.0309  0.1813
   50MOL   O69347831   1.847   0.173   4.621  0.0068  0.0999  0.0301
   50MOL   H69447832   2.413   1.946   4.609  0.3201  0.2288 -0.7710
   50MOL   H69547833   2.324   1.871   4.472 -0.2019 -1.7533  0.2987
   50MOL   H69647834   2.270   1.774   4.698  0.8224 -1.3034  1.4430
   50MOL   H69747835   2.434   1.742   4.723 -1.1954  0.2561  0.9502
   50MOL   H69847836   2.240   1.605   4.513 -0.3300 -2.9491  0.7946
   50MOL   H69947837   2.405   1.575   4.512  0.4245 -1.2157  0.9814
   50MOL   H70047838   2.200   1.536   4.733 -0.1703  3.6402 -2.1687
   50MOL   H70147839   2.368   1.519   4.761  0.9466  0.6340  0.1295
   50MOL   H70247840   2.356   1.371   4.563  1.4973 -2.0419  1.9655
   50MOL   H70347841   2.175   1.365   4.575  1.4721  1.6083 -2.7534
   50MOL   H70447842   2.150   1.215   4.700 -1.7228  2.6930 -0.8981
   50MOL   H70547843   2.219   1.304   4.828 -2.3037 -0.5501 -0.7577
   50MOL   H70647844   2.444   1.204   4.792  0.2393  0.2528 -1.2843
   50MOL   H70747845   2.383   1.132   4.640  0.6904  0.2096  0.6761
   50MOL   H70847846   2.236   0.989   4.802  0.8424 -0.8742 -0.0931
   50MOL   H70947847   2.296   1.096   4.923 -1.1280 -0.8371  0.1465
   50MOL   H71047848   2.492   0.920   4.766  1.1625 -0.9608 -0.0296
   50MOL   H71147849   2.514   0.996   4.926 -1.4898  0.5827  1.9738
   50MOL   H71247850   2.353   0.845   5.032 -1.1736 -0.6055 -0.9961
   50MOL   H71347851   2.497   0.760   4.974  0.3785  1.3870  0.9422
   50MOL   H71447852   2.107   0.607   4.782  2.0603 -0.1229 -2.4531
   50MOL   H71547853   2.246   0.518   4.746 -1.5844  2.1159 -1.9599
   50MOL   H71647854   2.086   0.411   4.991  0.1908  0.3355  0.4755
   50MOL   H71747855   2.207   0.342   4.901 -0.9866 -0.9012  1.6982
   50MOL   H71847856   2.060   0.369   4.694 -1.3034 -3.0547 -1.1798
   50MOL   H71947857   1.929   0.421   4.804 -1.4020 -2.7127 -2.9457
   50MOL   H72047858   1.917   0.205   4.910  0.1519  1.2117 -1.1979
   50MOL   H72147859   2.065   0.164   4.866 -0.9195 -0.6144  2.5027
   50MOL   O72247860   1.990   0.010   4.700 -0.4055 -0.3249  0.5173
   50MOL   C72347861   1.963   7.690   4.579  0.4018  0.8579 -0.8517
   50MOL   C72447862   2.002   7.546   4.598  0.0070  0.6777 -0.7632
   50MOL   C72547863   1.987   7.452   4.480  0.4463 -0.4603 -0.0518
   50MOL   C72647864   2.064   7.326   4.506  0.2977  0.4232  0.0762
   50MOL   C72747865   2.050   7.221   4.401  0.5388  0.0535  0.0475
   50MOL   C72847866   2.158   7.211   4.290  0.4768  0.7897  0.0970
   50MOL   C72947867   2.298   7.169   4.338  0.1276 -0.6278  0.5628
   50MOL   C73047868   2.397   7.172   4.221 -0.8479  0.5338  0.4138
   50MOL   C73147869   2.538   7.113   4.267 -0.2870  0.2054  0.3981
   50MOL   C73247870   2.641   7.147   4.155  0.3485  0.4669 -0.3902
   50MOL   O73347871   2.594   7.096   4.029 -0.3822  0.3210 -0.9504
   50MOL   C73447872   2.660   7.114   3.924 -0.2178 -0.1858  0.0215
   50MOL   O73547873   2.767   7.178   3.914 -0.3920 -0.0235  0.0102
   50MOL   C73647874   2.593   7.039   3.809 -0.2385  0.4402  0.4227
   50MOL   C73747875   2.564   6.892   3.826 -0.7747  0.0907  0.5524
   50MOL   C73847876   2.690   6.807   3.837  0.5909 -0.1711 -0.2785
   50MOL   C73947877   2.722   6.734   3.702  0.3521 -0.1125 -0.2856
   50MOL   C74047878   2.646   6.604   3.676  0.0870 -0.3219  0.0013
   50MOL   O74147879   2.543   6.601   3.610  0.0975  0.0469  0.3486
   50MOL   H74247880   1.855   7.689   4.567  0.0113  0.2746  2.1886
   50MOL   H74347881   2.012   7.729   4.490  0.4071  1.4955 -0.5725
   50MOL   H74447882   1.957   7.506   4.689  0.8119 -0.6616 -0.9485
   50MOL   H74547883   2.108   7.550   4.625  0.5398 -1.8354 -2.3793
   50MOL   H74647884   1.879   7.437   4.478  0.0422  2.2303 -0.1930
   50MOL   H74747885   2.016   7.491   4.383 -0.2250  0.6432  0.1781
   50MOL   H74847886   2.046   7.295   4.609 -2.1463 -0.8786 -0.6935
   50MOL   H74947887   2.169   7.354   4.506  0.4197  0.1102 -2.4027
   50MOL   H75047888   1.951   7.234   4.357  0.9652  1.0885 -0.6356
   50MOL   H75147889   2.029   7.132   4.461 -0.5847  0.2575 -0.0251
   50MOL   H75247890   2.162   7.312   4.248 -2.0009  0.3686 -1.2276
   50MOL   H75347891   2.117   7.142   4.216  0.9987 -0.2961  0.8102
   50MOL   H75447892   2.293   7.066   4.373 -0.5874 -0.6152  0.4997
   50MOL   H75547893   2.329   7.236   4.418 -1.1001 -0.7065  1.1054
   50MOL   H75647894   2.393   7.268   4.170  1.0858  1.5670  2.1710
   50MOL   H75747895   2.366   7.121   4.129 -0.0101  3.1599 -1.3867
   50MOL   H75847896   2.560   7.159   4.363  0.7942  2.5692 -0.9311
   50MOL   H75947897   2.535   7.005   4.284  1.0488 -0.2869 -2.2301
   50MOL   H76047898   2.743   7.109   4.166 -0.1941 -0.3370  1.9922
   50MOL   H76147899   2.630   7.255   4.145  0.9988  0.7943  2.0872
   50MOL   H76247900   2.515   7.109   3.779 -0.0318  0.2068 -0.6638
   50MOL   H76347901   2.659   7.050   3.723  1.4085  2.8692  1.9184
   50MOL   H76447902   2.499   6.854   3.747 -2.2453 -1.4341  2.4390
   50MOL   H76547903   2.503   6.877   3.915 -1.5890 -0.1485 -0.0412
   50MOL   H76647904   2.675   6.734   3.917  4.0197  0.6728  1.2073
   50MOL   H76747905   2.777   6.867   3.863  0.4995 -1.0282  2.1636
   50MOL   H76847906   2.827   6.713   3.682  0.4883 -0.4406  0.7929
   50MOL   H76947907   2.688   6.793   3.617  0.7605 -1.8616 -1.6963
   50MOL   O77047908   2.695   6.501   3.740  0.6644 -0.0919  0.8602
   50MOL   C77147909   2.631   6.378   3.737  0.5823 -0.4456 -0.2970
   50MOL   C77247910   2.595   6.328   3.879 -0.5021 -0.0053  0.3762
   50MOL   C77347911   2.453   6.378   3.932 -0.1237  0.2015 -0.7244
   50MOL   C77447912   2.424   6.523   3.937  1.3264 -0.2588 -0.2785
   50MOL   C77547913   2.279   6.548   3.991  0.2995  0.3625 -0.0468
   50MOL   C77647914   2.252   6.694   3.998  0.3306 -0.3063  0.1392
   50MOL   C77747915   2.101   6.722   4.044 -0.0533  0.1839  0.0530
   50MOL   C77847916   2.067   6.869   4.039  0.0148 -0.8454  0.6212
   50MOL   C77947917   1.922   6.898   4.092  0.4715 -0.7280  0.5635
   50MOL   C78047918   1.808   6.896   3.994 -0.2956 -0.2533 -0.1100
   50MOL   O78147919   1.796   6.765   3.934 -0.2461 -0.1080  0.1636
   50MOL   C78247920   1.722   6.673   3.987 -0.2482 -0.1840 -0.0506
   50MOL   O78347921   1.667   6.677   4.095 -0.4498 -0.1814  0.0359
   50MOL   C78447922   1.700   6.559   3.892 -0.5329  0.0105 -0.5257
   50MOL   C78547923   1.569   6.603   3.814 -0.1609 -0.3146  0.2377
   50MOL   C78647924   1.595   6.679   3.680 -0.2788  0.1099  0.0537
   50MOL   C78747925   1.475   6.724   3.603 -1.0391 -0.2385 -0.6268
   50MOL   C78847926   1.504   6.801   3.475  0.6277 -0.1159 -1.1792
   50MOL   O78947927   1.607   6.785   3.415 -0.2991 -0.3024  0.3617
   50MOL   H79047928   2.535   6.387   3.686  1.3434 -3.3524 -2.3187
   50MOL   H79147929   2.684   6.301   3.681 -0.3772  0.4880 -2.5513
   50MOL   H79247930   2.675   6.374   3.937 -0.3210  1.5505 -1.0808
   50MOL   H79347931   2.617   6.221   3.886 -0.5874  0.0029  0.7849
   50MOL   H79447932   2.369   6.335   3.878 -0.8949 -0.4331  0.9403
   50MOL   H79547933   2.434   6.324   4.024  1.4870  0.7297 -0.0611
   50MOL   H79647934   2.419   6.564   3.836  0.3305 -2.9728 -1.3602
   50MOL   H79747935   2.497   6.579   3.996 -0.0547  1.3300 -0.0192
   50MOL   H79847936   2.268   6.500   4.088  1.3026 -0.3690 -0.2867
   50MOL   H79947937   2.206   6.504   3.924  2.2074  0.0414 -1.9608
   50MOL   H80047938   2.267   6.740   3.900 -0.8359 -1.4222 -0.5731
   50MOL   H80147939   2.314   6.746   4.071 -1.2758  3.0785 -0.7978
   50MOL   H80247940   2.096   6.686   4.147  0.0661  0.9925  0.3454
   50MOL   H80347941   2.034   6.656   3.989 -0.4633  0.7715 -0.1683
   50MOL   H80447942   2.083   6.909   3.939  0.1312  0.7083  1.2480
   50MOL   H80547943   2.136   6.935   4.092 -0.5380  0.6023 -0.4618
   50MOL   H80647944   1.906   6.833   4.178 -0.4895  1.2535  1.9193
   50MOL   H80747945   1.921   7.005   4.116 -0.3666 -0.1134 -1.9903
   50MOL   H80847946   1.824   6.968   3.915 -0.4342  1.4529  1.3792
   50MOL   H80947947   1.712   6.926   4.036  0.1830 -1.2665  1.7929
   50MOL   H81047948   1.791   6.546   3.834 -1.2971 -2.4585 -1.2277
   50MOL   H81147949   1.689   6.466   3.949  1.7439  0.5652  0.8830
   50MOL   H81247950   1.496   6.653   3.878 -1.7842 -2.0776 -0.1759
   50MOL   H81347951   1.506   6.518   3.787 -2.5695  1.6477 -0.4941
   50MOL   H81447952   1.640   6.603   3.616  1.4210  0.6999  0.5168
   50MOL   H81547953   1.677   6.750   3.694  0.0269 -0.4510  1.1438
   50MOL   H81647954   1.429   6.801   3.666 -0.1472 -0.4635  0.3025
   50MOL   H81747955   1.400   6.649   3.577 -1.8212  0.8679 -1.6391
   50MOL   O81847956   1.407   6.888   3.437 -0.8373  0.2811 -0.0276
   50MOL   C81947957   1.409   6.937   3.301  0.5839 -0.3585 -0.0984
   50MOL   C82047958   1.441   7.087   3.304  0.3432  0.1621 -0.3399
   50MOL   C82147959   1.588   7.116   3.319 -0.4535  0.0404 -0.0928
   50MOL   C82247960   1.671   7.067   3.198 -0.5773 -0.5723 -0.0373
   50MOL   C82347961   1.649   7.149   3.066 -0.1643  0.4831  0.2986
   50MOL   C82447962   1.686   7.070   2.940 -0.5457  0.1097  0.6626
   50MOL   C82547963   1.835   7.078   2.903  0.3703 -0.0692 -0.9599
   50MOL   C82647964   1.878   7.027   2.762 -0.2029 -0.7757  0.0322
   50MOL   C82747965   1.860   6.877   2.741  0.2852 -0.6267  0.2712
   50MOL   C82847966   1.914   6.832   2.599 -0.7575  0.1881 -0.1361
   50MOL   O82947967   2.058   6.852   2.576 -0.3651 -0.8020  0.1966
   50MOL   C83047968   2.151   6.766   2.637  0.3188  0.2713  0.1121
   50MOL   O83147969   2.128   6.665   2.697  0.4804  0.5122 -0.3877
   50MOL   C83247970   2.297   6.816   2.619  0.2170 -0.1193 -0.4434
   50MOL   C83347971   2.396   6.769   2.721  0.3617  0.3584 -0.0463
   50MOL   C83447972   2.491   6.649   2.679  0.0561 -0.4070  0.4718
   50MOL   C83547973   2.578   6.575   2.780 -0.3926 -0.4211  0.2197
   50MOL   C83647974   2.642   6.654   2.891 -0.3464 -0.6813  0.0706
   50MOL   O83747975   2.597   6.664   3.007 -0.0369 -0.1354 -0.1194
   50MOL   H83847976   1.479   6.886   3.236  1.0289 -1.3991  1.1791
   50MOL   H83947977   1.305   6.932   3.268  1.1410  0.8202 -2.1509
   50MOL   H84047978   1.371   7.142   3.367  0.0584 -0.8194  0.2015
   50MOL   H84147979   1.412   7.127   3.207  0.2472  0.4097 -0.2092
   50MOL   H84247980   1.610   7.222   3.329 -0.4129  0.0102  0.1416
   50MOL   H84347981   1.616   7.061   3.409 -2.3914  0.0335  0.5192
   50MOL   H84447982   1.675   6.958   3.191 -1.4366 -0.7132  1.3879
   50MOL   H84547983   1.771   7.096   3.230 -0.2366 -0.9786 -0.7205
   50MOL   H84647984   1.696   7.247   3.081  1.2810 -0.4455  2.1261
   50MOL   H84747985   1.544   7.179   3.062  0.0325  1.0767 -0.5978
   50MOL   H84847986   1.633   7.118   2.858 -0.7340  1.5376  1.5889
   50MOL   H84947987   1.660   6.965   2.953 -1.5121  0.5947  2.8765
   50MOL   H85047988   1.901   7.030   2.975  0.7213  0.9215 -0.6158
   50MOL   H85147989   1.854   7.185   2.906 -1.6635  0.2659  1.3522
   50MOL   H85247990   1.981   7.060   2.755 -0.5880  0.2772 -0.7852
   50MOL   H85347991   1.829   7.083   2.682 -1.8416 -1.2150  0.6931
   50MOL   H85447992   1.903   6.811   2.815 -2.4172 -2.8304 -0.0222
   50MOL   H85547993   1.752   6.861   2.744  0.3238 -0.9920 -0.2099
   50MOL   H85647994   1.876   6.905   2.529  2.0009  1.4602 -0.3535
   50MOL   H85747995   1.888   6.730   2.568 -0.0282  0.6380 -2.3096
   50MOL   H85847996   2.338   6.811   2.519  0.6742 -2.0031 -0.1687
   50MOL   H85947997   2.285   6.925   2.619 -1.7643 -0.3196 -0.0645
   50MOL   H86047998   2.343   6.748   2.814  1.3928  1.0302  0.7103
   50MOL   H86147999   2.463   6.847   2.758  0.3750 -0.7461  2.3411
   50MOL   H86248000   2.553   6.677   2.594 -0.4360 -0.9103 -0.0562
   50MOL   H86348001   2.426   6.570   2.643 -0.8543  0.5962 -0.1067
   50MOL   H86448002   2.666   6.526   2.737  0.4811  1.2770  0.0141
   50MOL   H86548003   2.509   6.509   2.832 -1.2518 -1.2783 -1.9270
   50MOL   O86648004   2.749   6.724   2.846  0.0487 -0.3801  0.1332
   50MOL   C86748005   2.832   6.790   2.939 -0.6784 -0.3350 -0.2769
   50MOL   C86848006   2.964   6.847   2.873  0.1458  0.0568 -0.1875
   50MOL   C86948007   3.089   6.866   2.959  0.4701  0.8444 -0.4539
   50MOL   C87048008   3.060   6.930   3.091  0.0514  0.2184 -0.0707
   50MOL   C87148009   3.187   6.959   3.176  0.0127  0.6217 -0.5095
   50MOL   C87248010   3.253   7.089   3.133  0.2389 -0.1620  0.1589
   50MOL   C87348011   3.364   7.134   3.228  0.9952  1.1119  0.8198
   50MOL   C87448012   3.407   7.284   3.190  0.0012  0.8860  0.7948
   50MOL   C87548013   3.512   7.332   3.299 -0.0282  0.2179 -0.1043
   50MOL   C87648014   3.657   7.278   3.281 -0.0926  0.8121 -0.5122
   50MOL   O87748015   3.716   7.340   3.167  0.5560 -0.7887  0.0135
   50MOL   C87848016   3.810   7.283   3.094 -0.3955  0.4957 -0.7269
   50MOL   O87948017   3.875   7.188   3.137 -0.1393  0.3744 -0.5008
   50MOL   C88048018   3.821   7.328   2.951 -0.1446  0.0284  0.4340
   50MOL   C88148019   3.696   7.318   2.862  0.1617 -0.0557 -0.2468
   50MOL   C88248020   3.655   7.172   2.826  0.7567  0.0720  0.2798
   50MOL   C88348021   3.518   7.168   2.751 -0.1102  0.4400 -1.2721
   50MOL   C88448022   3.522   7.249   2.623  0.1635  0.1152  0.6635
   50MOL   O88548023   3.575   7.211   2.518 -0.2413  0.5617  0.0288
   50MOL   H88648024   2.778   6.873   2.984 -2.1456 -1.0287 -0.7263
   50MOL   H88748025   2.869   6.714   3.008 -0.4996 -1.1012 -1.1942
   50MOL   H88848026   2.920   6.942   2.841 -1.2900  0.0457  1.6459
   50MOL   H88948027   2.992   6.801   2.779  1.1557 -2.2978  1.2250
   50MOL   H89048028   3.135   6.769   2.977 -0.5844  0.7008  1.6626
   50MOL   H89148029   3.163   6.929   2.910  2.1969 -0.4707  0.3882
   50MOL   H89248030   2.995   6.867   3.153  0.8112  1.8315  2.4338
   50MOL   H89348031   3.009   7.025   3.077 -2.7829 -1.5213 -2.2749
   50MOL   H89448032   3.245   6.867   3.177 -1.9233 -0.6214  0.8989
   50MOL   H89548033   3.148   6.977   3.276  0.3288  2.1425 -0.6348
   50MOL   H89648034   3.168   7.156   3.147 -0.3067 -1.0290  1.0743
   50MOL   H89748035   3.290   7.091   3.031  0.3682 -0.8910  0.1861
   50MOL   H89848036   3.450   7.068   3.229 -0.4721 -0.9693 -2.3071
   50MOL   H89948037   3.317   7.140   3.326 -0.2665 -2.3846  0.4960
   50MOL   H90048038   3.312   7.336   3.202 -0.5375 -0.6974  3.7953
   50MOL   H90148039   3.449   7.294   3.090 -3.1279  0.7707 -0.5745
   50MOL   H90248040   3.503   7.441   3.297 -3.0183  0.0127 -0.1212
   50MOL   H90348041   3.474   7.308   3.398 -0.9878 -2.0512 -0.9928
   50MOL   H90448042   3.671   7.170   3.283 -0.1509  0.7984  2.8005
   50MOL   H90548043   3.709   7.311   3.371  0.6844 -1.4150 -0.1008
   50MOL   H90648044   3.833   7.434   2.972  0.8422  0.1333 -0.6424
   50MOL   H90748045   3.905   7.275   2.908  0.0468  2.5010 -2.4518
   50MOL   H90848046   3.707   7.376   2.770 -1.6027  0.8013  0.0627
   50MOL   H90948047   3.626   7.376   2.921  1.0434 -0.2335  0.9846
   50MOL   H91048048   3.637   7.111   2.915  1.3839  1.7902  1.6251
   50MOL   H91148049   3.741   7.132   2.772  0.6579 -0.1075  0.2600
   50MOL   H91248050   3.442   7.206   2.818  0.0890  1.0584 -1.3930
   50MOL   H91348051   3.498   7.065   2.721 -1.6708  0.8500 -1.6717
   50MOL   O91448052   3.466   7.368   2.644 -0.5242 -0.1720 -0.2728
   50MOL   C91548053   3.447   7.457   2.536  0.6874  0.2015 -0.4467
   50MOL   C91648054   3.536   7.581   2.569  0.6452 -0.4036 -0.4079
   50MOL   C91748055   3.575   7.662   2.441  0.5336 -0.2056 -0.1947
   50MOL   C91848056   3.441   7.704   2.373 -0.4963  0.0200 -0.1205
   50MOL   C91948057   3.462   0.038   2.260  0.4354 -0.4431 -0.4861
   50MOL   C92048058   3.330   0.095   2.201 -0.3116  0.1018  0.9195
   50MOL   C92148059   3.360   0.160   2.065 -0.2531  0.3124 -0.7088
   50MOL   C92248060   3.294   0.297   2.055 -0.3730  0.2469  0.1804
   50MOL   C92348061   3.384   0.402   2.119 -0.2078  0.2826 -0.0396
   50MOL   C92448062   3.331   0.540   2.100 -0.9532  0.2610  0.3163
   50MOL   O92548063   3.416   0.630   2.169  0.0264 -0.0617 -0.0539
   50MOL   C92648064   3.372   0.734   2.247 -0.3162  0.3626  0.2809
   50MOL   O92748065   3.255   0.760   2.271  0.3357 -0.8069 -0.3529
   50MOL   C92848066   3.485   0.826   2.291 -0.3761 -0.5726 -0.1689
   50MOL   C92948067   3.619   0.755   2.310  0.1723 -0.1877  1.1839
   50MOL   C93048068   3.616   0.647   2.420  0.0690 -0.2078 -0.0310
   50MOL   C93148069   3.614   0.711   2.559  0.4263  0.1090  0.3076
   50MOL   C93248070   3.750   0.761   2.603 -0.2653  1.1622  0.0606
   50MOL   O93348071   3.802   0.854   2.544 -0.4932 -0.4467  0.3799
   50MOL   H93448072   3.467   7.419   2.436 -1.1756  2.1399 -1.5999
   50MOL   H93548073   3.344   7.492   2.534  1.0835  1.3120 -2.3398
   50MOL   H93648074   3.631   7.553   2.614  0.4219 -0.5839 -0.0411
   50MOL   H93748075   3.486   7.649   2.639  0.7531 -1.2738  0.5341
   50MOL   H93848076   3.638   7.749   2.462  0.9306 -0.6307  0.4063
   50MOL   H93948077   3.634   7.592   2.382 -1.5984 -1.5246 -0.8379
   50MOL   H94048078   3.371   7.741   2.447  0.2716 -0.6707  0.9711
   50MOL   H94148079   3.394   7.612   2.337 -0.1772 -0.2179  0.0692
   50MOL   H94248080   3.517   7.755   2.178  3.3670  1.7543  0.0872
   50MOL   H94348081   3.530   0.121   2.283  0.0466 -0.4414  0.7079
   50MOL   H94448082   3.289   0.156   2.282  0.0705  0.5297  0.7931
   50MOL   H94548083   3.267   0.008   2.185  0.1933 -0.4224  1.7524
   50MOL   H94648084   3.320   0.088   1.993 -0.5447  1.5446 -1.7986
   50MOL   H94748085   3.464   0.160   2.031  0.5624 -0.6504  1.6972
   50MOL   H94848086   3.196   0.307   2.102  0.0925  0.0553  1.2092
   50MOL   H94948087   3.273   0.311   1.949  2.1557 -1.3461 -0.5808
   50MOL   H95048088   3.372   0.394   2.227  1.7205 -1.7185  0.0509
   50MOL   H95148089   3.491   0.387   2.102 -0.2305  0.8404 -0.7052
   50MOL   H95248090   3.226   0.537   2.131 -1.3257 -1.2289 -1.0105
   50MOL   H95348091   3.333   0.570   1.995  0.5871 -0.3078  0.1733
   50MOL   H95448092   3.492   0.894   2.206  0.6131  0.4932  0.7470
   50MOL   H95548093   3.448   0.875   2.381 -2.2812  1.1110 -1.8350
   50MOL   H95648094   3.693   0.825   2.348  0.0209  1.1725 -0.9400
   50MOL   H95748095   3.657   0.719   2.215 -0.4243  2.1742  0.0152
   50MOL   H95848096   3.694   0.573   2.404  0.3924 -0.2034  1.4451
   50MOL   H95948097   3.521   0.595   2.408 -0.1174  0.8532 -3.8753
   50MOL   H96048098   3.585   0.634   2.631  2.2832 -1.2349 -0.3328
   50MOL   H96148099   3.544   0.795   2.558  0.0595 -0.1915  0.4068
   50MOL   H96248100   3.807   0.723   2.687  0.2085 -1.3015 -1.3402
   51MOL     O148101   1.588   1.356   6.600 -1.0222 -0.0026 -0.3531
   51MOL     C248102   1.547   1.486   6.582 -0.6495  1.0236  0.6097
   51MOL     C348103   1.513   1.555   6.714 -0.5151 -0.5475 -0.1835
   51MOL     C448104   1.390   1.502   6.791 -0.0889  0.0310 -0.5300
   51MOL     C548105   1.363   1.584   6.918  0.2084 -0.5218 -0.2571
   51MOL     C648106   1.246   1.528   7.003  0.0319  0.2789  0.2814
   51MOL     C748107   1.217   1.594   7.141  0.2049  0.0790 -0.4178
   51MOL     C848108   1.095   1.534   7.225  0.0099 -0.2855  0.0203
   51MOL     C948109   1.067   1.601   7.358  0.6438 -0.9027  0.1010
   51MOL    C1048110   1.173   1.553   7.455 -0.7025 -0.1282  0.1867
   51MOL    C1148111   1.142   1.584   7.602  0.2603  0.0796  0.8558
   51MOL    O1248112   1.038   1.482   7.646 -0.1628  0.3177 -0.3160
   51MOL    C1348113   0.971   1.499   7.764  0.0113  0.7121  0.6384
   51MOL    O1448114   1.000   1.584   0.085 -0.3766  0.8076  0.3341
   51MOL    C1548115   0.859   1.405   0.012  1.4975  0.7197 -0.5355
   51MOL    C1648116   0.823   1.381   0.157 -0.5070 -0.6077 -0.3212
   51MOL    C1748117   0.931   1.307   0.239  0.3187 -0.0616 -0.2711
   51MOL    C1848118   0.913   1.279   0.388  0.4369 -0.0065  0.1653
   51MOL    C1948119   0.802   1.174   0.410 -0.3074 -0.2234  0.4495
   51MOL    O2048120   0.829   1.057   0.424  0.1850 -0.0294 -0.0810
   51MOL    H2148121   1.614   1.531   6.509 -0.9854 -1.0149 -1.0227
   51MOL    H2248122   1.447   1.479   6.539  0.1044  1.2090 -1.2214
   51MOL    H2348123   1.495   1.660   6.689 -0.8335  0.1308  2.7009
   51MOL    H2448124   1.599   1.563   6.781  1.7517 -2.0823 -2.8361
   51MOL    H2548125   1.300   1.501   6.730 -1.8290  0.1103  1.9707
   51MOL    H2648126   1.397   1.396   6.814 -1.4828  0.0013 -0.1793
   51MOL    H2748127   1.350   1.691   6.898  0.4033 -1.1804 -4.2473
   51MOL    H2848128   1.451   1.598   6.981  0.2103 -0.0026 -0.3665
   51MOL    H2948129   1.273   1.426   7.028  0.8537  0.6537  0.9528
   51MOL    H3048130   1.155   1.521   6.943  1.5896 -1.5280 -1.9647
   51MOL    H3148131   1.215   1.702   7.124 -0.4677  0.5773  2.5262
   51MOL    H3248132   1.302   1.574   7.206 -0.1872 -1.2412 -0.2914
   51MOL    H3348133   1.095   1.426   7.235 -0.2899 -0.2944 -0.0708
   51MOL    H3448134   1.008   1.552   7.162 -0.8624 -1.3162  0.9059
   51MOL    H3548135   0.965   1.586   7.393  0.3991 -0.1928 -0.2914
   51MOL    H3648136   1.070   1.708   7.336 -1.6979 -1.0792 -1.2352
   51MOL    H3748137   1.185   1.444   7.453 -2.5841 -0.3497 -1.7810
   51MOL    H3848138   1.265   1.607   7.435  0.0888 -1.2896  0.5851
   51MOL    H3948139   1.105   1.685   7.619  0.1735  0.1870  0.0388
   51MOL    H4048140   1.231   1.576   7.664  1.7849  0.9713 -1.1743
   51MOL    H4148141   0.774   1.440   7.717 -0.6261  0.0472  1.9861
   51MOL    H4248142   0.897   1.309   7.744 -1.8810 -0.9295  0.2001
   51MOL    H4348143   0.728   1.329   0.170 -1.1152  0.4765 -0.3948
   51MOL    H4448144   0.798   1.475   0.207 -1.5391 -1.1784  0.2473
   51MOL    H4548145   1.027   1.358   0.227 -0.4295  2.7396  4.5692
   51MOL    H4648146   0.944   1.212   0.188  0.2681  0.8738 -2.0583
   51MOL    H4748147   0.911   1.365   0.455 -0.8092  0.5283 -0.5531
   51MOL    H4848148   0.997   1.226   0.434  0.3896  0.0801  0.3492
   51MOL    H4948149   1.510   1.304   6.610 -0.3476 -1.1677 -1.0507
   51MOL    O5048150   0.679   1.234   0.414 -0.3930 -0.5569  0.1074
   51MOL    C5148151   0.561   1.159   0.410 -0.6839  0.5860  0.1791
   51MOL    C5248152   0.447   1.241   0.354  0.1769 -0.2283 -0.3989
   51MOL    C5348153   0.398   1.353   0.442  0.5964 -0.3782  0.4472
   51MOL    C5448154   0.258   1.404   0.394  0.0989 -0.4963 -0.2269
   51MOL    C5548155   0.279   1.506   0.274  0.0828  0.0636  0.0312
   51MOL    C5648156   0.146   1.557   0.229  0.4604  0.4118 -0.1647
   51MOL    C5748157   0.159   1.631   0.093 -0.2235  0.5865 -0.1767
   51MOL    C5848158   0.166   1.783   0.106 -0.2114 -0.7558 -0.7265
   51MOL    C5948159   0.179   1.861   7.736  0.5980 -0.1783 -0.3935
   51MOL    C6048160   0.052   1.878   7.640 -0.1655 -0.1856 -0.4384
   51MOL    O6148161   0.068   1.989   7.556 -0.3758  0.0928 -0.2870
   51MOL    C6248162   0.162   1.981   7.452 -0.5557  0.7721 -0.0086
   51MOL    O6348163   0.235   1.884   7.428  0.7834 -0.0512 -0.7919
   51MOL    C6448164   0.166   2.114   7.370  0.0441  0.3599 -0.2418
   51MOL    C6548165   0.289   2.212   7.396 -0.7761 -0.9642 -0.3075
   51MOL    C6648166   0.407   2.201   7.292 -0.0540  0.4266  0.3700
   51MOL    C6748167   0.545   2.274   7.337  0.2083  0.2130 -0.6420
   51MOL    C6848168   0.557   2.424   7.302  0.2592  0.2116  0.8384
   51MOL    O6948169   0.489   2.477   7.214  0.4241 -0.0385  1.0034
   51MOL    H7048170   0.578   1.071   0.348  0.6613  0.0842  1.2252
   51MOL    H7148171   0.551   1.117   0.511  0.1338 -2.1280 -0.8230
   51MOL    H7248172   0.362   1.175   0.334 -0.3089  0.0089  0.8260
   51MOL    H7348173   0.469   1.284   0.257 -1.4665 -0.8593 -1.0816
   51MOL    H7448174   0.393   1.310   0.543 -0.6655 -0.0774  0.5135
   51MOL    H7548175   0.464   1.439   0.448  0.1382  0.3131 -3.2393
   51MOL    H7648176   0.208   1.448   0.480 -0.6056  1.5557 -1.6573
   51MOL    H7748177   0.195   1.317   0.371  1.4839 -1.0838 -1.8690
   51MOL    H7848178   0.333   1.454   0.195  2.1265  0.7423  0.9548
   51MOL    H7948179   0.344   1.585   0.313 -1.1377 -0.1497  2.6200
   51MOL    H8048180   0.091   1.606   0.309 -2.3790  2.4078 -3.1973
   51MOL    H8148181   0.086   1.472   0.197  1.5919 -0.7953  0.8489
   51MOL    H8248182   0.068   1.610   0.037 -0.1436 -0.0589 -0.0689
   51MOL    H8348183   0.240   1.586   0.036  0.5850  0.8214  0.7695
   51MOL    H8448184   0.260   1.806   0.156 -0.6879  0.9725 -0.5959
   51MOL    H8548185   0.084   1.827   0.162  1.5793  1.7821 -0.0698
   51MOL    H8648186   0.197   1.962   0.007  2.8901 -1.1398  1.2942
   51MOL    H8748187   0.260   1.828   7.671  1.6894 -0.5401  1.1371
   51MOL    H8848188   7.730   1.890   7.704 -1.2732 -1.4493 -1.6588
   51MOL    H8948189   0.051   1.785   7.583  1.2837 -0.0469 -0.7235
   51MOL    H9048190   0.164   2.083   7.266 -3.1965 -1.1012  0.2002
   51MOL    H9148191   0.075   2.169   7.392 -1.0173 -2.0561  1.6155
   51MOL    H9248192   0.322   2.205   7.500 -2.7838  2.6372  0.6913
   51MOL    H9348193   0.256   2.316   7.388 -0.4080 -0.9062 -1.0525
   51MOL    H9448194   0.374   2.243   7.197 -0.1977  1.0823  0.7110
   51MOL    H9548195   0.426   2.098   7.261  2.5586  1.2332 -0.8723
   51MOL    H9648196   0.643   2.234   7.315  1.8677  2.9174  1.5431
   51MOL    H9748197   0.544   2.264   7.445  0.4380  0.8977 -0.5763
   51MOL    O9848198   0.659   2.484   7.366 -0.2454 -0.2717  0.0948
   51MOL    C9948199   0.704   2.608   7.331  0.1466 -0.2418 -0.0893
   51MOL   C10048200   0.624   2.727   7.378 -0.2300  0.4900 -0.1232
   51MOL   C10148201   0.633   2.735   7.528 -0.1415 -0.6521 -0.2272
   51MOL   C10248202   0.526   2.655   7.600 -0.6899  0.4767  0.9035
   51MOL   C10348203   0.533   2.695   7.747 -0.5933  0.1567  0.0238
   51MOL   C10448204   0.438   2.607   0.074  0.1703 -0.1779  0.5583
   51MOL   C10548205   0.450   2.635   0.219  0.5953 -0.3666  0.2794
   51MOL   C10648206   0.574   2.580   0.283 -0.3735 -0.1885 -0.0645
   51MOL   C10748207   0.578   2.591   0.434 -0.0241  0.3865  0.1133
   51MOL   C10848208   0.713   2.563   0.501 -1.3479 -0.6538  0.3373
   51MOL   O10948209   0.805   2.662   0.469  0.1083  0.6729 -0.2636
   51MOL   C11048210   0.917   2.680   0.538  0.1375 -0.4148  0.8745
   51MOL   O11148211   0.946   2.623   0.646  0.1771 -1.1581 -0.1747
   51MOL   C11248212   1.004   2.788   0.468  0.1209  0.6603 -0.0824
   51MOL   C11348213   1.154   2.771   0.484 -0.3037  1.1778 -0.3987
   51MOL   C11448214   1.200   2.847   0.603  0.8476 -0.0601 -0.4969
   51MOL   C11548215   1.160   2.994   0.610 -0.0182 -0.0193  0.6045
   51MOL   C11648216   1.178   3.066   0.740  0.2382 -0.4719 -0.4014
   51MOL   O11748217   1.217   3.003   0.840 -0.4343 -0.2994  0.5750
   51MOL   H11848218   0.807   2.619   7.364 -0.2265 -3.3281  2.2798
   51MOL   H11948219   0.722   2.599   7.224  2.9491 -0.4426  0.3821
   51MOL   H12048220   0.518   2.727   7.353 -0.1085  0.9640 -0.6357
   51MOL   H12148221   0.665   2.815   7.329  0.0539  0.7522  0.5763
   51MOL   H12248222   0.730   2.702   7.566  0.0959 -0.1682 -0.4192
   51MOL   H12348223   0.603   2.837   7.551  0.2661 -0.2704 -1.3690
   51MOL   H12448224   0.522   2.546   7.590  1.8137  0.3312  1.1231
   51MOL   H12548225   0.427   2.688   7.568 -0.3716  2.1198  1.5613
   51MOL   H12648226   0.514   2.798   0.013  0.4943  0.3348  0.1343
   51MOL   H12748227   0.634   2.671   0.016 -0.4816 -1.6729 -1.4604
   51MOL   H12848228   0.447   2.499   0.063  0.0082 -0.1258 -0.1299
   51MOL   H12948229   0.334   2.632   0.050  0.0944 -0.7955  0.2438
   51MOL   H13048230   0.359   2.608   0.273 -0.1301 -0.1989 -0.8275
   51MOL   H13148231   0.466   2.741   0.235  0.7878 -0.5123  1.0728
   51MOL   H13248232   0.658   2.644   0.257 -0.5298 -0.7671 -2.1022
   51MOL   H13348233   0.589   2.475   0.258  1.0584 -0.1504  0.5597
   51MOL   H13448234   0.548   2.692   0.460 -1.9822 -0.4669  1.2704
   51MOL   H13548235   0.496   2.534   0.478  1.2798  0.8918  3.3681
   51MOL   H13648236   0.754   2.462   0.502  0.4121  0.0074 -1.3173
   51MOL   H13748237   0.683   2.579   0.605  0.9402 -1.0074  1.0804
   51MOL   H13848238   0.990   2.781   0.360 -0.2403  0.2555 -0.0101
   51MOL   H13948239   0.961   2.887   0.486 -0.9814  0.0791  0.5394
   51MOL   H14048240   1.206   2.817   0.400  1.8197 -0.3488  0.0552
   51MOL   H14148241   1.183   2.667   0.491 -0.2799  1.2645  0.8597
   51MOL   H14248242   1.307   2.843   0.578  0.5399 -1.2898 -1.6533
   51MOL   H14348243   1.176   2.798   0.697  1.0319 -0.2606 -0.5520
   51MOL   H14448244   1.051   2.999   0.604  0.0381 -0.1855 -0.9134
   51MOL   H14548245   1.203   3.048   0.525  0.4976 -0.1694  0.7741
   51MOL   O14648246   1.139   3.197   0.736 -0.1515  0.0002  0.0170
   51MOL   C14748247   1.140   3.262   0.864  0.0650  0.4532 -0.2202
   51MOL   C14848248   1.107   3.408   0.833  0.3367  0.0474 -0.6933
   51MOL   C14948249   1.098   3.498   0.958  0.0750  0.6678 -0.4927
   51MOL   C15048250   1.057   3.642   0.914 -0.1877  0.1916  0.1495
   51MOL   C15148251   1.042   3.741   1.028  0.0566 -0.5386  0.3396
   51MOL   C15248252   0.970   3.873   0.987  0.2251  0.0918  0.6391
   51MOL   C15348253   0.956   3.977   1.103  0.5699 -0.1324  0.6756
   51MOL   C15448254   0.899   4.116   1.062  0.5484  0.6033  0.0946
   51MOL   C15548255   0.919   4.218   1.171 -0.5344  0.1635 -0.7085
   51MOL   C15648256   0.895   4.360   1.123  0.0293  0.3424 -0.2889
   51MOL   O15748257   0.770   4.369   1.056 -0.0924  0.0100  0.4764
   51MOL   C15848258   0.656   4.387   1.123 -0.7701  0.4674  0.3568
   51MOL   O15948259   0.651   4.378   1.246  0.4744 -0.2098  0.3584
   51MOL   C16048260   0.541   4.417   1.035  0.3056  0.0993 -0.9799
   51MOL   C16148261   0.422   4.322   1.056  0.2711 -0.3698  0.5288
   51MOL   C16248262   0.456   4.173   1.025 -0.1070  0.1902  0.4032
   51MOL   C16348263   0.335   4.078   1.056  0.0940  0.1158 -1.0827
   51MOL   C16448264   0.194   4.111   0.993  0.3116  0.0074  0.2070
   51MOL   O16548265   0.175   4.178   0.887 -0.3957  0.1427 -0.5900
   51MOL   H16648266   1.068   3.226   0.937 -0.3726  0.1585 -0.7951
   51MOL   H16748267   1.237   3.255   0.913 -0.7551 -2.4526  1.0723
   51MOL   H16848268   1.012   3.404   0.780 -0.1381  1.2680  0.0566
   51MOL   H16948269   1.177   3.455   0.764  0.0530  0.0952 -0.9504
   51MOL   H17048270   1.015   3.455   1.014 -0.8241 -1.4256 -3.3568
   51MOL   H17148271   1.192   3.497   1.013  0.8912 -2.7658 -1.8312
   51MOL   H17248272   0.966   3.643   0.854  1.1026 -1.9062 -1.9226
   51MOL   H17348273   1.133   3.694   0.856 -0.2455  0.2508  0.1252
   51MOL   H17448274   1.139   3.759   1.074 -0.3921 -0.1570  1.1407
   51MOL   H17548275   0.986   3.701   1.113  0.1293 -2.0669 -0.3121
   51MOL   H17648276   0.875   3.849   0.938 -0.5327 -0.6764  2.4337
   51MOL   H17748277   1.034   3.902   0.904  1.9491 -2.0630  1.1706
   51MOL   H17848278   1.052   3.994   1.151  1.7693 -1.9423 -1.0007
   51MOL   H17948279   0.885   3.936   1.174  0.0826  0.4372  0.5251
   51MOL   H18048280   0.795   4.103   1.032  1.3161 -2.0270 -1.5733
   51MOL   H18148281   0.945   4.155   0.971 -0.0776  1.9052  0.3376
   51MOL   H18248282   0.849   4.189   1.249  0.6063  0.0362  0.2791
   51MOL   H18348283   1.010   4.215   1.231 -1.7218  0.2862  1.1156
   51MOL   H18448284   0.977   4.399   1.061  0.9727 -2.1115 -0.6413
   51MOL   H18548285   0.907   4.424   1.211 -1.7612  1.3971 -0.7785
   51MOL   H18648286   0.507   4.516   1.063 -0.0094  0.0709 -1.2586
   51MOL   H18748287   0.567   4.424   0.929  0.3507  0.0250 -0.9741
   51MOL   H18848288   0.336   4.354   0.996  0.6714 -0.9972 -0.4035
   51MOL   H18948289   0.393   4.339   1.159  0.7289 -2.1670  0.9688
   51MOL   H19048290   0.548   4.130   1.064 -0.4306  0.7300  1.8080
   51MOL   H19148291   0.461   4.171   0.917 -4.8700  2.3616 -0.0157
   51MOL   H19248292   0.312   4.084   1.162 -1.1653 -1.1857 -1.2629
   51MOL   H19348293   0.365   3.976   1.033  0.1373  0.1686 -1.2671
   51MOL   O19448294   0.099   4.068   1.072 -0.0293  0.4716 -0.0926
   51MOL   C19548295   7.735   4.117   1.050 -0.1423  0.5373  0.1628
   51MOL   C19648296   7.706   4.229   1.145  0.1536 -0.1203  0.7305
   51MOL   C19748297   7.578   4.311   1.130  0.5986 -0.4281  0.1499
   51MOL   C19848298   7.461   4.257   1.207 -0.3648 -0.0596  0.8350
   51MOL   C19948299   7.335   4.341   1.230  0.0754 -0.0173  0.1379
   51MOL   C20048300   7.222   4.331   1.133 -0.4671 -0.5990 -1.1981
   51MOL   C20148301   7.141   4.466   1.155  0.0642  0.0314  0.1215
   51MOL   C20248302   7.011   4.490   1.083  0.5432 -0.7563  0.0871
   51MOL   C20348303   7.016   4.527   0.935  0.6551  0.1937  0.0977
   51MOL   C20448304   6.896   4.476   0.851  0.4162 -0.2738 -0.0529
   51MOL   O20548305   6.771   4.532   0.884 -0.4720  0.5574 -0.3656
   51MOL   C20648306   6.731   4.653   0.848  0.1946  0.5542  0.8667
   51MOL   O20748307   6.796   4.741   0.795 -0.1886 -0.1169 -0.3377
   51MOL   C20848308   6.581   4.675   0.883 -0.3945  0.3811 -0.5515
   51MOL   C20948309   6.574   4.728   1.030  0.4073 -0.4078  0.0849
   51MOL   C21048310   6.602   4.622   1.141 -0.4612  0.5987  0.2350
   51MOL   C21148311   6.489   4.515   1.161  0.2016  0.3042  0.1155
   51MOL   C21248312   6.389   4.548   1.272  1.0154 -0.0769 -0.6049
   51MOL   O21348313   6.420   4.564   1.390  0.0266 -0.3688  0.9528
   51MOL   H21448314   7.716   4.142   0.946 -0.4689 -1.8004 -0.3731
   51MOL   H21548315   7.662   4.037   1.060 -0.1520  0.3820 -1.0873
   51MOL   H21648316   0.023   4.297   1.121  0.4283 -1.8382 -3.4978
   51MOL   H21748317   7.728   4.195   1.246 -0.7265 -0.2101  0.8942
   51MOL   H21848318   7.604   4.412   1.161  1.9457 -0.6541 -0.2191
   51MOL   H21948319   7.538   4.327   1.030 -2.6509  1.2177  1.6155
   51MOL   H22048320   7.497   4.245   1.310  0.1104 -1.6145  0.5014
   51MOL   H22148321   7.432   4.153   1.194 -0.2607  0.2357 -1.9476
   51MOL   H22248322   7.371   4.444   1.229  0.0333 -0.0102 -0.5174
   51MOL   H22348323   7.291   4.322   1.329  1.9381 -2.9493  0.4496
   51MOL   H22448324   7.161   4.240   1.141 -1.7858  0.2937 -0.9746
   51MOL   H22548325   7.260   4.327   1.031 -1.4878  3.8318 -1.8274
   51MOL   H22648326   7.200   4.556   1.138  0.1138 -0.0971 -0.3816
   51MOL   H22748327   7.121   4.474   1.262  2.1739 -2.1185  0.7026
   51MOL   H22848328   6.955   4.570   1.131 -0.5969 -1.3108 -0.3128
   51MOL   H22948329   6.959   4.397   1.105  1.1730 -0.6879  1.9691
   51MOL   H23048330   7.032   4.634   0.922  0.7010  0.3180  1.1210
   51MOL   H23148331   7.094   4.486   0.872 -0.2114  0.4084 -1.1359
   51MOL   H23248332   6.874   4.371   0.875  0.9839 -0.3179  0.2941
   51MOL   H23348333   6.920   4.485   0.745 -0.3001  1.2951 -0.0972
   51MOL   H23448334   6.551   4.762   0.824 -0.4199  1.5747  1.2091
   51MOL   H23548335   6.515   4.591   0.862  1.4193 -0.8210 -1.6116
   51MOL   H23648336   6.479   4.775   1.052  1.6598  2.5689 -0.5086
   51MOL   H23748337   6.640   4.815   1.030  1.2326 -1.0237  0.9565
   51MOL   H23848338   6.620   4.673   1.235 -0.0144 -0.0354  0.4942
   51MOL   H23948339   6.696   4.569   1.122 -1.1348 -0.6566  0.3018
   51MOL   H24048340   6.524   4.414   1.182 -2.3844 -0.2687  1.8001
   51MOL   H24148341   6.434   4.514   1.067 -0.5419  0.6571  0.5436
   51MOL   O24248342   6.273   4.571   1.217 -0.3005 -0.3447 -0.2369
   51MOL   C24348343   6.179   4.634   1.299  0.5073  0.2979  0.5755
   51MOL   C24448344   6.048   4.651   1.215 -0.1257  0.0849 -0.1841
   51MOL   C24548345   5.991   4.518   1.169 -0.0514  0.9446  0.0783
   51MOL   C24648346   5.874   4.557   1.083  0.1729  0.9274  0.4313
   51MOL   C24748347   5.777   4.444   1.051 -0.1297 -0.3234 -0.3204
   51MOL   C24848348   5.657   4.496   0.965  0.6278  0.7107 -0.3967
   51MOL   C24948349   5.547   4.392   0.963  0.4873  0.4611 -1.1921
   51MOL   C25048350   5.456   4.416   1.083  0.1356  1.0493 -0.1643
   51MOL   C25148351   5.316   4.341   1.082  0.9366 -0.2427  0.5328
   51MOL   C25248352   5.269   4.314   1.229  0.8507  0.1609 -0.0099
   51MOL   O25348353   5.211   4.437   1.270  0.1762  0.3530  0.2210
   51MOL   C25448354   5.095   4.436   1.330  0.2790  0.3099 -0.4613
   51MOL   O25548355   5.025   4.338   1.349 -0.3236  0.0166 -0.1889
   51MOL   C25648356   5.029   4.566   1.359  0.5891 -0.0125 -0.9895
   51MOL   C25748357   5.139   4.662   1.404 -0.1696 -0.3253  0.1913
   51MOL   C25848358   5.213   4.637   1.532 -0.1628 -0.0228 -0.8610
   51MOL   C25948359   5.308   4.744   1.577  0.6715  0.3238 -0.6883
   51MOL   C26048360   5.415   4.777   1.473  0.1715  0.0014 -0.1622
   51MOL   O26148361   5.399   4.877   1.391 -0.1771 -0.0095 -0.6018
   51MOL   H26248362   6.160   4.569   1.383 -1.8864 -0.1338 -0.2692
   51MOL   H26348363   6.213   4.731   1.335 -0.8439  1.0486 -0.1262
   51MOL   H26448364   6.062   4.718   1.130 -1.4975  1.1368  0.4024
   51MOL   H26548365   5.978   4.697   1.285  1.3078 -1.0882  2.1113
   51MOL   H26648366   6.061   4.448   1.124 -0.9086 -1.0297  1.7190
   51MOL   H26748367   5.964   4.463   1.260 -3.0099 -1.1420 -1.9797
   51MOL   H26848368   5.905   4.593   0.985  0.3443  2.3782  1.0090
   51MOL   H26948369   5.816   4.640   1.125 -1.2882  0.7067 -1.0493
   51MOL   H27048370   5.745   4.398   1.144  1.1511 -3.0181 -1.1873
   51MOL   H27148371   5.832   4.371   0.993  2.1808  0.2317  1.1092
   51MOL   H27248372   5.704   4.510   0.867  1.6446 -2.6499 -0.4619
   51MOL   H27348373   5.631   4.595   1.001 -0.8936  0.1504  0.0842
   51MOL   H27448374   5.591   4.292   0.968  2.8348  1.5337  0.5922
   51MOL   H27548375   5.490   4.399   0.870 -0.4848  1.5923 -0.5254
   51MOL   H27648376   5.436   4.522   1.103  1.0916  0.9772  1.2729
   51MOL   H27748377   5.515   4.383   1.168  0.4717  1.1392 -0.3596
   51MOL   H27848378   5.241   4.386   1.017  1.5605 -1.6385 -1.1823
   51MOL   H27948379   5.338   4.239   1.053 -0.1893 -0.2577 -0.2713
   51MOL   H28048380   5.340   4.275   1.303  1.4175  0.3537 -0.4515
   51MOL   H28148381   5.201   4.231   1.209  2.4721 -1.0854 -0.4112
   51MOL   H28248382   4.988   4.596   1.262 -0.1158 -1.8690 -1.2810
   51MOL   H28348383   4.952   4.557   1.435  2.4121  0.4572  0.9526
   51MOL   H28448384   5.084   4.756   1.412  0.3611  0.1244 -1.2909
   51MOL   H28548385   5.213   4.669   1.324  1.7358 -0.3135  1.9214
   51MOL   H28648386   5.264   4.542   1.519 -1.5479 -0.7935 -0.8645
   51MOL   H28748387   5.142   4.622   1.614  0.3612  0.8035 -0.2544
   51MOL   H28848388   5.361   4.705   1.664  1.9848  1.9686 -0.7346
   51MOL   H28948389   5.262   4.840   1.599 -2.7422 -1.5654  0.8541
   51MOL   O29048390   5.516   4.689   1.479 -0.1980 -0.0275  0.3972
   51MOL   C29148391   5.627   4.691   1.392 -0.0345  0.2353 -0.6084
   51MOL   C29248392   5.737   4.602   1.448  0.6324  0.3263 -0.1945
   51MOL   C29348393   5.821   4.672   1.551 -0.4539 -0.4413  0.2158
   51MOL   C29448394   5.929   4.579   1.607  0.4361  0.2244  0.5375
   51MOL   C29548395   6.034   4.654   1.679  0.5687 -0.1155  0.3587
   51MOL   C29648396   6.164   4.573   1.702  0.1041 -0.3981  0.0368
   51MOL   C29748397   6.266   4.666   1.767  0.0201  0.1351  0.4835
   51MOL   C29848398   6.378   4.579   1.830 -0.2801 -0.4975  0.1727
   51MOL   C29948399   6.456   4.495   1.735 -0.0215 -1.0751  0.4140
   51MOL   C30048400   6.562   4.400   1.798 -0.1326  0.2549  0.4404
   51MOL   O30148401   6.674   4.463   1.845  0.2673  1.0753 -0.4586
   51MOL   C30248402   6.752   4.397   1.939 -0.0937 -0.2077 -0.0742
   51MOL   O30348403   6.716   4.303   2.013  0.5547 -0.0674 -0.6296
   51MOL   C30448404   6.887   4.460   1.968 -0.1915 -0.4076 -0.1626
   51MOL   C30548405   7.010   4.376   2.013 -0.6089 -0.6690  0.1869
   51MOL   C30648406   6.987   4.268   2.121  0.5703  0.0711 -0.2366
   51MOL   C30748407   7.117   4.234   2.195 -0.9578 -0.3070  0.2093
   51MOL   C30848408   7.198   4.124   2.127  0.1985  0.0001 -0.2137
   51MOL   O30948409   7.172   4.081   2.019 -0.3517  0.1430  0.0343
   51MOL   H31048410   5.607   4.644   1.296 -1.7506 -0.9079  0.2647
   51MOL   H31148411   5.661   4.793   1.375  0.1275  0.4214  0.7463
   51MOL   H31248412   5.799   4.560   1.369 -0.2128 -0.6233 -0.3598
   51MOL   H31348413   5.687   4.519   1.499  0.7982  0.1612 -0.3036
   51MOL   H31448414   5.854   4.761   1.499 -2.4755  1.2547  1.7587
   51MOL   H31548415   5.756   4.703   1.633 -0.3577  0.6675 -0.1267
   51MOL   H31648416   5.982   4.539   1.520 -0.8262  0.2273 -0.2432
   51MOL   H31748417   5.878   4.505   1.669  0.8443 -0.3898  0.1501
   51MOL   H31848418   5.993   4.684   1.776 -0.6500  0.1007 -0.2154
   51MOL   H31948419   6.041   4.755   1.639  0.3874  0.0565  0.7595
   51MOL   H32048420   6.195   4.517   1.614  0.0105 -1.5431  0.7276
   51MOL   H32148421   6.141   4.492   1.771  2.0182 -2.3665 -1.5374
   51MOL   H32248422   6.213   4.720   1.845  1.2095 -0.8123  1.9613
   51MOL   H32348423   6.313   4.728   1.690 -0.2619  1.0912  1.0735
   51MOL   H32448424   6.328   4.525   1.910 -2.1552  0.1296 -0.5314
   51MOL   H32548425   6.451   4.641   1.883  1.0679  1.8650 -4.1928
   51MOL   H32648426   6.386   4.439   1.673 -0.8569  1.1151 -0.6828
   51MOL   H32748427   6.514   4.563   1.673 -1.2880 -0.0590  0.3240
   51MOL   H32848428   6.593   4.330   1.721 -0.1720  0.6238  0.0874
   51MOL   H32948429   6.518   4.337   1.876  1.0873 -0.4825  0.5504
   51MOL   H33048430   6.906   4.528   1.885  1.2446  0.2809  0.7164
   51MOL   H33148431   6.862   4.529   2.049 -1.0001 -0.5078 -0.3218
   51MOL   H33248432   7.083   4.446   2.052 -0.3719 -0.5910 -0.4030
   51MOL   H33348433   7.056   4.326   1.928 -2.5407 -0.2246 -1.1401
   51MOL   H33448434   6.939   4.178   2.083 -0.2706  0.0182  0.9360
   51MOL   H33548435   6.925   4.318   2.195  0.2076  0.0389 -0.5207
   51MOL   H33648436   7.099   4.211   2.301 -1.9135  0.9183  0.3221
   51MOL   H33748437   7.184   4.319   2.190 -1.0229 -0.3686 -2.3157
   51MOL   O33848438   7.298   4.092   2.210 -0.3889 -0.4288  0.1380
   51MOL   C33948439   7.367   3.965   2.178 -0.0907 -0.4635  0.0843
   51MOL   C34048440   7.277   3.849   2.235 -0.2365 -0.3229  0.1788
   51MOL   C34148441   7.331   3.712   2.198 -0.1710 -0.4331  0.7789
   51MOL   C34248442   7.258   3.600   2.264  0.4571  0.8366  0.3261
   51MOL   C34348443   7.301   3.472   2.204  0.2045  0.0340  0.2676
   51MOL   C34448444   7.443   3.426   2.253  0.0635 -0.4124 -0.3787
   51MOL   C34548445   7.507   3.295   2.189 -0.5135  1.0561 -0.3986
   51MOL   C34648446   7.621   3.248   2.276  0.1214 -0.4682  0.3223
   51MOL   C34748447   7.670   3.115   2.228 -0.2091  0.3450 -0.3733
   51MOL   C34848448   7.761   3.037   2.327  0.4099 -0.1492 -0.5461
   51MOL   O34948449   0.049   2.920   2.264  0.2860  0.2164  0.1972
   51MOL   C35048450   0.166   2.873   2.302 -0.2352  0.2910  0.1067
   51MOL   O35148451   0.242   2.920   2.393 -0.6378 -0.4479 -0.0641
   51MOL   C35248452   0.207   2.759   2.210 -0.0461 -0.2378  0.5140
   51MOL   C35348453   0.166   2.776   2.061 -0.2355  0.5952  0.2203
   51MOL   C35448454   0.239   2.675   1.966  0.5777  0.7055  0.1443
   51MOL   C35548455   0.180   2.691   1.825 -0.5761 -0.1680  0.3927
   51MOL   C35648456   0.214   2.583   1.726 -0.1957 -0.0598  0.0023
   51MOL   O35748457   0.292   2.591   1.632  0.0701  0.2589  0.3801
   51MOL   H35848458   7.373   3.966   2.069  1.5448 -0.9135  0.1495
   51MOL   H35948459   7.466   3.955   2.222  0.0652 -0.0842 -0.1758
   51MOL   H36048460   7.176   3.854   2.195 -0.8091  0.5404  1.7032
   51MOL   H36148461   7.263   3.859   2.343 -0.8818  0.4899  0.0149
   51MOL   H36248462   7.316   3.698   2.091  1.1489  0.2306  0.4869
   51MOL   H36348463   7.439   3.709   2.213  0.0976  1.3475 -0.7095
   51MOL   H36448464   7.154   3.619   2.237  1.3275  3.6925 -1.2269
   51MOL   H36548465   7.269   3.618   2.371 -1.5831 -1.4531  0.9668
   51MOL   H36648466   7.283   3.484   2.098  0.5734  2.5635  0.4760
   51MOL   H36748467   7.235   3.398   2.250  0.8021  0.4672  1.8488
   51MOL   H36848468   7.430   3.405   2.360  1.7806  2.5847  0.4653
   51MOL   H36948469   7.517   3.504   2.239  0.9007 -1.0869  0.2069
   51MOL   H37048470   7.540   3.303   2.085 -0.0274  1.0742 -0.2470
   51MOL   H37148471   7.431   3.218   2.181  0.7736 -0.1731 -1.0812
   51MOL   H37248472   7.583   3.229   2.377  0.5442  0.0727  0.5887
   51MOL   H37348473   7.703   3.319   2.278 -0.5131  0.2428  2.2180
   51MOL   H37448474   7.584   3.053   2.205 -1.8915  2.2269  0.6418
   51MOL   H37548475   7.731   3.142   2.142  1.6152 -3.4991 -0.3532
   51MOL   H37648476   7.690   3.018   2.407 -1.8291 -0.6718 -2.6050
   51MOL   H37748477   0.075   3.094   2.378  1.1036 -1.6387  0.0745
   51MOL   H37848478   0.313   2.733   2.216  0.2120  0.8829  0.9213
   51MOL   H37948479   0.165   2.665   2.247  1.0521 -0.7445  0.4986
   51MOL   H38048480   0.195   2.877   2.033  1.3884 -0.3174 -1.5146
   51MOL   H38148481   0.057   2.776   2.059 -0.2219 -0.3686 -0.8519
   51MOL   H38248482   0.217   2.571   1.991 -2.2718  0.6408 -2.3382
   51MOL   H38348483   0.348   2.675   1.959  0.5339 -0.4583 -0.7561
   51MOL   H38448484   0.209   2.791   1.790  0.1723  0.0667  1.6715
   51MOL   H38548485   0.071   2.687   1.829 -0.7604  2.5033 -0.5161
   51MOL   O38648486   0.150   2.471   1.756 -0.1430 -0.0007 -0.1849
   51MOL   C38748487   0.174   2.350   1.682  0.0270  0.3307 -0.3148
   51MOL   C38848488   0.281   2.260   1.754 -0.0789  0.2247  0.5582
   51MOL   C38948489   0.250   2.224   1.902 -0.0380 -0.1529  0.3898
   51MOL   C39048490   0.347   2.120   1.960  0.1905 -0.2426  0.4493
   51MOL   C39148491   0.294   2.086   2.094  0.3067  0.5565 -0.2715
   51MOL   C39248492   0.385   1.980   2.163  0.0219 -0.4792 -0.8301
   51MOL   C39348493   0.342   1.958   2.307 -0.7201 -0.7651  0.4987
   51MOL   C39448494   0.445   1.875   2.389  0.3531 -0.1845  0.2113
   51MOL   C39548495   0.420   1.883   2.536  0.4725 -0.0829  0.4377
   51MOL   C39648496   0.510   1.788   2.611  0.2167 -1.0237  0.3281
   51MOL   O39748497   0.647   1.802   2.570  0.0083  0.3246  0.2749
   51MOL   C39848498   0.742   1.761   2.643  0.4514 -0.0033 -0.1033
   51MOL   O39948499   0.733   1.704   2.754 -0.4251 -0.0001 -0.5169
   51MOL   C40048500   0.876   1.800   2.582  0.4687 -0.3350  0.4687
   51MOL   C40148501   0.995   1.710   2.631  0.0053  0.8239 -0.0888
   51MOL   C40248502   1.118   1.763   2.561  0.5658 -0.1156 -0.0363
   51MOL   C40348503   1.246   1.677   2.576 -0.5214 -0.2298  0.2830
   51MOL   C40448504   1.282   1.646   2.723  0.4274  0.2213  0.1854
   51MOL   O40548505   1.313   1.539   2.770  0.2908  0.5970 -0.1475
   51MOL   H40648506   0.079   2.297   1.678 -0.6556  1.5984 -1.1025
   51MOL   H40748507   0.192   2.360   1.576 -0.8269 -0.9413 -0.5995
   51MOL   H40848508   0.381   2.299   1.737  0.7826 -2.1985 -0.2557
   51MOL   H40948509   0.287   2.167   1.697 -0.4806  1.1963 -1.1311
   51MOL   H41048510   0.257   2.316   1.960 -2.8212 -0.1256  0.7505
   51MOL   H41148511   0.151   2.179   1.909  0.1756 -0.9928 -1.7669
   51MOL   H41248512   0.449   2.159   1.961  0.5989 -1.2934  0.2212
   51MOL   H41348513   0.355   2.031   1.898 -0.1539  0.7316 -1.0151
   51MOL   H41448514   0.193   2.047   2.090  0.1692  0.7600  1.0138
   51MOL   H41548515   0.285   2.180   2.148 -0.0625  0.9727 -1.0526
   51MOL   H41648516   0.484   2.018   2.139  0.3049 -0.6046  0.1254
   51MOL   H41748517   0.376   1.891   2.100  0.1653 -0.8526 -0.3230
   51MOL   H41848518   0.248   1.905   2.300  0.6873 -3.4312  1.1243
   51MOL   H41948519   0.320   2.053   2.356 -3.0349 -0.9917 -0.0706
   51MOL   H42048520   0.546   1.908   2.362  0.3130  0.4157  0.7746
   51MOL   H42148521   0.437   1.768   2.369  1.0425 -0.4712  1.3681
   51MOL   H42248522   0.453   1.977   2.580  1.9299  0.5350 -1.8946
   51MOL   H42348523   0.316   1.866   2.564  0.0642  1.0655 -0.3308
   51MOL   H42448524   0.478   1.686   2.592  0.0391 -0.8100 -0.5086
   51MOL   H42548525   0.496   1.800   2.719 -2.8952 -1.0703 -0.0347
   51MOL   H42648526   0.864   1.789   2.475 -1.3057 -0.3299  0.6634
   51MOL   H42748527   0.898   1.906   2.597  1.8259 -0.6736  1.0276
   51MOL   H42848528   0.982   1.604   2.611 -0.1472  0.5344  1.4946
   51MOL   H42948529   1.006   1.721   2.739  0.1338  1.4153 -0.1582
   51MOL   H43048530   1.147   1.860   2.600  1.6712 -0.5820  0.3412
   51MOL   H43148531   1.091   1.781   2.457  2.4894  1.3843 -0.3088
   51MOL   H43248532   1.335   1.723   2.532 -0.6274 -2.2050 -2.1310
   51MOL   H43348533   1.257   1.592   2.508  0.2601  0.8321 -0.9525
   51MOL   O43448534   1.283   1.758   2.792 -0.1213 -1.1166  0.0943
   51MOL   C43548535   1.333   1.760   2.926  0.3386 -0.2038  0.0847
   51MOL   C43648536   1.214   1.760   3.027  0.0644 -0.3216 -0.4082
   51MOL   C43748537   1.267   1.774   3.167 -0.2995 -0.9250  0.1719
   51MOL   C43848538   1.157   1.790   3.276 -0.2288 -0.0029 -0.2603
   51MOL   C43948539   1.219   1.836   3.405 -0.5528  0.0848  0.3156
   51MOL   C44048540   1.110   1.847   3.511 -0.5189  0.0535 -0.2033
   51MOL   C44148541   1.036   1.980   3.493  0.2004 -0.1311  0.7073
   51MOL   C44248542   0.937   2.014   3.607  0.1150  0.2779 -0.4376
   51MOL   C44348543   0.824   1.910   3.608 -0.0417 -0.7325  0.3653
   51MOL   C44448544   0.728   1.928   3.725  0.3951  0.4989 -0.0831
   51MOL   O44548545   0.641   1.811   3.706  0.1233 -0.3419 -0.3978
   51MOL   C44648546   0.504   1.825   3.728 -0.0581 -0.3190 -0.1743
   51MOL   O44748547   0.452   1.930   3.745  0.5128  0.2561  0.0114
   51MOL   C44848548   0.437   1.689   3.747 -0.5955  0.1160  0.4594
   51MOL   C44948549   0.456   1.602   3.622  0.0891  0.1500 -0.2539
   51MOL   C45048550   0.342   1.507   3.587 -0.4152  0.3042 -0.5195
   51MOL   C45148551   0.349   1.455   3.443  0.6652  0.3241 -0.1940
   51MOL   C45248552   0.468   1.387   3.387 -0.7085 -0.4889 -0.2118
   51MOL   O45348553   0.497   1.274   3.421  0.4321 -0.3947 -0.0134
   51MOL   H45448554   1.399   1.677   2.952  0.4652 -0.3132 -0.5711
   51MOL   H45548555   1.398   1.847   2.923  0.8014 -0.5840 -1.0622
   51MOL   H45648556   1.175   1.659   3.013 -1.8189 -0.1336  2.9760
   51MOL   H45748557   1.141   1.839   3.009 -0.5116 -1.2213 -2.1908
   51MOL   H45848558   1.338   1.694   3.189  2.9565  2.5420  2.9217
   51MOL   H45948559   1.324   1.867   3.170  1.3633 -1.9359  1.1117
   51MOL   H46048560   1.092   1.703   3.292 -1.3144  0.5179 -1.6434
   51MOL   H46148561   1.086   1.866   3.244 -0.9899 -0.1313  1.1070
   51MOL   H46248562   1.279   1.927   3.399 -0.6128  0.1889  1.1931
   51MOL   H46348563   1.292   1.762   3.439  0.3823  1.1848  0.7149
   51MOL   H46448564   1.164   1.841   3.606  0.1118 -1.2845 -0.6257
   51MOL   H46548565   1.055   1.754   3.519 -0.4413  0.1312  1.4927
   51MOL   H46648566   0.978   1.979   3.400  0.6140 -2.6833  0.4269
   51MOL   H46748567   1.104   2.064   3.505 -1.7693  1.4304  1.2504
   51MOL   H46848568   0.897   2.111   3.577 -0.9078 -0.3264 -1.0674
   51MOL   H46948569   0.990   2.025   3.702 -0.3139 -0.0272 -0.1632
   51MOL   H47048570   0.781   1.914   3.508  1.3868 -0.2803 -0.2390
   51MOL   H47148571   0.868   1.810   3.615  0.1276 -0.6939 -0.1298
   51MOL   H47248572   0.672   2.017   3.697  0.1093  1.0435  2.1372
   51MOL   H47348573   0.776   1.938   3.822  0.3669 -0.2429  0.0158
   51MOL   H47448574   0.487   1.649   3.836  2.4506  2.2193 -0.2164
   51MOL   H47548575   0.329   1.691   3.762 -0.8192 -0.8939 -1.0025
   51MOL   H47648576   0.552   1.551   3.633  0.2673  0.5336 -0.0435
   51MOL   H47748577   0.455   1.666   3.534 -1.4066  3.5561  2.1229
   51MOL   H47848578   0.245   1.551   3.610 -0.7732  0.1609 -1.7702
   51MOL   H47948579   0.348   1.419   3.651 -0.5302  0.3427 -0.4554
   51MOL   H48048580   0.331   1.537   3.373  0.1871 -0.7790 -1.3926
   51MOL   H48148581   0.275   1.379   3.418 -0.0674  0.4396  1.6279
   51MOL   O48248582   0.540   1.461   3.301 -0.1519  0.1835  0.3660
   51MOL   C48348583   0.635   1.392   3.216  0.7720  0.5591 -0.2311
   51MOL   C48448584   0.565   1.357   3.081  0.1946 -0.2677 -0.1278
   51MOL   C48548585   0.551   1.478   2.991  0.2972  0.0663 -0.6187
   51MOL   C48648586   0.510   1.458   2.842  0.1845  0.0411 -0.8055
   51MOL   C48748587   0.606   1.374   2.757 -0.3423  1.2625 -0.7772
   51MOL   C48848588   0.550   1.362   2.610  0.5129  0.3229  0.3383
   51MOL   C48948589   0.660   1.338   2.511 -0.0670 -0.2325 -0.4111
   51MOL   C49048590   0.613   1.362   2.365  0.2361  0.3461  0.0483
   51MOL   C49148591   0.599   1.511   2.334  1.0693  0.1521  0.9932
   51MOL   C49248592   0.598   1.550   2.187  0.1269  0.1594  1.0912
   51MOL   O49348593   0.466   1.524   2.134 -0.2184  0.9076 -0.1475
   51MOL   C49448594   0.436   1.516   2.009 -0.0820 -0.7725  0.1660
   51MOL   O49548595   0.512   1.521   1.918 -0.4061  0.6773  0.0409
   51MOL   C49648596   0.281   1.489   1.994  0.3032 -0.1300 -0.4429
   51MOL   C49748597   0.245   1.336   2.010  0.0636  0.0213  0.1473
   51MOL   C49848598   0.208   1.271   1.871  0.5891 -0.6675 -0.5128
   51MOL   C49948599   0.341   1.232   1.793 -0.4620 -0.4497 -0.8805
   51MOL   C50048600   0.423   1.123   1.857 -0.8057  0.8772  0.2293
   51MOL   O50148601   0.539   1.103   1.824  0.6361 -0.0626  0.0263
   51MOL   H50248602   0.730   1.446   3.210  1.0679  0.1599  0.8332
   51MOL   H50348603   0.666   1.300   3.265 -0.4050  0.8486  1.1251
   51MOL   H50448604   0.467   1.315   3.106  1.1303 -2.2583  0.2766
   51MOL   H50548605   0.620   1.283   3.025  0.5714  0.1092 -0.2559
   51MOL   H50648606   0.481   1.547   3.039  0.2191 -0.5381  0.1510
   51MOL   H50748607   0.651   1.519   2.980  0.0859  0.8857  0.3889
   51MOL   H50848608   0.496   1.557   2.799  0.4317  0.3389 -0.2080
   51MOL   H50948609   0.416   1.403   2.840 -0.2635  0.8471 -3.3200
   51MOL   H51048610   0.639   1.277   2.793 -0.8535  0.3666 -2.6772
   51MOL   H51148611   0.689   1.444   2.754  0.8677 -0.1860 -2.1383
   51MOL   H51248612   0.496   1.456   2.593 -1.0954 -0.5505  0.5229
   51MOL   H51348613   0.481   1.278   2.613  3.9996 -2.5928  2.5450
   51MOL   H51448614   0.708   1.240   2.522  0.3853 -0.1618 -1.6806
   51MOL   H51548615   0.739   1.409   2.534 -0.3337  0.2852 -1.0952
   51MOL   H51648616   0.522   1.306   2.344 -0.0124  0.2104  1.4006
   51MOL   H51748617   0.683   1.317   2.295  1.0423 -0.9945  1.6868
   51MOL   H51848618   0.508   1.547   2.382 -0.7413 -0.3291 -1.9731
   51MOL   H51948619   0.684   1.568   2.372  0.5280  1.7292 -0.1008
   51MOL   H52048620   0.673   1.481   2.148 -0.8337 -0.5592  0.4737
   51MOL   H52148621   0.610   1.658   2.193 -2.2161  0.4541  1.0842
   51MOL   H52248622   0.233   1.549   2.071  2.8374 -0.1971  1.2657
   51MOL   H52348623   0.247   1.527   1.898  0.3171  1.9202  0.3365
   51MOL   H52448624   0.150   1.350   2.062 -0.0590 -2.3511  0.6238
   51MOL   H52548625   0.324   1.284   2.064 -0.5098 -0.5230  0.4710
   51MOL   H52648626   0.157   1.348   1.813 -0.4924  0.9005  2.4090
   51MOL   H52748627   0.136   1.190   1.882 -2.1043  2.0857  3.3581
   51MOL   H52848628   0.398   1.324   1.796 -0.0129 -0.6577 -2.4856
   51MOL   H52948629   0.334   1.214   1.685 -1.4423 -0.2259 -0.8536
   51MOL   O53048630   0.345   1.045   1.928 -0.2989  0.5563 -0.1150
   51MOL   C53148631   0.392   0.944   2.010 -0.4984 -1.5473  0.0258
   51MOL   C53248632   0.430   1.002   2.147  0.9818 -0.2511 -0.2865
   51MOL   C53348633   0.530   0.899   2.213  0.1956 -0.1280  0.1143
   51MOL   C53448634   0.604   0.954   2.334 -0.1264 -0.2084  0.2195
   51MOL   C53548635   0.695   0.850   2.393 -0.4308 -0.4723 -0.3088
   51MOL   C53648636   0.787   0.889   2.510  0.1893 -0.1404  0.2625
   51MOL   C53748637   0.890   0.778   2.535  0.2935  0.2476  0.4641
   51MOL   C53848638   0.987   0.807   2.641 -0.1024  0.0241 -0.2823
   51MOL   C53948639   1.072   0.687   2.695  0.7550 -0.0421 -0.2342
   51MOL   C54048640   1.150   0.754   2.819  0.3887  0.5458 -0.3144
   51MOL   O54148641   1.225   0.658   2.893 -0.5147 -0.2926 -0.1663
   51MOL   C54248642   1.195   0.621   3.017  0.5082 -0.3189 -0.0958
   51MOL   O54348643   1.101   0.662   3.084 -0.4406  0.5669 -0.1609
   51MOL   C54448644   1.288   0.516   3.071  0.1838 -0.3390 -0.4106
   51MOL   C54548645   1.432   0.568   3.061 -0.3636  0.0271  0.1051
   51MOL   C54648646   1.476   0.695   3.128 -0.7959  0.0723  0.1957
   51MOL   C54748647   1.628   0.709   3.114  0.2486  0.1284  0.0041
   51MOL   C54848648   1.720   0.604   3.192  0.2139 -0.1631 -0.1365
   51MOL   O54948649   1.672   0.527   3.277  0.0637 -0.5594 -0.2007
   51MOL   H55048650   0.321   0.861   2.012 -0.7516 -1.3081  3.0992
   51MOL   H55148651   0.480   0.896   1.966 -1.1625 -0.9688 -2.0192
   51MOL   H55248652   0.351   1.035   2.214  1.0990  0.2149 -0.3725
   51MOL   H55348653   0.485   1.094   2.124 -0.0857  0.6760  0.8117
   51MOL   H55448654   0.475   0.808   2.236 -0.4676  0.3064  0.2545
   51MOL   H55548655   0.606   0.867   2.141  1.3422 -0.1179  1.3200
   51MOL   H55648656   0.531   1.003   2.399  0.6695 -2.4266  2.8717
   51MOL   H55748657   0.658   1.045   2.309  1.4572 -0.8379  1.2963
   51MOL   H55848658   0.753   0.801   2.315 -0.9753  0.7746 -1.5095
   51MOL   H55948659   0.628   0.775   2.436 -0.7559 -0.1585 -0.2710
   51MOL   H56048660   0.726   0.898   2.600 -0.6297 -0.0263 -0.3000
   51MOL   H56148661   0.829   0.990   2.505  0.3441 -0.0339  2.8753
   51MOL   H56248662   0.938   0.757   2.439 -1.4758 -1.1875 -0.1570
   51MOL   H56348663   0.837   0.683   2.548  1.2485 -0.2828  0.5048
   51MOL   H56448664   0.942   0.853   2.729  0.9613 -1.4563  1.0738
   51MOL   H56548665   1.057   0.873   2.590 -0.2197  0.0202 -0.4463
   51MOL   H56648666   1.011   0.601   2.723  1.7856 -0.7845 -0.2326
   51MOL   H56748667   1.143   0.652   2.620 -0.3935 -0.5932 -1.0853
   51MOL   H56848668   1.079   0.806   2.884  0.6666 -0.6501  0.9792
   51MOL   H56948669   1.218   0.836   2.799  0.1478  0.7346 -0.3688
   51MOL   H57048670   1.258   0.516   3.176  1.3856  1.9342 -0.0440
   51MOL   H57148671   1.266   0.418   3.030 -3.0637 -0.1282  0.6792
   51MOL   H57248672   1.475   0.575   2.962 -0.6903  1.0565  0.0258
   51MOL   H57348673   1.503   0.493   3.097  0.5726  0.6284 -0.4590
   51MOL   H57448674   1.454   0.694   3.235  0.6195  0.7109  0.5081
   51MOL   H57548675   1.427   0.780   3.080  0.2904 -0.2467 -1.4886
   51MOL   H57648676   1.659   0.808   3.146  0.2217 -0.6531  2.5220
   51MOL   H57748677   1.664   0.713   3.011 -0.5374 -1.3266 -0.3395
   51MOL   O57848678   1.848   0.604   3.153 -0.0624 -0.8195  0.2966
   51MOL   C57948679   1.946   0.530   3.227  0.1546  0.0637  0.1396
   51MOL   C58048680   2.065   0.612   3.255  0.0706  0.1288 -0.0198
   51MOL   C58148681   2.034   0.743   3.330  0.4135  0.5555 -0.0744
   51MOL   C58248682   2.161   0.809   3.387  0.4231  0.2342 -0.0521
   51MOL   C58348683   2.124   0.936   3.455 -0.0756 -0.0854  0.0473
   51MOL   C58448684   2.234   1.011   3.527 -0.2362 -0.2439 -0.1170
   51MOL   C58548685   2.187   1.144   3.593 -0.0538  0.1354 -0.2549
   51MOL   C58648686   2.297   1.201   3.684  0.2378  0.2334 -0.1806
   51MOL   C58748687   2.266   1.342   3.747  0.8352  0.4302 -0.1042
   51MOL   C58848688   2.386   1.417   3.806  0.1843 -0.2070 -0.5320
   51MOL   O58948689   2.458   1.334   3.904 -0.7981 -0.3539 -0.1783
   51MOL   C59048690   2.570   1.271   3.862  0.9098  1.0390  0.6980
   51MOL   O59148691   2.621   1.271   3.751 -0.6174  0.3351 -0.0926
   51MOL   C59248692   2.644   1.194   3.968 -0.0110  0.3254 -0.4486
   51MOL   C59348693   2.617   1.046   3.972  0.4368  0.2665 -0.0546
   51MOL   C59448694   2.665   0.986   4.107  0.3478  0.4415 -0.1635
   51MOL   C59548695   2.822   0.982   4.118  0.2076 -1.0378 -0.0522
   51MOL   C59648696   2.879   0.908   4.241 -0.0553  0.0147 -0.3107
   51MOL   O59748697   2.806   0.828   4.302 -0.4762  0.5055 -0.0851
   51MOL   H59848698   1.907   0.497   3.323  2.6313 -2.9628  0.1685
   51MOL   H59948699   1.969   0.444   3.164 -1.2545  0.7595 -1.3951
   51MOL   H60048700   2.107   0.645   3.160 -1.6217  1.9804 -0.1721
   51MOL   H60148701   2.143   0.558   3.309  1.2940  3.4491  1.6782
   51MOL   H60248702   1.986   0.811   3.260  0.2634 -0.2040 -0.7264
   51MOL   H60348703   1.970   0.720   3.415  1.5322 -4.5399 -0.4491
   51MOL   H60448704   2.235   0.822   3.308  2.4583 -1.7678  1.4842
   51MOL   H60548705   2.214   0.745   3.457  1.0388 -1.6603 -2.1803
   51MOL   H60648706   2.041   0.914   3.523 -0.6489  2.4953  0.2241
   51MOL   H60748707   2.077   1.014   3.395  0.5025  0.5521  0.4169
   51MOL   H60848708   2.308   1.048   3.457  0.4090  0.7214  1.0499
   51MOL   H60948709   2.285   0.950   3.602  1.0970  0.6939 -0.2386
   51MOL   H61048710   2.098   1.127   3.653 -0.7756  2.3848 -0.6591
   51MOL   H61148711   2.157   1.220   3.521 -2.6331  0.8147  1.4702
   51MOL   H61248712   2.391   1.202   3.629 -1.0610 -2.2836 -2.6056
   51MOL   H61348713   2.320   1.134   3.767  0.3527 -2.0226 -1.9562
   51MOL   H61448714   2.202   1.399   3.681 -0.8725 -0.4254  0.7780
   51MOL   H61548715   2.192   1.325   3.825  1.4527 -0.8447  0.2240
   51MOL   H61648716   2.341   1.498   3.864  1.6411  0.9857 -1.0391
   51MOL   H61748717   2.451   1.464   3.732 -1.4397 -0.4631 -2.1304
   51MOL   H61848718   2.752   1.209   3.962  0.0651 -0.5737 -1.3702
   51MOL   H61948719   2.610   1.239   4.062  0.7087 -2.2800  1.1112
   51MOL   H62048720   2.679   1.002   3.894 -3.3591 -0.8508 -2.5788
   51MOL   H62148721   2.510   1.025   3.959  0.0453  1.5213  1.0021
   51MOL   H62248722   2.639   0.881   4.117  0.8867  0.4915  1.8529
   51MOL   H62348723   2.646   1.034   4.203  0.9840 -0.2486  0.3109
   51MOL   H62448724   2.858   1.085   4.115  0.9787 -1.1658  2.7658
   51MOL   H62548725   2.868   0.924   4.038  1.8679  1.1925 -0.7780
   51MOL   O62648726   3.007   0.944   4.275 -0.2594 -0.0363 -0.0998
   51MOL   C62748727   3.085   0.887   4.382 -0.2879  0.4834  0.2410
   51MOL   C62848728   3.187   0.991   4.434  0.2823  0.4655 -0.5504
   51MOL   C62948729   3.316   0.987   4.351  0.5242 -0.5230 -1.3165
   51MOL   C63048730   3.435   1.066   4.407  0.0374  0.2139 -0.0125
   51MOL   C63148731   3.546   1.071   4.305  0.0852  0.5535  0.8274
   51MOL   C63248732   3.609   1.206   4.277 -0.1538 -0.0614 -0.2638
   51MOL   C63348733   3.750   1.192   4.213 -0.5241  0.0300  0.7654
   51MOL   C63448734   3.867   1.180   4.310  0.4551  0.0679 -0.9323
   51MOL   C63548735   4.005   1.152   4.253 -0.1634  0.0387  0.1131
   51MOL   C63648736   4.110   1.130   4.363  0.6774 -0.1514  0.2982
   51MOL   O63748737   4.103   1.240   4.458  0.1136  0.0449 -0.3600
   51MOL   C63848738   4.171   1.352   4.421  0.7256 -0.2948  0.3428
   51MOL   O63948739   4.241   1.360   4.318  0.7398  0.2669  0.2492
   51MOL   C64048740   4.160   1.472   4.518  0.3835  0.0603 -0.7812
   51MOL   C64148741   4.238   1.596   4.487 -0.1300 -0.3725 -0.2489
   51MOL   C64248742   4.198   1.663   4.355 -0.1354 -0.4797 -0.5178
   51MOL   C64348743   4.070   1.755   4.358 -0.3359  0.1998  0.6845
   51MOL   C64448744   4.028   1.816   4.224 -0.0005  0.8737  0.4390
   51MOL   O64548745   4.012   1.745   4.123  0.3662  0.5838  0.0559
   51MOL   H64648746   3.032   0.863   4.474 -0.2002  0.9832  0.4284
   51MOL   H64748747   3.137   0.797   4.351 -0.4537  0.6215 -0.4458
   51MOL   H64848748   3.212   0.976   4.539  1.2016 -0.8694 -0.9552
   51MOL   H64948749   3.153   1.095   4.433 -0.2452  0.3623  2.2749
   51MOL   H65048750   3.348   0.884   4.332 -0.9259 -0.8405 -2.0742
   51MOL   H65148751   3.274   1.017   4.255 -1.2454 -2.0601 -1.0480
   51MOL   H65248752   3.463   1.012   4.497  0.7272  1.0804  0.2949
   51MOL   H65348753   3.409   1.167   4.438  2.0316  0.8017 -0.1599
   51MOL   H65448754   3.499   1.028   4.217 -0.0064  0.6351  0.8358
   51MOL   H65548755   3.622   1.002   4.341  1.0827 -0.1931 -2.5494
   51MOL   H65648756   3.623   1.248   4.376 -0.4592  0.3168 -0.3789
   51MOL   H65748757   3.543   1.273   4.222  0.6599  1.5745  0.7068
   51MOL   H65848758   3.782   1.274   4.150 -2.0292  0.7816  0.9601
   51MOL   H65948759   3.733   1.108   4.144 -1.8959  0.0214  1.1043
   51MOL   H66048760   3.831   1.113   4.388  1.4730  2.0197  1.2695
   51MOL   H66148761   3.875   1.279   4.355  2.5340 -0.5595  0.1603
   51MOL   H66248762   4.002   1.068   4.184  0.5902  1.1024 -1.2569
   51MOL   H66348763   4.038   1.244   4.203 -1.0262  1.6496  2.4348
   51MOL   H66448764   4.210   1.117   4.322 -0.2671  1.7643 -2.7960
   51MOL   H66548765   4.081   1.043   4.421 -0.1239  0.0618  0.2276
   51MOL   H66648766   4.059   1.501   4.544  1.4695  1.7427  1.7077
   51MOL   H66748767   4.198   1.426   4.609 -1.7124  1.7920  0.9949
   51MOL   H66848768   4.346   1.580   4.484  0.1745  1.5550 -0.1627
   51MOL   H66948769   4.219   1.658   4.575  0.4241 -1.6349  0.7773
   51MOL   H67048770   4.192   1.594   4.271 -0.8109  0.4215 -1.2116
   51MOL   H67148771   4.274   1.730   4.314  2.0616 -2.8469 -0.4942
   51MOL   H67248772   4.053   1.823   4.441 -0.0846  1.9874 -0.6947
   51MOL   H67348773   3.989   1.686   4.382  0.1898 -0.2183  1.2617
   51MOL   O67448774   4.031   1.948   4.223  0.0728 -0.2531  0.4638
   51MOL   C67548775   3.986   2.035   4.115 -0.0204  0.5192 -0.2038
   51MOL   C67648776   3.967   2.178   4.181  0.9587  0.7950 -0.0275
   51MOL   C67748777   3.907   2.274   4.086  0.7922 -0.7804 -0.3778
   51MOL   C67848778   3.919   2.423   4.131  0.8184  0.2633 -0.2572
   51MOL   C67948779   3.846   2.522   4.029  0.2941 -0.2584 -0.5054
   51MOL   C68048780   3.862   2.661   4.093  0.2527 -0.7687  0.5189
   51MOL   C68148781   3.804   2.774   3.998  0.0135 -0.3168 -0.0170
   51MOL   C68248782   3.656   2.768   3.993  0.0925 -0.0780 -0.0137
   51MOL   C68348783   3.584   2.889   3.931 -0.1241 -0.1242 -0.1483
   51MOL   C68448784   3.431   2.876   3.925 -0.0844 -0.0609 -0.2717
   51MOL   O68548785   3.373   3.004   3.901  0.3084  0.4819 -0.0193
   51MOL   C68648786   3.362   3.052   3.778 -0.5355 -0.1483  0.2728
   51MOL   O68748787   3.406   2.992   3.679  0.9737 -0.6447 -0.2604
   51MOL   C68848788   3.282   3.178   3.765  0.3897  0.3801 -0.5516
   51MOL   C68948789   3.333   3.262   3.645  0.4084  0.0552  0.6414
   51MOL   C69048790   3.251   3.390   3.619 -0.5917 -0.0085  0.1911
   51MOL   C69148791   3.283   3.454   3.482 -0.2598  0.1558 -0.3006
   51MOL   C69248792   3.230   3.598   3.475  0.2984  0.0327  0.0929
   51MOL   O69348793   3.304   3.685   3.433  0.0869  0.5047 -0.0917
   51MOL   H69448794   4.068   2.039   4.043  0.2180 -1.6726 -0.0848
   51MOL   H69548795   3.895   1.994   4.072 -0.0926 -0.2712  0.6839
   51MOL   H69648796   4.072   2.206   4.195  0.7304  2.8377 -2.0679
   51MOL   H69748797   3.909   2.173   4.273  1.6817  0.1312  0.3957
   51MOL   H69848798   3.953   2.268   3.987  0.5995 -3.2908 -0.3441
   51MOL   H69948799   3.800   2.259   4.074  0.8629  0.4066 -2.7775
   51MOL   H70048800   4.028   2.435   4.132  0.7891  0.7244 -1.8548
   51MOL   H70148801   3.876   2.446   4.228 -0.8615  0.4111 -1.0371
   51MOL   H70248802   3.741   2.493   4.039 -0.0595  0.5960 -1.5676
   51MOL   H70348803   3.867   2.510   3.923 -1.3780 -1.0861 -0.7569
   51MOL   H70448804   3.963   2.676   4.130 -0.3456  1.6622  1.2588
   51MOL   H70548805   3.809   2.684   4.185  0.5401  1.5161  0.1352
   51MOL   H70648806   3.842   2.780   3.896 -1.5584  1.3529 -0.5394
   51MOL   H70748807   3.838   2.869   4.040  0.4672  0.0128 -1.1296
   51MOL   H70848808   3.618   2.761   4.095 -0.8515  0.2486 -0.3309
   51MOL   H70948809   3.614   2.682   3.941  2.0142 -1.3532  0.5247
   51MOL   H71048810   3.600   2.980   3.989 -2.9207 -1.0050  2.1462
   51MOL   H71148811   3.624   2.906   3.831  0.3236 -2.0465 -0.3187
   51MOL   H71248812   3.397   2.855   4.026  1.8649 -3.1022 -0.2036
   51MOL   H71348813   3.389   2.799   3.861 -1.1464  2.6003 -2.8887
   51MOL   H71448814   3.175   3.158   3.766  0.1592  1.5300 -1.2046
   51MOL   H71548815   3.295   3.241   3.853 -1.8591 -1.8229  1.4159
   51MOL   H71648816   3.339   3.207   3.550  0.3222  0.9450  0.1168
   51MOL   H71748817   3.436   3.289   3.667  0.8474  0.6492 -1.9103
   51MOL   H71848818   3.280   3.460   3.698  4.0175 -3.5418  1.9076
   51MOL   H71948819   3.143   3.380   3.618 -0.5914  0.0412 -0.2801
   51MOL   H72048820   3.247   3.392   3.400 -1.7242 -1.1440  1.2742
   51MOL   H72148821   3.392   3.455   3.471 -0.3711  0.8600 -1.3902
   51MOL   O72248822   3.103   3.604   3.518 -0.3766 -0.1452  0.0318
   51MOL   C72348823   3.039   3.725   3.498  0.3862  0.2939  0.0622
   51MOL   C72448824   2.926   3.727   3.603  0.9276 -0.1716  0.1753
   51MOL   C72548825   2.975   3.735   3.753  0.2320  0.1317 -0.5525
   51MOL   C72648826   2.861   3.732   3.857  0.3090 -0.6795  0.0618
   51MOL   C72748827   2.891   3.729   4.008  0.5406  0.0154 -0.0674
   51MOL   C72848828   2.975   3.610   4.051  0.3736  0.6482 -0.4488
   51MOL   C72948829   2.948   3.469   4.001  0.3758  0.5962  0.2137
   51MOL   C73048830   3.005   3.355   4.100  0.3171 -0.3670 -0.9087
   51MOL   C73148831   2.957   3.217   4.058  0.4503 -0.2624  0.0493
   51MOL   C73248832   2.965   3.115   4.168 -0.5192  0.7904  0.8757
   51MOL   O73348833   2.951   2.980   4.126 -0.0842 -0.6573 -0.0785
   51MOL   C73448834   2.971   2.881   4.212  0.3027  0.3791 -0.1498
   51MOL   O73548835   2.976   2.896   4.335 -0.3592  0.7781  0.0091
   51MOL   C73648836   2.977   2.737   4.159  0.0873  0.5365  0.0244
   51MOL   C73748837   3.124   2.694   4.120  0.1712 -0.4349  0.2201
   51MOL   C73848838   3.132   2.563   4.056  0.2880  0.4366 -0.2610
   51MOL   C73948839   3.281   2.538   4.008 -0.6843  0.5115 -0.1850
   51MOL   C74048840   3.378   2.504   4.116 -0.5175 -0.3301 -0.8301
   51MOL   O74148841   3.431   2.591   4.184 -0.6246 -0.4747 -0.0423
   51MOL   H74248842   3.108   3.809   3.507  0.0085  0.7588 -1.3184
   51MOL   H74348843   2.995   3.741   3.400 -0.9284 -0.6033  0.5006
   51MOL   H74448844   2.850   3.650   3.585  0.8057 -0.0521  0.1761
   51MOL   H74548845   2.870   3.820   3.591 -2.7376 -2.3979 -0.9315
   51MOL   H74648846   3.059   3.665   3.761  0.9479  0.8259 -1.7237
   51MOL   H74748847   3.026   3.831   3.763  2.4609 -1.0952  0.2871
   51MOL   H74848848   2.794   3.649   3.834 -0.7690  0.5688 -1.4316
   51MOL   H74948849   2.800   3.821   3.842  0.8596 -0.6167 -2.0062
   51MOL   H75048850   2.798   3.739   4.063  0.5270  1.5601 -0.3393
   51MOL   H75148851   2.946   3.817   4.041  3.0161 -1.0572 -1.1790
   51MOL   H75248852   2.984   3.614   4.160 -0.2197  2.6108 -0.4537
   51MOL   H75348853   3.073   3.633   4.011  0.5938 -0.6442 -0.6961
   51MOL   H75448854   3.001   3.455   3.907 -3.2005 -0.4088 -1.7467
   51MOL   H75548855   2.841   3.449   3.990  0.9938 -2.6262 -0.2879
   51MOL   H75648856   2.962   3.378   4.197  0.9869 -0.3362 -0.6222
   51MOL   H75748857   3.112   3.357   4.121 -0.2699 -1.5020  2.4804
   51MOL   H75848858   2.860   3.217   4.008  0.7438 -1.1861 -0.5224
   51MOL   H75948859   3.030   3.181   3.987 -1.0317 -1.4893 -0.8942
   51MOL   H76048860   2.915   3.153   4.257 -0.7440  0.2564  0.9777
   51MOL   H76148861   3.064   3.107   4.212 -0.4323 -0.2865  0.4942
   51MOL   H76248862   2.929   2.665   4.225 -0.4170  0.1062 -0.7921
   51MOL   H76348863   2.914   2.723   4.071  0.9896 -0.4742 -0.4746
   51MOL   H76448864   3.174   2.691   4.217 -0.3500 -0.0350  0.5048
   51MOL   H76548865   3.169   2.776   4.064  1.8789 -1.3130  0.2706
   51MOL   H76648866   3.061   2.562   3.974  0.1582  0.0766 -0.1460
   51MOL   H76748867   3.103   2.486   4.128  0.0891  1.1275  0.4087
   51MOL   H76848868   3.322   2.632   3.970  1.9283 -0.6917 -0.4323
   51MOL   H76948869   3.292   2.463   3.930 -4.4968 -2.7640  2.2346
   51MOL   O77048870   3.386   2.368   4.142 -0.4597  0.8643 -0.5066
   51MOL   C77148871   3.475   2.317   4.246 -0.0341  0.8111 -0.4561
   51MOL   C77248872   3.514   2.173   4.227  0.5628  0.0701  0.2711
   51MOL   C77348873   3.621   2.146   4.333 -0.6089 -0.7947 -0.1862
   51MOL   C77448874   3.690   2.014   4.309  0.6422 -0.0943  0.5484
   51MOL   C77548875   3.605   1.894   4.354 -0.1479 -0.3303 -0.2607
   51MOL   C77648876   3.655   1.758   4.297 -0.4439 -0.1745  0.2315
   51MOL   C77748877   3.555   1.644   4.316  0.3632 -0.0409 -0.3732
   51MOL   C77848878   3.558   1.581   4.456  0.0278  0.0954  0.2548
   51MOL   C77948879   3.422   1.520   4.486 -0.6735 -0.4421 -0.4949
   51MOL   C78048880   3.417   1.450   4.628 -0.0471 -0.0021 -0.6277
   51MOL   O78148881   3.292   1.414   4.672  0.1321 -0.0079 -0.2450
   51MOL   C78248882   3.249   1.288   4.689 -0.4161  0.1287  0.4005
   51MOL   O78348883   3.313   1.186   4.674  0.0522 -0.3816 -0.1299
   51MOL   C78448884   3.105   1.279   4.739  0.0507  0.7795 -0.1024
   51MOL   C78548885   3.038   1.136   4.748 -0.8691  0.1642 -0.0827
   51MOL   C78648886   2.888   1.144   4.768 -0.7245  0.4708  0.1219
   51MOL   C78748887   2.830   1.036   4.851  0.2132 -0.4015  0.5538
   51MOL   C78848888   2.855   0.909   4.786 -0.7421  0.1907 -0.5093
   51MOL   O78948889   2.960   0.846   4.812 -0.3576 -0.4956  0.4387
   51MOL   H79048890   3.557   2.389   4.244 -0.6157  1.4611 -1.0474
   51MOL   H79148891   3.430   2.324   4.345 -2.8626  0.5621 -1.6939
   51MOL   H79248892   3.547   2.151   4.126 -0.2365 -0.9736  0.2257
   51MOL   H79348893   3.421   2.119   4.248  0.2459 -0.3175 -2.0009
   51MOL   H79448894   3.693   2.228   4.329 -0.7205 -0.4993  2.8902
   51MOL   H79548895   3.581   2.150   4.434  0.1282 -0.2293  0.0892
   51MOL   H79648896   3.784   1.998   4.363  1.4032  0.9835 -0.4390
   51MOL   H79748897   3.721   2.011   4.205 -0.1448  0.3589  0.2974
   51MOL   H79848898   3.505   1.912   4.316  0.3353  0.1163 -1.3370
   51MOL   H79948899   3.603   1.892   4.463  0.7394  2.7846 -0.1269
   51MOL   H80048900   3.755   1.741   4.337 -1.2631  0.6365  2.7095
   51MOL   H80148901   3.669   1.767   4.189 -1.6919  0.7395  0.1346
   51MOL   H80248902   3.587   1.562   4.252 -0.1354 -0.8929  0.4659
   51MOL   H80348903   3.457   1.673   4.277 -0.1789 -1.0160  0.2470
   51MOL   H80448904   3.583   1.646   4.540  0.2475 -1.3300  1.3334
   51MOL   H80548905   3.636   1.504   4.452 -1.4943 -1.3773 -2.4356
   51MOL   H80648906   3.341   1.592   4.499 -1.7705 -1.6434 -0.5685
   51MOL   H80748907   3.393   1.453   4.404 -0.4695 -1.1594  0.0117
   51MOL   H80848908   3.457   1.510   4.710 -3.6412  2.9444 -0.9247
   51MOL   H80948909   3.493   1.373   4.640 -0.1078  0.1015  0.5268
   51MOL   H81048910   3.115   1.323   4.838  0.9079  0.0941  0.1265
   51MOL   H81148911   3.037   1.337   4.677 -0.9006 -1.9859 -1.7525
   51MOL   H81248912   3.085   1.079   4.828 -0.1492  1.6172  0.5356
   51MOL   H81348913   3.057   1.074   4.660  0.2155 -0.6769  0.7268
   51MOL   H81448914   2.841   1.145   4.670  1.0202  0.2060 -0.7341
   51MOL   H81548915   2.863   1.239   4.814 -2.6440  0.1521 -0.2059
   51MOL   H81648916   2.723   1.042   4.874  0.5539  0.2455  2.0355
   51MOL   H81748917   2.873   1.032   4.951  0.0765 -1.3799  0.5756
   51MOL   O81848918   2.753   0.862   4.707 -0.3652 -0.0681 -0.4526
   51MOL   C81948919   2.775   0.732   4.657 -0.5226  0.5144 -0.1201
   51MOL   C82048920   2.637   0.666   4.613  0.2654 -0.5240  0.1260
   51MOL   C82148921   2.643   0.514   4.600  0.4740 -0.3664  0.2555
   51MOL   C82248922   2.507   0.455   4.578 -0.1099 -0.5007  1.0861
   51MOL   C82348923   2.496   0.301   4.596 -0.1594  0.4993 -0.0295
   51MOL   C82448924   2.355   0.243   4.590 -0.0097 -0.3023 -0.0015
   51MOL   C82548925   2.349   0.090   4.578 -0.1938 -0.2253 -0.5386
   51MOL   C82648926   2.364   0.039   4.427 -0.0044  0.1069 -0.4701
   51MOL   C82748927   2.331   7.652   4.411  0.1269 -0.3982 -0.5749
   51MOL   C82848928   2.337   7.622   4.260 -0.4184  0.3081  0.5312
   51MOL   O82948929   2.462   7.654   4.196  0.5196  0.1083  0.3983
   51MOL   C83048930   2.572   7.597   4.239 -0.0733 -0.5296 -0.1217
   51MOL   O83148931   2.581   7.513   4.327 -0.5141 -0.0325 -0.4359
   51MOL   C83248932   2.693   7.644   4.168  0.0443  0.2411  0.3016
   51MOL   C83348933   2.692   7.599   4.020 -0.2805  0.3582  0.9479
   51MOL   C83448934   2.831   7.609   3.955 -0.2167 -0.4595 -0.3127
   51MOL   C83548935   2.887   7.755   3.961  0.0670 -0.1331  0.6164
   51MOL   C83648936   2.817   0.076   3.844 -0.6620  0.4123  0.0199
   51MOL   O83748937   2.751   0.183   3.865  0.2808  0.3367 -0.1338
   51MOL   H83848938   2.848   0.726   4.576  0.2270  1.5649  0.4608
   51MOL   H83948939   2.823   0.672   4.734  0.1896  0.6990 -0.4156
   51MOL   H84048940   2.593   0.714   4.526  1.1573  0.1640  0.0494
   51MOL   H84148941   2.576   0.687   4.701  0.0823 -1.0758  0.1336
   51MOL   H84248942   2.701   0.481   4.514 -1.0117  1.3515 -1.4555
   51MOL   H84348943   2.690   0.470   4.688 -1.9092 -1.0626  1.2003
   51MOL   H84448944   2.470   0.498   4.485  3.1638 -0.2766 -0.1747
   51MOL   H84548945   2.430   0.497   4.642  0.1788 -2.6948  2.9198
   51MOL   H84648946   2.545   0.283   4.692  1.4819 -0.8722 -1.0948
   51MOL   H84748947   2.553   0.261   4.513  0.0837 -0.4702  0.5989
   51MOL   H84848948   2.284   0.293   4.524  0.9564  0.2207 -0.6571
   51MOL   H84948949   2.302   0.269   4.682  0.9949 -2.1397  1.1202
   51MOL   H85048950   2.248   0.066   4.611 -0.7725  2.1669 -0.4222
   51MOL   H85148951   2.432   0.045   4.634  0.7081 -0.6557 -2.1965
   51MOL   H85248952   2.465   0.059   4.390  0.0508  1.1460  0.2138
   51MOL   H85348953   2.304   0.106   4.366 -1.2377  0.1072  0.7229
   51MOL   H85448954   2.390   7.588   4.476  2.4937  0.8084 -1.4920
   51MOL   H85548955   2.236   7.623   4.457 -1.3151  1.9297 -2.0236
   51MOL   H85648956   2.255   7.673   4.209 -0.9804 -0.5315  0.5712
   51MOL   H85748957   2.316   7.515   4.256  1.3049  0.0377 -1.9395
   51MOL   H85848958   2.693   7.753   4.167  1.2735  0.2444 -0.7658
   51MOL   H85948959   2.784   7.628   4.226 -1.0266  1.4677  2.3853
   51MOL   H86048960   2.620   7.653   3.960  0.1388  1.1226  1.1309
   51MOL   H86148961   2.670   7.492   4.010  3.3958 -0.5263  1.3507
   51MOL   H86248962   2.814   7.568   3.855 -0.7250  1.6316 -1.1070
   51MOL   H86348963   2.898   7.538   4.004  2.5588  0.8519 -2.0520
   51MOL   H86448964   2.995   7.758   3.943 -0.3776  1.9555 -1.9538
   51MOL   H86548965   2.861   0.046   4.050 -0.0906  1.3705 -0.3509
   51MOL   O86648966   2.833   0.022   3.722  0.1084 -0.6792 -0.1523
   51MOL   C86748967   2.770   0.081   3.606 -0.6942  0.6222 -0.4443
   51MOL   C86848968   2.844   0.051   3.480 -0.5350  0.5172  0.1526
   51MOL   C86948969   2.962   0.142   3.458 -0.1380 -0.5507 -0.3271
   51MOL   C87048970   3.036   0.116   3.325 -0.5632  0.3374 -1.1208
   51MOL   C87148971   3.141   0.217   3.279 -0.2320  0.0427  0.2067
   51MOL   C87248972   3.271   0.217   3.357 -0.4923  0.0659 -0.0702
   51MOL   C87348973   3.371   0.318   3.304 -0.7405 -0.3704 -0.0185
   51MOL   C87448974   3.516   0.291   3.349  0.5549 -0.4652 -0.3504
   51MOL   C87548975   3.615   0.355   3.259 -0.1818 -0.4644  0.8667
   51MOL   C87648976   3.767   0.357   3.304  0.1865  0.1510  0.4003
   51MOL   O87748977   3.785   0.455   3.407 -0.4243  0.1139 -0.1810
   51MOL   C87848978   3.832   0.416   3.526 -0.0642  0.7674 -0.4852
   51MOL   O87948979   3.852   0.301   3.552 -0.4157  0.7578 -0.7034
   51MOL   C88048980   3.860   0.535   3.623 -0.0648 -0.5140  0.7091
   51MOL   C88148981   3.764   0.649   3.618 -0.2630 -0.1062 -0.5676
   51MOL   C88248982   3.615   0.620   3.658  0.2745 -0.4242 -0.7562
   51MOL   C88348983   3.513   0.738   3.650  0.0029  0.1907 -0.1675
   51MOL   C88448984   3.473   0.768   3.509 -0.1510  0.6856  0.1045
   51MOL   O88548985   3.403   0.691   3.443 -0.2113  0.1555 -0.1401
   51MOL   H88648986   2.673   0.034   3.588  0.1058 -0.9255 -0.7880
   51MOL   H88748987   2.754   0.188   3.620  0.0916  0.9327 -1.9388
   51MOL   H88848988   2.774   0.054   3.397 -2.2608 -0.0102  1.5479
   51MOL   H88948989   2.874   7.711   3.476 -1.6247  0.2276 -0.6828
   51MOL   H89048990   2.926   0.245   3.453  2.9755  0.5207 -1.8167
   51MOL   H89148991   3.022   0.145   3.549 -1.4133  2.9818  0.4759
   51MOL   H89248992   2.959   0.117   3.248 -2.2673 -0.5089  0.5601
   51MOL   H89348993   3.072   0.014   3.334 -3.3626 -0.5630  0.4500
   51MOL   H89448994   3.092   0.314   3.284 -0.6444 -0.1347 -0.3409
   51MOL   H89548995   3.170   0.210   3.175 -0.2846 -0.5123  0.2256
   51MOL   H89648996   3.304   0.113   3.349 -0.2217  0.2180 -1.0414
   51MOL   H89748997   3.253   0.227   3.464 -0.5674  0.0662 -0.0823
   51MOL   H89848998   3.334   0.417   3.333  1.8053  0.1615  1.6227
   51MOL   H89948999   3.379   0.299   3.197 -0.6015 -3.2264  0.4766
   51MOL   H90049000   3.528   0.183   3.358 -0.7549 -0.4417  2.0835
   51MOL   H90149001   3.535   0.312   3.455 -0.3240 -1.2179 -0.0328
   51MOL   H90249002   3.612   0.317   3.157 -0.0863  1.5035  0.0991
   51MOL   H90349003   3.579   0.458   3.253  2.6567  0.4771 -1.1673
   51MOL   H90449004   3.824   0.394   3.218  1.1594 -1.0182  0.5302
   51MOL   H90549005   3.802   0.256   3.325  0.6030  0.4641  1.2104
   51MOL   H90649006   3.873   0.504   3.727  1.0166 -2.8170 -0.0884
   51MOL   H90749007   3.961   0.558   3.589 -0.6086 -0.6511 -1.0507
   51MOL   H90849008   3.761   0.687   3.516  0.9811 -2.0032 -1.3361
   51MOL   H90949009   3.813   0.732   3.669 -1.1362 -0.0236  0.1490
   51MOL   H91049010   3.608   0.589   3.762 -1.5994  1.1372 -0.3755
   51MOL   H91149011   3.584   0.535   3.598 -3.2065 -1.9689  3.0137
   51MOL   H91249012   3.565   0.823   3.694  0.6944 -0.4316  0.2180
   51MOL   H91349013   3.419   0.708   3.697  0.2086 -1.3764 -0.7125
   51MOL   O91449014   3.539   0.878   3.462 -0.8477  0.2049 -0.0115
   51MOL   C91549015   3.560   0.896   3.314 -0.9442  0.0791 -0.2065
   51MOL   C91649016   3.493   1.018   3.266  0.0049 -0.1680 -0.5484
   51MOL   C91749017   3.350   1.007   3.227 -0.4379 -0.7425  1.0067
   51MOL   C91849018   3.301   1.149   3.185  0.1071  0.6999 -0.5458
   51MOL   C91949019   3.153   1.146   3.152 -0.0972 -0.6711  0.1377
   51MOL   C92049020   3.101   1.283   3.107 -0.1819 -0.0345  0.5650
   51MOL   C92149021   2.942   1.285   3.085  0.7321 -0.6696  1.2813
   51MOL   C92249022   2.880   1.423   3.060  0.0479 -0.1967 -0.1941
   51MOL   C92349023   2.724   1.422   3.037 -0.0099 -0.2234 -0.1101
   51MOL   C92449024   2.661   1.559   3.040 -0.3662  1.1233  0.4640
   51MOL   O92549025   2.707   1.639   2.934  0.1199  0.1678 -0.0517
   51MOL   C92649026   2.659   1.637   2.796 -0.1190  0.3204  0.6750
   51MOL   O92749027   2.572   1.562   2.752  0.8388 -0.4749  0.6649
   51MOL   C92849028   2.730   1.739   2.714 -0.2136  0.3674  0.0848
   51MOL   C92949029   2.760   1.679   2.573 -0.2225 -0.0939 -0.1883
   51MOL   C93049030   2.869   1.571   2.566 -0.6236 -0.3675  0.0531
   51MOL   C93149031   2.826   1.427   2.599  0.0746 -0.6989 -0.0338
   51MOL   C93249032   2.940   1.324   2.604 -0.0600  0.2266 -0.3773
   51MOL   O93349033   3.037   1.331   2.676  0.0049  0.2383  0.3656
   51MOL   H93449034   3.666   0.921   3.310 -1.6712  3.2844 -1.2576
   51MOL   H93549035   3.521   0.807   3.264 -1.2387  1.4601 -2.4929
   51MOL   H93649036   3.552   1.068   3.189  4.8329 -0.1075  2.9305
   51MOL   H93749037   3.509   1.082   3.353  1.4669 -2.7119  1.1210
   51MOL   H93849038   3.342   0.947   3.137  0.2058  1.4215 -0.5357
   51MOL   H93949039   3.288   0.964   3.306  0.2503 -0.9191  1.4526
   51MOL   H94049040   3.354   1.201   3.105  0.4292  1.4500  0.1445
   51MOL   H94149041   3.305   1.214   3.272  0.6074 -0.0221 -0.0193
   51MOL   H94249042   3.092   1.111   3.235 -1.6105 -1.9632 -1.4757
   51MOL   H94349043   3.150   1.089   3.059 -0.7753 -0.2114 -0.1212
   51MOL   H94449044   3.147   1.305   3.011 -2.4085 -0.0645 -0.5408
   51MOL   H94549045   3.128   1.357   3.182 -1.8247  0.5263  0.6372
   51MOL   H94649046   2.890   1.243   3.170  0.2607  0.5303  1.5931
   51MOL   H94749047   2.925   1.224   2.996 -0.4207 -1.3963  1.9918
   51MOL   H94849048   2.926   1.475   2.976  0.9693  1.5350  1.3589
   51MOL   H94949049   2.892   1.488   3.146  0.0540  0.0827 -0.4080
   51MOL   H95049050   2.714   1.380   2.938 -3.2587  2.6424 -1.1113
   51MOL   H95149051   2.669   1.352   3.099 -0.1985 -0.9570 -1.1042
   51MOL   H95249052   2.683   1.598   3.139  0.8257 -1.3686  1.2251
   51MOL   H95349053   2.554   1.544   3.025 -0.6013  0.1672  2.9000
   51MOL   H95449054   2.653   1.814   2.695 -1.1533 -0.6389 -0.1522
   51MOL   H95549055   2.815   1.783   2.766 -1.0314  1.5458  0.4747
   51MOL   H95649056   2.800   1.757   2.508 -0.2813  0.1053  0.0145
   51MOL   H95749057   2.674   1.649   2.514  0.2437  0.0929 -0.9697
   51MOL   H95849058   2.956   1.587   2.630 -0.5217  0.0591 -0.1913
   51MOL   H95949059   2.929   1.568   2.475 -0.3171 -1.1003  0.2734
   51MOL   H96049060   2.744   1.392   2.536 -1.4289  1.8100  0.4532
   51MOL   H96149061   2.773   1.424   2.695 -0.9811  0.2551 -0.5743
   51MOL   H96249062   2.928   1.244   2.531 -1.4250  0.9849 -1.0074
   7.76463   7.76463   7.76463
