;
; Gromacs include topology (itp) file.
; For Molecular Group XYZ
; Force field scheme: opls2005
; Produced from DL_FIELD v4.11
;


[ moleculetype ]
; name    nrexcl
XYZ    3

[ atoms ]
; nr   type   resnr   residu    atom    cgnr    charge    mass
    1        CT    1  MOL      C1     1  -0.1200000   12.0115
    2       C3T    1  MOL      C2     2  -0.0600000   12.0115
    3       C3T    1  MOL      C3     3  -0.1200000   12.0115
    4       C3T    1  MOL      C4     4  -0.1200000   12.0115
    5        CT    1  MOL      C5     5  -0.1200000   12.0115
    6        HC    1  MOL      H6     6   0.0600000    1.0080
    7        HC    1  MOL      H7     7   0.0600000    1.0080
    8        HC    1  MOL      H8     8   0.0600000    1.0080
    9        HC    1  MOL      H9     9   0.0600000    1.0080
   10        HC    1  MOL     H10    10   0.0600000    1.0080
   11        HC    1  MOL     H11    11   0.0600000    1.0080
   12        HC    1  MOL     H12    12   0.0600000    1.0080
   13        HC    1  MOL     H13    13   0.0600000    1.0080
   14        HC    1  MOL     H14    14   0.0600000    1.0080
   15        CT    1  MOL     C15    15  -0.0600000   12.0115
   16       C3T    1  MOL     C16    16  -0.0600000   12.0115
   17       C3T    1  MOL     C17    17  -0.1200000   12.0115
   18       C3T    1  MOL     C18    18  -0.1200000   12.0115
   19        CT    1  MOL     C19    19  -0.1200000   12.0115
   20        HC    1  MOL     H20    20   0.0600000    1.0080
   21        HC    1  MOL     H21    21   0.0600000    1.0080
   22        HC    1  MOL     H22    22   0.0600000    1.0080
   23        HC    1  MOL     H23    23   0.0600000    1.0080
   24        HC    1  MOL     H24    24   0.0600000    1.0080
   25        HC    1  MOL     H25    25   0.0600000    1.0080
   26        HC    1  MOL     H26    26   0.0600000    1.0080
   27        HC    1  MOL     H27    27   0.0600000    1.0080
   28        CT    1  MOL     C28    28  -0.0600000   12.0115
   29       C3T    1  MOL     C29    29  -0.0600000   12.0115
   30       C3T    1  MOL     C30    30  -0.1200000   12.0115
   31       C3T    1  MOL     C31    31  -0.1200000   12.0115
   32        CT    1  MOL     C32    32  -0.1200000   12.0115
   33        HC    1  MOL     H33    33   0.0600000    1.0080
   34        HC    1  MOL     H34    34   0.0600000    1.0080
   35        HC    1  MOL     H35    35   0.0600000    1.0080
   36        HC    1  MOL     H36    36   0.0600000    1.0080
   37        HC    1  MOL     H37    37   0.0600000    1.0080
   38        HC    1  MOL     H38    38   0.0600000    1.0080
   39        HC    1  MOL     H39    39   0.0600000    1.0080
   40        HC    1  MOL     H40    40   0.0600000    1.0080
   41        CT    1  MOL     C41    41  -0.0600000   12.0115
   42       C3T    1  MOL     C42    42  -0.0600000   12.0115
   43       C3T    1  MOL     C43    43  -0.1200000   12.0115
   44       C3T    1  MOL     C44    44  -0.1200000   12.0115
   45        CT    1  MOL     C45    45  -0.1200000   12.0115
   46        HC    1  MOL     H46    46   0.0600000    1.0080
   47        HC    1  MOL     H47    47   0.0600000    1.0080
   48        HC    1  MOL     H48    48   0.0600000    1.0080
   49        HC    1  MOL     H49    49   0.0600000    1.0080
   50        HC    1  MOL     H50    50   0.0600000    1.0080
   51        HC    1  MOL     H51    51   0.0600000    1.0080
   52        HC    1  MOL     H52    52   0.0600000    1.0080
   53        HC    1  MOL     H53    53   0.0600000    1.0080
   54        CT    1  MOL     C54    54  -0.0600000   12.0115
   55       C3T    1  MOL     C55    55  -0.0600000   12.0115
   56       C3T    1  MOL     C56    56  -0.1200000   12.0115
   57       C3T    1  MOL     C57    57  -0.1200000   12.0115
   58        CT    1  MOL     C58    58  -0.1200000   12.0115
   59        HC    1  MOL     H59    59   0.0600000    1.0080
   60        HC    1  MOL     H60    60   0.0600000    1.0080
   61        HC    1  MOL     H61    61   0.0600000    1.0080
   62        HC    1  MOL     H62    62   0.0600000    1.0080
   63        HC    1  MOL     H63    63   0.0600000    1.0080
   64        HC    1  MOL     H64    64   0.0600000    1.0080
   65        HC    1  MOL     H65    65   0.0600000    1.0080
   66        HC    1  MOL     H66    66   0.0600000    1.0080
   67        CT    1  MOL     C67    67  -0.0600000   12.0115
   68       C3T    1  MOL     C68    68  -0.0600000   12.0115
   69       C3T    1  MOL     C69    69  -0.1200000   12.0115
   70       C3T    1  MOL     C70    70  -0.1200000   12.0115
   71        CT    1  MOL     C71    71  -0.1200000   12.0115
   72        HC    1  MOL     H72    72   0.0600000    1.0080
   73        HC    1  MOL     H73    73   0.0600000    1.0080
   74        HC    1  MOL     H74    74   0.0600000    1.0080
   75        HC    1  MOL     H75    75   0.0600000    1.0080
   76        HC    1  MOL     H76    76   0.0600000    1.0080
   77        HC    1  MOL     H77    77   0.0600000    1.0080
   78        HC    1  MOL     H78    78   0.0600000    1.0080
   79        HC    1  MOL     H79    79   0.0600000    1.0080
   80        CT    1  MOL     C80    80  -0.0600000   12.0115
   81       C3T    1  MOL     C81    81  -0.0600000   12.0115
   82       C3T    1  MOL     C82    82  -0.1200000   12.0115
   83       C3T    1  MOL     C83    83  -0.1200000   12.0115
   84        CT    1  MOL     C84    84  -0.1200000   12.0115
   85        HC    1  MOL     H85    85   0.0600000    1.0080
   86        HC    1  MOL     H86    86   0.0600000    1.0080
   87        HC    1  MOL     H87    87   0.0600000    1.0080
   88        HC    1  MOL     H88    88   0.0600000    1.0080
   89        HC    1  MOL     H89    89   0.0600000    1.0080
   90        HC    1  MOL     H90    90   0.0600000    1.0080
   91        HC    1  MOL     H91    91   0.0600000    1.0080
   92        HC    1  MOL     H92    92   0.0600000    1.0080
   93        CT    1  MOL     C93    93  -0.0600000   12.0115
   94       C3T    1  MOL     C94    94  -0.0600000   12.0115
   95       C3T    1  MOL     C95    95  -0.1200000   12.0115
   96       C3T    1  MOL     C96    96  -0.1200000   12.0115
   97        CT    1  MOL     C97    97  -0.1200000   12.0115
   98        HC    1  MOL     H98    98   0.0600000    1.0080
   99        HC    1  MOL     H99    99   0.0600000    1.0080
  100        HC    1  MOL    H100   100   0.0600000    1.0080
  101        HC    1  MOL    H101   101   0.0600000    1.0080
  102        HC    1  MOL    H102   102   0.0600000    1.0080
  103        HC    1  MOL    H103   103   0.0600000    1.0080
  104        HC    1  MOL    H104   104   0.0600000    1.0080
  105        HC    1  MOL    H105   105   0.0600000    1.0080
  106        CT    1  MOL    C106   106  -0.0600000   12.0115
  107       C3T    1  MOL    C107   107  -0.0600000   12.0115
  108       C3T    1  MOL    C108   108  -0.1200000   12.0115
  109       C3T    1  MOL    C109   109  -0.1200000   12.0115
  110        CT    1  MOL    C110   110  -0.1200000   12.0115
  111        HC    1  MOL    H111   111   0.0600000    1.0080
  112        HC    1  MOL    H112   112   0.0600000    1.0080
  113        HC    1  MOL    H113   113   0.0600000    1.0080
  114        HC    1  MOL    H114   114   0.0600000    1.0080
  115        HC    1  MOL    H115   115   0.0600000    1.0080
  116        HC    1  MOL    H116   116   0.0600000    1.0080
  117        HC    1  MOL    H117   117   0.0600000    1.0080
  118        HC    1  MOL    H118   118   0.0600000    1.0080
  119        CT    1  MOL    C119   119  -0.0600000   12.0115
  120       C3T    1  MOL    C120   120  -0.0600000   12.0115
  121       C3T    1  MOL    C121   121  -0.1200000   12.0115
  122       C3T    1  MOL    C122   122  -0.1200000   12.0115
  123        CT    1  MOL    C123   123  -0.1200000   12.0115
  124        HC    1  MOL    H124   124   0.0600000    1.0080
  125        HC    1  MOL    H125   125   0.0600000    1.0080
  126        HC    1  MOL    H126   126   0.0600000    1.0080
  127        HC    1  MOL    H127   127   0.0600000    1.0080
  128        HC    1  MOL    H128   128   0.0600000    1.0080
  129        HC    1  MOL    H129   129   0.0600000    1.0080
  130        HC    1  MOL    H130   130   0.0600000    1.0080
  131        HC    1  MOL    H131   131   0.0600000    1.0080
  132        CT    1  MOL    C132   132  -0.0600000   12.0115
  133       C3T    1  MOL    C133   133  -0.0600000   12.0115
  134       C3T    1  MOL    C134   134  -0.1200000   12.0115
  135       C3T    1  MOL    C135   135  -0.1200000   12.0115
  136        CT    1  MOL    C136   136  -0.1200000   12.0115
  137        HC    1  MOL    H137   137   0.0600000    1.0080
  138        HC    1  MOL    H138   138   0.0600000    1.0080
  139        HC    1  MOL    H139   139   0.0600000    1.0080
  140        HC    1  MOL    H140   140   0.0600000    1.0080
  141        HC    1  MOL    H141   141   0.0600000    1.0080
  142        HC    1  MOL    H142   142   0.0600000    1.0080
  143        HC    1  MOL    H143   143   0.0600000    1.0080
  144        HC    1  MOL    H144   144   0.0600000    1.0080
  145        CT    1  MOL    C145   145  -0.0600000   12.0115
  146       C3T    1  MOL    C146   146  -0.0600000   12.0115
  147       C3T    1  MOL    C147   147  -0.1200000   12.0115
  148       C3T    1  MOL    C148   148  -0.1200000   12.0115
  149        CT    1  MOL    C149   149  -0.1200000   12.0115
  150        HC    1  MOL    H150   150   0.0600000    1.0080
  151        HC    1  MOL    H151   151   0.0600000    1.0080
  152        HC    1  MOL    H152   152   0.0600000    1.0080
  153        HC    1  MOL    H153   153   0.0600000    1.0080
  154        HC    1  MOL    H154   154   0.0600000    1.0080
  155        HC    1  MOL    H155   155   0.0600000    1.0080
  156        HC    1  MOL    H156   156   0.0600000    1.0080
  157        HC    1  MOL    H157   157   0.0600000    1.0080
  158        CT    1  MOL    C158   158  -0.0600000   12.0115
  159       C3T    1  MOL    C159   159  -0.0600000   12.0115
  160       C3T    1  MOL    C160   160  -0.1200000   12.0115
  161       C3T    1  MOL    C161   161  -0.1200000   12.0115
  162        CT    1  MOL    C162   162  -0.1200000   12.0115
  163        HC    1  MOL    H163   163   0.0600000    1.0080
  164        HC    1  MOL    H164   164   0.0600000    1.0080
  165        HC    1  MOL    H165   165   0.0600000    1.0080
  166        HC    1  MOL    H166   166   0.0600000    1.0080
  167        HC    1  MOL    H167   167   0.0600000    1.0080
  168        HC    1  MOL    H168   168   0.0600000    1.0080
  169        HC    1  MOL    H169   169   0.0600000    1.0080
  170        HC    1  MOL    H170   170   0.0600000    1.0080
  171        CT    1  MOL    C171   171  -0.0600000   12.0115
  172       C3T    1  MOL    C172   172  -0.0600000   12.0115
  173       C3T    1  MOL    C173   173  -0.1200000   12.0115
  174       C3T    1  MOL    C174   174  -0.1200000   12.0115
  175        CT    1  MOL    C175   175  -0.1200000   12.0115
  176        HC    1  MOL    H176   176   0.0600000    1.0080
  177        HC    1  MOL    H177   177   0.0600000    1.0080
  178        HC    1  MOL    H178   178   0.0600000    1.0080
  179        HC    1  MOL    H179   179   0.0600000    1.0080
  180        HC    1  MOL    H180   180   0.0600000    1.0080
  181        HC    1  MOL    H181   181   0.0600000    1.0080
  182        HC    1  MOL    H182   182   0.0600000    1.0080
  183        HC    1  MOL    H183   183   0.0600000    1.0080
  184        CT    1  MOL    C184   184  -0.0600000   12.0115
  185       C3T    1  MOL    C185   185  -0.0600000   12.0115
  186       C3T    1  MOL    C186   186  -0.1200000   12.0115
  187       C3T    1  MOL    C187   187  -0.1200000   12.0115
  188        CT    1  MOL    C188   188  -0.1200000   12.0115
  189        HC    1  MOL    H189   189   0.0600000    1.0080
  190        HC    1  MOL    H190   190   0.0600000    1.0080
  191        HC    1  MOL    H191   191   0.0600000    1.0080
  192        HC    1  MOL    H192   192   0.0600000    1.0080
  193        HC    1  MOL    H193   193   0.0600000    1.0080
  194        HC    1  MOL    H194   194   0.0600000    1.0080
  195        HC    1  MOL    H195   195   0.0600000    1.0080
  196        HC    1  MOL    H196   196   0.0600000    1.0080
  197        CT    1  MOL    C197   197  -0.0600000   12.0115
  198       C3T    1  MOL    C198   198  -0.0600000   12.0115
  199       C3T    1  MOL    C199   199  -0.1200000   12.0115
  200       C3T    1  MOL    C200   200  -0.1200000   12.0115
  201        CT    1  MOL    C201   201  -0.1200000   12.0115
  202        HC    1  MOL    H202   202   0.0600000    1.0080
  203        HC    1  MOL    H203   203   0.0600000    1.0080
  204        HC    1  MOL    H204   204   0.0600000    1.0080
  205        HC    1  MOL    H205   205   0.0600000    1.0080
  206        HC    1  MOL    H206   206   0.0600000    1.0080
  207        HC    1  MOL    H207   207   0.0600000    1.0080
  208        HC    1  MOL    H208   208   0.0600000    1.0080
  209        HC    1  MOL    H209   209   0.0600000    1.0080
  210        CT    1  MOL    C210   210  -0.0600000   12.0115
  211       C3T    1  MOL    C211   211  -0.0600000   12.0115
  212       C3T    1  MOL    C212   212  -0.1200000   12.0115
  213       C3T    1  MOL    C213   213  -0.1200000   12.0115
  214        CT    1  MOL    C214   214  -0.1200000   12.0115
  215        HC    1  MOL    H215   215   0.0600000    1.0080
  216        HC    1  MOL    H216   216   0.0600000    1.0080
  217        HC    1  MOL    H217   217   0.0600000    1.0080
  218        HC    1  MOL    H218   218   0.0600000    1.0080
  219        HC    1  MOL    H219   219   0.0600000    1.0080
  220        HC    1  MOL    H220   220   0.0600000    1.0080
  221        HC    1  MOL    H221   221   0.0600000    1.0080
  222        HC    1  MOL    H222   222   0.0600000    1.0080
  223        CT    1  MOL    C223   223  -0.0600000   12.0115
  224       C3T    1  MOL    C224   224  -0.0600000   12.0115
  225       C3T    1  MOL    C225   225  -0.1200000   12.0115
  226       C3T    1  MOL    C226   226  -0.1200000   12.0115
  227        CT    1  MOL    C227   227  -0.1200000   12.0115
  228        HC    1  MOL    H228   228   0.0600000    1.0080
  229        HC    1  MOL    H229   229   0.0600000    1.0080
  230        HC    1  MOL    H230   230   0.0600000    1.0080
  231        HC    1  MOL    H231   231   0.0600000    1.0080
  232        HC    1  MOL    H232   232   0.0600000    1.0080
  233        HC    1  MOL    H233   233   0.0600000    1.0080
  234        HC    1  MOL    H234   234   0.0600000    1.0080
  235        HC    1  MOL    H235   235   0.0600000    1.0080
  236        CT    1  MOL    C236   236  -0.0600000   12.0115
  237       C3T    1  MOL    C237   237  -0.0600000   12.0115
  238       C3T    1  MOL    C238   238  -0.1200000   12.0115
  239       C3T    1  MOL    C239   239  -0.1200000   12.0115
  240        CT    1  MOL    C240   240  -0.1200000   12.0115
  241        HC    1  MOL    H241   241   0.0600000    1.0080
  242        HC    1  MOL    H242   242   0.0600000    1.0080
  243        HC    1  MOL    H243   243   0.0600000    1.0080
  244        HC    1  MOL    H244   244   0.0600000    1.0080
  245        HC    1  MOL    H245   245   0.0600000    1.0080
  246        HC    1  MOL    H246   246   0.0600000    1.0080
  247        HC    1  MOL    H247   247   0.0600000    1.0080
  248        HC    1  MOL    H248   248   0.0600000    1.0080
  249        CT    1  MOL    C249   249  -0.0600000   12.0115
  250       C3T    1  MOL    C250   250  -0.0600000   12.0115
  251       C3T    1  MOL    C251   251  -0.1200000   12.0115
  252       C3T    1  MOL    C252   252  -0.1200000   12.0115
  253        CT    1  MOL    C253   253  -0.1800000   12.0115
  254        HC    1  MOL    H254   254   0.0600000    1.0080
  255        HC    1  MOL    H255   255   0.0600000    1.0080
  256        HC    1  MOL    H256   256   0.0600000    1.0080
  257        HC    1  MOL    H257   257   0.0600000    1.0080
  258        HC    1  MOL    H258   258   0.0600000    1.0080
  259        HC    1  MOL    H259   259   0.0600000    1.0080
  260        HC    1  MOL    H260   260   0.0600000    1.0080
  261        HC    1  MOL    H261   261   0.0600000    1.0080
  262        HC    1  MOL    H262   262   0.0600000    1.0080

[ bonds ]
      1      2   1      0.1510 230120.0000
      1      5   1      0.1529 224262.4000
      1      6   1      0.1090 284512.0000
      1     14   1      0.1090 284512.0000
      2      3   1      0.1509 217568.0000
      2      4   1      0.1509 217568.0000
      2      7   1      0.1088 284512.0000
      3      4   1      0.1509 217568.0000
      3      8   1      0.1088 284512.0000
      3      9   1      0.1088 284512.0000
      4     10   1      0.1088 284512.0000
      4     11   1      0.1088 284512.0000
      5     12   1      0.1090 284512.0000
      5     13   1      0.1090 284512.0000
      5     15   1      0.1529 224262.4000
     15     16   1      0.1510 230120.0000
     15     19   1      0.1529 224262.4000
     15     20   1      0.1090 284512.0000
     16     17   1      0.1509 217568.0000
     16     18   1      0.1509 217568.0000
     16     21   1      0.1088 284512.0000
     17     18   1      0.1509 217568.0000
     17     22   1      0.1088 284512.0000
     17     23   1      0.1088 284512.0000
     18     24   1      0.1088 284512.0000
     18     25   1      0.1088 284512.0000
     19     26   1      0.1090 284512.0000
     19     27   1      0.1090 284512.0000
     19     28   1      0.1529 224262.4000
     28     29   1      0.1510 230120.0000
     28     32   1      0.1529 224262.4000
     28     33   1      0.1090 284512.0000
     29     30   1      0.1509 217568.0000
     29     31   1      0.1509 217568.0000
     29     34   1      0.1088 284512.0000
     30     31   1      0.1509 217568.0000
     30     35   1      0.1088 284512.0000
     30     36   1      0.1088 284512.0000
     31     37   1      0.1088 284512.0000
     31     38   1      0.1088 284512.0000
     32     39   1      0.1090 284512.0000
     32     40   1      0.1090 284512.0000
     32     41   1      0.1529 224262.4000
     41     42   1      0.1510 230120.0000
     41     45   1      0.1529 224262.4000
     41     46   1      0.1090 284512.0000
     42     43   1      0.1509 217568.0000
     42     44   1      0.1509 217568.0000
     42     47   1      0.1088 284512.0000
     43     44   1      0.1509 217568.0000
     43     48   1      0.1088 284512.0000
     43     49   1      0.1088 284512.0000
     44     50   1      0.1088 284512.0000
     44     51   1      0.1088 284512.0000
     45     52   1      0.1090 284512.0000
     45     53   1      0.1090 284512.0000
     45     54   1      0.1529 224262.4000
     54     55   1      0.1510 230120.0000
     54     58   1      0.1529 224262.4000
     54     59   1      0.1090 284512.0000
     55     56   1      0.1509 217568.0000
     55     57   1      0.1509 217568.0000
     55     60   1      0.1088 284512.0000
     56     57   1      0.1509 217568.0000
     56     61   1      0.1088 284512.0000
     56     62   1      0.1088 284512.0000
     57     63   1      0.1088 284512.0000
     57     64   1      0.1088 284512.0000
     58     65   1      0.1090 284512.0000
     58     66   1      0.1090 284512.0000
     58     67   1      0.1529 224262.4000
     67     68   1      0.1510 230120.0000
     67     71   1      0.1529 224262.4000
     67     72   1      0.1090 284512.0000
     68     69   1      0.1509 217568.0000
     68     70   1      0.1509 217568.0000
     68     73   1      0.1088 284512.0000
     69     70   1      0.1509 217568.0000
     69     74   1      0.1088 284512.0000
     69     75   1      0.1088 284512.0000
     70     76   1      0.1088 284512.0000
     70     77   1      0.1088 284512.0000
     71     78   1      0.1090 284512.0000
     71     79   1      0.1090 284512.0000
     71     80   1      0.1529 224262.4000
     80     81   1      0.1510 230120.0000
     80     84   1      0.1529 224262.4000
     80     85   1      0.1090 284512.0000
     81     82   1      0.1509 217568.0000
     81     83   1      0.1509 217568.0000
     81     86   1      0.1088 284512.0000
     82     83   1      0.1509 217568.0000
     82     87   1      0.1088 284512.0000
     82     88   1      0.1088 284512.0000
     83     89   1      0.1088 284512.0000
     83     90   1      0.1088 284512.0000
     84     91   1      0.1090 284512.0000
     84     92   1      0.1090 284512.0000
     84     93   1      0.1529 224262.4000
     93     94   1      0.1510 230120.0000
     93     97   1      0.1529 224262.4000
     93     98   1      0.1090 284512.0000
     94     95   1      0.1509 217568.0000
     94     96   1      0.1509 217568.0000
     94     99   1      0.1088 284512.0000
     95     96   1      0.1509 217568.0000
     95    100   1      0.1088 284512.0000
     95    101   1      0.1088 284512.0000
     96    102   1      0.1088 284512.0000
     96    103   1      0.1088 284512.0000
     97    104   1      0.1090 284512.0000
     97    105   1      0.1090 284512.0000
     97    106   1      0.1529 224262.4000
    106    107   1      0.1510 230120.0000
    106    110   1      0.1529 224262.4000
    106    111   1      0.1090 284512.0000
    107    108   1      0.1509 217568.0000
    107    109   1      0.1509 217568.0000
    107    112   1      0.1088 284512.0000
    108    109   1      0.1509 217568.0000
    108    113   1      0.1088 284512.0000
    108    114   1      0.1088 284512.0000
    109    115   1      0.1088 284512.0000
    109    116   1      0.1088 284512.0000
    110    117   1      0.1090 284512.0000
    110    118   1      0.1090 284512.0000
    110    119   1      0.1529 224262.4000
    119    120   1      0.1510 230120.0000
    119    123   1      0.1529 224262.4000
    119    124   1      0.1090 284512.0000
    120    121   1      0.1509 217568.0000
    120    122   1      0.1509 217568.0000
    120    125   1      0.1088 284512.0000
    121    122   1      0.1509 217568.0000
    121    126   1      0.1088 284512.0000
    121    127   1      0.1088 284512.0000
    122    128   1      0.1088 284512.0000
    122    129   1      0.1088 284512.0000
    123    130   1      0.1090 284512.0000
    123    131   1      0.1090 284512.0000
    123    132   1      0.1529 224262.4000
    132    133   1      0.1510 230120.0000
    132    136   1      0.1529 224262.4000
    132    137   1      0.1090 284512.0000
    133    134   1      0.1509 217568.0000
    133    135   1      0.1509 217568.0000
    133    138   1      0.1088 284512.0000
    134    135   1      0.1509 217568.0000
    134    139   1      0.1088 284512.0000
    134    140   1      0.1088 284512.0000
    135    141   1      0.1088 284512.0000
    135    142   1      0.1088 284512.0000
    136    143   1      0.1090 284512.0000
    136    144   1      0.1090 284512.0000
    136    145   1      0.1529 224262.4000
    145    146   1      0.1510 230120.0000
    145    149   1      0.1529 224262.4000
    145    150   1      0.1090 284512.0000
    146    147   1      0.1509 217568.0000
    146    148   1      0.1509 217568.0000
    146    151   1      0.1088 284512.0000
    147    148   1      0.1509 217568.0000
    147    152   1      0.1088 284512.0000
    147    153   1      0.1088 284512.0000
    148    154   1      0.1088 284512.0000
    148    155   1      0.1088 284512.0000
    149    156   1      0.1090 284512.0000
    149    157   1      0.1090 284512.0000
    149    158   1      0.1529 224262.4000
    158    159   1      0.1510 230120.0000
    158    162   1      0.1529 224262.4000
    158    163   1      0.1090 284512.0000
    159    160   1      0.1509 217568.0000
    159    161   1      0.1509 217568.0000
    159    164   1      0.1088 284512.0000
    160    161   1      0.1509 217568.0000
    160    165   1      0.1088 284512.0000
    160    166   1      0.1088 284512.0000
    161    167   1      0.1088 284512.0000
    161    168   1      0.1088 284512.0000
    162    169   1      0.1090 284512.0000
    162    170   1      0.1090 284512.0000
    162    171   1      0.1529 224262.4000
    171    172   1      0.1510 230120.0000
    171    175   1      0.1529 224262.4000
    171    176   1      0.1090 284512.0000
    172    173   1      0.1509 217568.0000
    172    174   1      0.1509 217568.0000
    172    177   1      0.1088 284512.0000
    173    174   1      0.1509 217568.0000
    173    178   1      0.1088 284512.0000
    173    179   1      0.1088 284512.0000
    174    180   1      0.1088 284512.0000
    174    181   1      0.1088 284512.0000
    175    182   1      0.1090 284512.0000
    175    183   1      0.1090 284512.0000
    175    184   1      0.1529 224262.4000
    184    185   1      0.1510 230120.0000
    184    188   1      0.1529 224262.4000
    184    189   1      0.1090 284512.0000
    185    186   1      0.1509 217568.0000
    185    187   1      0.1509 217568.0000
    185    190   1      0.1088 284512.0000
    186    187   1      0.1509 217568.0000
    186    191   1      0.1088 284512.0000
    186    192   1      0.1088 284512.0000
    187    193   1      0.1088 284512.0000
    187    194   1      0.1088 284512.0000
    188    195   1      0.1090 284512.0000
    188    196   1      0.1090 284512.0000
    188    197   1      0.1529 224262.4000
    197    198   1      0.1510 230120.0000
    197    201   1      0.1529 224262.4000
    197    202   1      0.1090 284512.0000
    198    199   1      0.1509 217568.0000
    198    200   1      0.1509 217568.0000
    198    203   1      0.1088 284512.0000
    199    200   1      0.1509 217568.0000
    199    204   1      0.1088 284512.0000
    199    205   1      0.1088 284512.0000
    200    206   1      0.1088 284512.0000
    200    207   1      0.1088 284512.0000
    201    208   1      0.1090 284512.0000
    201    209   1      0.1090 284512.0000
    201    210   1      0.1529 224262.4000
    210    211   1      0.1510 230120.0000
    210    214   1      0.1529 224262.4000
    210    215   1      0.1090 284512.0000
    211    212   1      0.1509 217568.0000
    211    213   1      0.1509 217568.0000
    211    216   1      0.1088 284512.0000
    212    213   1      0.1509 217568.0000
    212    217   1      0.1088 284512.0000
    212    218   1      0.1088 284512.0000
    213    219   1      0.1088 284512.0000
    213    220   1      0.1088 284512.0000
    214    221   1      0.1090 284512.0000
    214    222   1      0.1090 284512.0000
    214    223   1      0.1529 224262.4000
    223    224   1      0.1510 230120.0000
    223    227   1      0.1529 224262.4000
    223    228   1      0.1090 284512.0000
    224    225   1      0.1509 217568.0000
    224    226   1      0.1509 217568.0000
    224    229   1      0.1088 284512.0000
    225    226   1      0.1509 217568.0000
    225    230   1      0.1088 284512.0000
    225    231   1      0.1088 284512.0000
    226    232   1      0.1088 284512.0000
    226    233   1      0.1088 284512.0000
    227    234   1      0.1090 284512.0000
    227    235   1      0.1090 284512.0000
    227    236   1      0.1529 224262.4000
    236    237   1      0.1510 230120.0000
    236    240   1      0.1529 224262.4000
    236    241   1      0.1090 284512.0000
    237    238   1      0.1509 217568.0000
    237    239   1      0.1509 217568.0000
    237    242   1      0.1088 284512.0000
    238    239   1      0.1509 217568.0000
    238    243   1      0.1088 284512.0000
    238    244   1      0.1088 284512.0000
    239    245   1      0.1088 284512.0000
    239    246   1      0.1088 284512.0000
    240    247   1      0.1090 284512.0000
    240    248   1      0.1090 284512.0000
    240    249   1      0.1529 224262.4000
    249    250   1      0.1510 230120.0000
    249    253   1      0.1529 224262.4000
    249    254   1      0.1090 284512.0000
    250    251   1      0.1509 217568.0000
    250    252   1      0.1509 217568.0000
    250    255   1      0.1088 284512.0000
    251    252   1      0.1509 217568.0000
    251    256   1      0.1088 284512.0000
    251    257   1      0.1088 284512.0000
    252    258   1      0.1088 284512.0000
    252    259   1      0.1088 284512.0000
    253    260   1      0.1090 284512.0000
    253    261   1      0.1090 284512.0000
    253    262   1      0.1090 284512.0000

[ pairs ]
; ai   aj   funct   fudge_QQ  charge_i   charge_j   c6    c12
      5      3   2   0.50000    -0.1200000   -0.1200000   1.015252e-03  1.866303e-06
      5      4   2   0.50000    -0.1200000   -0.1200000   1.015252e-03  1.866303e-06
      5      7   2   0.50000    -0.1200000    0.0600000   2.494471e-04  1.671101e-07
      6      3   2   0.50000     0.0600000   -0.1200000   2.494471e-04  1.671101e-07
      6      4   2   0.50000     0.0600000   -0.1200000   2.494471e-04  1.671101e-07
      6      7   2   0.50000     0.0600000    0.0600000   6.128906e-05  1.496315e-08
     14      3   2   0.50000     0.0600000   -0.1200000   2.494471e-04  1.671101e-07
     14      4   2   0.50000     0.0600000   -0.1200000   2.494471e-04  1.671101e-07
     14      7   2   0.50000     0.0600000    0.0600000   6.128906e-05  1.496315e-08
      2     12   2   0.50000    -0.0600000    0.0600000   2.494471e-04  1.671101e-07
      2     13   2   0.50000    -0.0600000    0.0600000   2.494471e-04  1.671101e-07
      2     15   2   0.50000    -0.0600000   -0.0600000   1.015252e-03  1.866303e-06
      6     12   2   0.50000     0.0600000    0.0600000   6.128906e-05  1.496315e-08
      6     13   2   0.50000     0.0600000    0.0600000   6.128906e-05  1.496315e-08
      6     15   2   0.50000     0.0600000   -0.0600000   2.494471e-04  1.671101e-07
     14     12   2   0.50000     0.0600000    0.0600000   6.128906e-05  1.496315e-08
     14     13   2   0.50000     0.0600000    0.0600000   6.128906e-05  1.496315e-08
     14     15   2   0.50000     0.0600000   -0.0600000   2.494471e-04  1.671101e-07
      1      8   2   0.50000    -0.1200000    0.0600000   2.494471e-04  1.671101e-07
      1      9   2   0.50000    -0.1200000    0.0600000   2.494471e-04  1.671101e-07
      7      8   2   0.50000     0.0600000    0.0600000   6.128906e-05  1.496315e-08
      7      9   2   0.50000     0.0600000    0.0600000   6.128906e-05  1.496315e-08
      1     10   2   0.50000    -0.1200000    0.0600000   2.494471e-04  1.671101e-07
      1     11   2   0.50000    -0.1200000    0.0600000   2.494471e-04  1.671101e-07
      7     10   2   0.50000     0.0600000    0.0600000   6.128906e-05  1.496315e-08
      7     11   2   0.50000     0.0600000    0.0600000   6.128906e-05  1.496315e-08
      8     10   2   0.50000     0.0600000    0.0600000   6.128906e-05  1.496315e-08
      8     11   2   0.50000     0.0600000    0.0600000   6.128906e-05  1.496315e-08
      9     10   2   0.50000     0.0600000    0.0600000   6.128906e-05  1.496315e-08
      9     11   2   0.50000     0.0600000    0.0600000   6.128906e-05  1.496315e-08
      1     16   2   0.50000    -0.1200000   -0.0600000   1.015252e-03  1.866303e-06
      1     19   2   0.50000    -0.1200000   -0.1200000   1.015252e-03  1.866303e-06
      1     20   2   0.50000    -0.1200000    0.0600000   2.494471e-04  1.671101e-07
     12     16   2   0.50000     0.0600000   -0.0600000   2.494471e-04  1.671101e-07
     12     19   2   0.50000     0.0600000   -0.1200000   2.494471e-04  1.671101e-07
     12     20   2   0.50000     0.0600000    0.0600000   6.128906e-05  1.496315e-08
     13     16   2   0.50000     0.0600000   -0.0600000   2.494471e-04  1.671101e-07
     13     19   2   0.50000     0.0600000   -0.1200000   2.494471e-04  1.671101e-07
     13     20   2   0.50000     0.0600000    0.0600000   6.128906e-05  1.496315e-08
      5     17   2   0.50000    -0.1200000   -0.1200000   1.015252e-03  1.866303e-06
      5     18   2   0.50000    -0.1200000   -0.1200000   1.015252e-03  1.866303e-06
      5     21   2   0.50000    -0.1200000    0.0600000   2.494471e-04  1.671101e-07
     19     17   2   0.50000    -0.1200000   -0.1200000   1.015252e-03  1.866303e-06
     19     18   2   0.50000    -0.1200000   -0.1200000   1.015252e-03  1.866303e-06
     19     21   2   0.50000    -0.1200000    0.0600000   2.494471e-04  1.671101e-07
     20     17   2   0.50000     0.0600000   -0.1200000   2.494471e-04  1.671101e-07
     20     18   2   0.50000     0.0600000   -0.1200000   2.494471e-04  1.671101e-07
     20     21   2   0.50000     0.0600000    0.0600000   6.128906e-05  1.496315e-08
      5     26   2   0.50000    -0.1200000    0.0600000   2.494471e-04  1.671101e-07
      5     27   2   0.50000    -0.1200000    0.0600000   2.494471e-04  1.671101e-07
      5     28   2   0.50000    -0.1200000   -0.0600000   1.015252e-03  1.866303e-06
     16     26   2   0.50000    -0.0600000    0.0600000   2.494471e-04  1.671101e-07
     16     27   2   0.50000    -0.0600000    0.0600000   2.494471e-04  1.671101e-07
     16     28   2   0.50000    -0.0600000   -0.0600000   1.015252e-03  1.866303e-06
     20     26   2   0.50000     0.0600000    0.0600000   6.128906e-05  1.496315e-08
     20     27   2   0.50000     0.0600000    0.0600000   6.128906e-05  1.496315e-08
     20     28   2   0.50000     0.0600000   -0.0600000   2.494471e-04  1.671101e-07
     15     22   2   0.50000    -0.0600000    0.0600000   2.494471e-04  1.671101e-07
     15     23   2   0.50000    -0.0600000    0.0600000   2.494471e-04  1.671101e-07
     21     22   2   0.50000     0.0600000    0.0600000   6.128906e-05  1.496315e-08
     21     23   2   0.50000     0.0600000    0.0600000   6.128906e-05  1.496315e-08
     15     24   2   0.50000    -0.0600000    0.0600000   2.494471e-04  1.671101e-07
     15     25   2   0.50000    -0.0600000    0.0600000   2.494471e-04  1.671101e-07
     21     24   2   0.50000     0.0600000    0.0600000   6.128906e-05  1.496315e-08
     21     25   2   0.50000     0.0600000    0.0600000   6.128906e-05  1.496315e-08
     22     24   2   0.50000     0.0600000    0.0600000   6.128906e-05  1.496315e-08
     22     25   2   0.50000     0.0600000    0.0600000   6.128906e-05  1.496315e-08
     23     24   2   0.50000     0.0600000    0.0600000   6.128906e-05  1.496315e-08
     23     25   2   0.50000     0.0600000    0.0600000   6.128906e-05  1.496315e-08
     15     29   2   0.50000    -0.0600000   -0.0600000   1.015252e-03  1.866303e-06
     15     32   2   0.50000    -0.0600000   -0.1200000   1.015252e-03  1.866303e-06
     15     33   2   0.50000    -0.0600000    0.0600000   2.494471e-04  1.671101e-07
     26     29   2   0.50000     0.0600000   -0.0600000   2.494471e-04  1.671101e-07
     26     32   2   0.50000     0.0600000   -0.1200000   2.494471e-04  1.671101e-07
     26     33   2   0.50000     0.0600000    0.0600000   6.128906e-05  1.496315e-08
     27     29   2   0.50000     0.0600000   -0.0600000   2.494471e-04  1.671101e-07
     27     32   2   0.50000     0.0600000   -0.1200000   2.494471e-04  1.671101e-07
     27     33   2   0.50000     0.0600000    0.0600000   6.128906e-05  1.496315e-08
     19     30   2   0.50000    -0.1200000   -0.1200000   1.015252e-03  1.866303e-06
     19     31   2   0.50000    -0.1200000   -0.1200000   1.015252e-03  1.866303e-06
     19     34   2   0.50000    -0.1200000    0.0600000   2.494471e-04  1.671101e-07
     32     30   2   0.50000    -0.1200000   -0.1200000   1.015252e-03  1.866303e-06
     32     31   2   0.50000    -0.1200000   -0.1200000   1.015252e-03  1.866303e-06
     32     34   2   0.50000    -0.1200000    0.0600000   2.494471e-04  1.671101e-07
     33     30   2   0.50000     0.0600000   -0.1200000   2.494471e-04  1.671101e-07
     33     31   2   0.50000     0.0600000   -0.1200000   2.494471e-04  1.671101e-07
     33     34   2   0.50000     0.0600000    0.0600000   6.128906e-05  1.496315e-08
     19     39   2   0.50000    -0.1200000    0.0600000   2.494471e-04  1.671101e-07
     19     40   2   0.50000    -0.1200000    0.0600000   2.494471e-04  1.671101e-07
     19     41   2   0.50000    -0.1200000   -0.0600000   1.015252e-03  1.866303e-06
     29     39   2   0.50000    -0.0600000    0.0600000   2.494471e-04  1.671101e-07
     29     40   2   0.50000    -0.0600000    0.0600000   2.494471e-04  1.671101e-07
     29     41   2   0.50000    -0.0600000   -0.0600000   1.015252e-03  1.866303e-06
     33     39   2   0.50000     0.0600000    0.0600000   6.128906e-05  1.496315e-08
     33     40   2   0.50000     0.0600000    0.0600000   6.128906e-05  1.496315e-08
     33     41   2   0.50000     0.0600000   -0.0600000   2.494471e-04  1.671101e-07
     28     35   2   0.50000    -0.0600000    0.0600000   2.494471e-04  1.671101e-07
     28     36   2   0.50000    -0.0600000    0.0600000   2.494471e-04  1.671101e-07
     34     35   2   0.50000     0.0600000    0.0600000   6.128906e-05  1.496315e-08
     34     36   2   0.50000     0.0600000    0.0600000   6.128906e-05  1.496315e-08
     28     37   2   0.50000    -0.0600000    0.0600000   2.494471e-04  1.671101e-07
     28     38   2   0.50000    -0.0600000    0.0600000   2.494471e-04  1.671101e-07
     34     37   2   0.50000     0.0600000    0.0600000   6.128906e-05  1.496315e-08
     34     38   2   0.50000     0.0600000    0.0600000   6.128906e-05  1.496315e-08
     35     37   2   0.50000     0.0600000    0.0600000   6.128906e-05  1.496315e-08
     35     38   2   0.50000     0.0600000    0.0600000   6.128906e-05  1.496315e-08
     36     37   2   0.50000     0.0600000    0.0600000   6.128906e-05  1.496315e-08
     36     38   2   0.50000     0.0600000    0.0600000   6.128906e-05  1.496315e-08
     28     42   2   0.50000    -0.0600000   -0.0600000   1.015252e-03  1.866303e-06
     28     45   2   0.50000    -0.0600000   -0.1200000   1.015252e-03  1.866303e-06
     28     46   2   0.50000    -0.0600000    0.0600000   2.494471e-04  1.671101e-07
     39     42   2   0.50000     0.0600000   -0.0600000   2.494471e-04  1.671101e-07
     39     45   2   0.50000     0.0600000   -0.1200000   2.494471e-04  1.671101e-07
     39     46   2   0.50000     0.0600000    0.0600000   6.128906e-05  1.496315e-08
     40     42   2   0.50000     0.0600000   -0.0600000   2.494471e-04  1.671101e-07
     40     45   2   0.50000     0.0600000   -0.1200000   2.494471e-04  1.671101e-07
     40     46   2   0.50000     0.0600000    0.0600000   6.128906e-05  1.496315e-08
     32     43   2   0.50000    -0.1200000   -0.1200000   1.015252e-03  1.866303e-06
     32     44   2   0.50000    -0.1200000   -0.1200000   1.015252e-03  1.866303e-06
     32     47   2   0.50000    -0.1200000    0.0600000   2.494471e-04  1.671101e-07
     45     43   2   0.50000    -0.1200000   -0.1200000   1.015252e-03  1.866303e-06
     45     44   2   0.50000    -0.1200000   -0.1200000   1.015252e-03  1.866303e-06
     45     47   2   0.50000    -0.1200000    0.0600000   2.494471e-04  1.671101e-07
     46     43   2   0.50000     0.0600000   -0.1200000   2.494471e-04  1.671101e-07
     46     44   2   0.50000     0.0600000   -0.1200000   2.494471e-04  1.671101e-07
     46     47   2   0.50000     0.0600000    0.0600000   6.128906e-05  1.496315e-08
     32     52   2   0.50000    -0.1200000    0.0600000   2.494471e-04  1.671101e-07
     32     53   2   0.50000    -0.1200000    0.0600000   2.494471e-04  1.671101e-07
     32     54   2   0.50000    -0.1200000   -0.0600000   1.015252e-03  1.866303e-06
     42     52   2   0.50000    -0.0600000    0.0600000   2.494471e-04  1.671101e-07
     42     53   2   0.50000    -0.0600000    0.0600000   2.494471e-04  1.671101e-07
     42     54   2   0.50000    -0.0600000   -0.0600000   1.015252e-03  1.866303e-06
     46     52   2   0.50000     0.0600000    0.0600000   6.128906e-05  1.496315e-08
     46     53   2   0.50000     0.0600000    0.0600000   6.128906e-05  1.496315e-08
     46     54   2   0.50000     0.0600000   -0.0600000   2.494471e-04  1.671101e-07
     41     48   2   0.50000    -0.0600000    0.0600000   2.494471e-04  1.671101e-07
     41     49   2   0.50000    -0.0600000    0.0600000   2.494471e-04  1.671101e-07
     47     48   2   0.50000     0.0600000    0.0600000   6.128906e-05  1.496315e-08
     47     49   2   0.50000     0.0600000    0.0600000   6.128906e-05  1.496315e-08
     41     50   2   0.50000    -0.0600000    0.0600000   2.494471e-04  1.671101e-07
     41     51   2   0.50000    -0.0600000    0.0600000   2.494471e-04  1.671101e-07
     47     50   2   0.50000     0.0600000    0.0600000   6.128906e-05  1.496315e-08
     47     51   2   0.50000     0.0600000    0.0600000   6.128906e-05  1.496315e-08
     48     50   2   0.50000     0.0600000    0.0600000   6.128906e-05  1.496315e-08
     48     51   2   0.50000     0.0600000    0.0600000   6.128906e-05  1.496315e-08
     49     50   2   0.50000     0.0600000    0.0600000   6.128906e-05  1.496315e-08
     49     51   2   0.50000     0.0600000    0.0600000   6.128906e-05  1.496315e-08
     41     55   2   0.50000    -0.0600000   -0.0600000   1.015252e-03  1.866303e-06
     41     58   2   0.50000    -0.0600000   -0.1200000   1.015252e-03  1.866303e-06
     41     59   2   0.50000    -0.0600000    0.0600000   2.494471e-04  1.671101e-07
     52     55   2   0.50000     0.0600000   -0.0600000   2.494471e-04  1.671101e-07
     52     58   2   0.50000     0.0600000   -0.1200000   2.494471e-04  1.671101e-07
     52     59   2   0.50000     0.0600000    0.0600000   6.128906e-05  1.496315e-08
     53     55   2   0.50000     0.0600000   -0.0600000   2.494471e-04  1.671101e-07
     53     58   2   0.50000     0.0600000   -0.1200000   2.494471e-04  1.671101e-07
     53     59   2   0.50000     0.0600000    0.0600000   6.128906e-05  1.496315e-08
     45     56   2   0.50000    -0.1200000   -0.1200000   1.015252e-03  1.866303e-06
     45     57   2   0.50000    -0.1200000   -0.1200000   1.015252e-03  1.866303e-06
     45     60   2   0.50000    -0.1200000    0.0600000   2.494471e-04  1.671101e-07
     58     56   2   0.50000    -0.1200000   -0.1200000   1.015252e-03  1.866303e-06
     58     57   2   0.50000    -0.1200000   -0.1200000   1.015252e-03  1.866303e-06
     58     60   2   0.50000    -0.1200000    0.0600000   2.494471e-04  1.671101e-07
     59     56   2   0.50000     0.0600000   -0.1200000   2.494471e-04  1.671101e-07
     59     57   2   0.50000     0.0600000   -0.1200000   2.494471e-04  1.671101e-07
     59     60   2   0.50000     0.0600000    0.0600000   6.128906e-05  1.496315e-08
     45     65   2   0.50000    -0.1200000    0.0600000   2.494471e-04  1.671101e-07
     45     66   2   0.50000    -0.1200000    0.0600000   2.494471e-04  1.671101e-07
     45     67   2   0.50000    -0.1200000   -0.0600000   1.015252e-03  1.866303e-06
     55     65   2   0.50000    -0.0600000    0.0600000   2.494471e-04  1.671101e-07
     55     66   2   0.50000    -0.0600000    0.0600000   2.494471e-04  1.671101e-07
     55     67   2   0.50000    -0.0600000   -0.0600000   1.015252e-03  1.866303e-06
     59     65   2   0.50000     0.0600000    0.0600000   6.128906e-05  1.496315e-08
     59     66   2   0.50000     0.0600000    0.0600000   6.128906e-05  1.496315e-08
     59     67   2   0.50000     0.0600000   -0.0600000   2.494471e-04  1.671101e-07
     54     61   2   0.50000    -0.0600000    0.0600000   2.494471e-04  1.671101e-07
     54     62   2   0.50000    -0.0600000    0.0600000   2.494471e-04  1.671101e-07
     60     61   2   0.50000     0.0600000    0.0600000   6.128906e-05  1.496315e-08
     60     62   2   0.50000     0.0600000    0.0600000   6.128906e-05  1.496315e-08
     54     63   2   0.50000    -0.0600000    0.0600000   2.494471e-04  1.671101e-07
     54     64   2   0.50000    -0.0600000    0.0600000   2.494471e-04  1.671101e-07
     60     63   2   0.50000     0.0600000    0.0600000   6.128906e-05  1.496315e-08
     60     64   2   0.50000     0.0600000    0.0600000   6.128906e-05  1.496315e-08
     61     63   2   0.50000     0.0600000    0.0600000   6.128906e-05  1.496315e-08
     61     64   2   0.50000     0.0600000    0.0600000   6.128906e-05  1.496315e-08
     62     63   2   0.50000     0.0600000    0.0600000   6.128906e-05  1.496315e-08
     62     64   2   0.50000     0.0600000    0.0600000   6.128906e-05  1.496315e-08
     54     68   2   0.50000    -0.0600000   -0.0600000   1.015252e-03  1.866303e-06
     54     71   2   0.50000    -0.0600000   -0.1200000   1.015252e-03  1.866303e-06
     54     72   2   0.50000    -0.0600000    0.0600000   2.494471e-04  1.671101e-07
     65     68   2   0.50000     0.0600000   -0.0600000   2.494471e-04  1.671101e-07
     65     71   2   0.50000     0.0600000   -0.1200000   2.494471e-04  1.671101e-07
     65     72   2   0.50000     0.0600000    0.0600000   6.128906e-05  1.496315e-08
     66     68   2   0.50000     0.0600000   -0.0600000   2.494471e-04  1.671101e-07
     66     71   2   0.50000     0.0600000   -0.1200000   2.494471e-04  1.671101e-07
     66     72   2   0.50000     0.0600000    0.0600000   6.128906e-05  1.496315e-08
     58     69   2   0.50000    -0.1200000   -0.1200000   1.015252e-03  1.866303e-06
     58     70   2   0.50000    -0.1200000   -0.1200000   1.015252e-03  1.866303e-06
     58     73   2   0.50000    -0.1200000    0.0600000   2.494471e-04  1.671101e-07
     71     69   2   0.50000    -0.1200000   -0.1200000   1.015252e-03  1.866303e-06
     71     70   2   0.50000    -0.1200000   -0.1200000   1.015252e-03  1.866303e-06
     71     73   2   0.50000    -0.1200000    0.0600000   2.494471e-04  1.671101e-07
     72     69   2   0.50000     0.0600000   -0.1200000   2.494471e-04  1.671101e-07
     72     70   2   0.50000     0.0600000   -0.1200000   2.494471e-04  1.671101e-07
     72     73   2   0.50000     0.0600000    0.0600000   6.128906e-05  1.496315e-08
     58     78   2   0.50000    -0.1200000    0.0600000   2.494471e-04  1.671101e-07
     58     79   2   0.50000    -0.1200000    0.0600000   2.494471e-04  1.671101e-07
     58     80   2   0.50000    -0.1200000   -0.0600000   1.015252e-03  1.866303e-06
     68     78   2   0.50000    -0.0600000    0.0600000   2.494471e-04  1.671101e-07
     68     79   2   0.50000    -0.0600000    0.0600000   2.494471e-04  1.671101e-07
     68     80   2   0.50000    -0.0600000   -0.0600000   1.015252e-03  1.866303e-06
     72     78   2   0.50000     0.0600000    0.0600000   6.128906e-05  1.496315e-08
     72     79   2   0.50000     0.0600000    0.0600000   6.128906e-05  1.496315e-08
     72     80   2   0.50000     0.0600000   -0.0600000   2.494471e-04  1.671101e-07
     67     74   2   0.50000    -0.0600000    0.0600000   2.494471e-04  1.671101e-07
     67     75   2   0.50000    -0.0600000    0.0600000   2.494471e-04  1.671101e-07
     73     74   2   0.50000     0.0600000    0.0600000   6.128906e-05  1.496315e-08
     73     75   2   0.50000     0.0600000    0.0600000   6.128906e-05  1.496315e-08
     67     76   2   0.50000    -0.0600000    0.0600000   2.494471e-04  1.671101e-07
     67     77   2   0.50000    -0.0600000    0.0600000   2.494471e-04  1.671101e-07
     73     76   2   0.50000     0.0600000    0.0600000   6.128906e-05  1.496315e-08
     73     77   2   0.50000     0.0600000    0.0600000   6.128906e-05  1.496315e-08
     74     76   2   0.50000     0.0600000    0.0600000   6.128906e-05  1.496315e-08
     74     77   2   0.50000     0.0600000    0.0600000   6.128906e-05  1.496315e-08
     75     76   2   0.50000     0.0600000    0.0600000   6.128906e-05  1.496315e-08
     75     77   2   0.50000     0.0600000    0.0600000   6.128906e-05  1.496315e-08
     67     81   2   0.50000    -0.0600000   -0.0600000   1.015252e-03  1.866303e-06
     67     84   2   0.50000    -0.0600000   -0.1200000   1.015252e-03  1.866303e-06
     67     85   2   0.50000    -0.0600000    0.0600000   2.494471e-04  1.671101e-07
     78     81   2   0.50000     0.0600000   -0.0600000   2.494471e-04  1.671101e-07
     78     84   2   0.50000     0.0600000   -0.1200000   2.494471e-04  1.671101e-07
     78     85   2   0.50000     0.0600000    0.0600000   6.128906e-05  1.496315e-08
     79     81   2   0.50000     0.0600000   -0.0600000   2.494471e-04  1.671101e-07
     79     84   2   0.50000     0.0600000   -0.1200000   2.494471e-04  1.671101e-07
     79     85   2   0.50000     0.0600000    0.0600000   6.128906e-05  1.496315e-08
     71     82   2   0.50000    -0.1200000   -0.1200000   1.015252e-03  1.866303e-06
     71     83   2   0.50000    -0.1200000   -0.1200000   1.015252e-03  1.866303e-06
     71     86   2   0.50000    -0.1200000    0.0600000   2.494471e-04  1.671101e-07
     84     82   2   0.50000    -0.1200000   -0.1200000   1.015252e-03  1.866303e-06
     84     83   2   0.50000    -0.1200000   -0.1200000   1.015252e-03  1.866303e-06
     84     86   2   0.50000    -0.1200000    0.0600000   2.494471e-04  1.671101e-07
     85     82   2   0.50000     0.0600000   -0.1200000   2.494471e-04  1.671101e-07
     85     83   2   0.50000     0.0600000   -0.1200000   2.494471e-04  1.671101e-07
     85     86   2   0.50000     0.0600000    0.0600000   6.128906e-05  1.496315e-08
     71     91   2   0.50000    -0.1200000    0.0600000   2.494471e-04  1.671101e-07
     71     92   2   0.50000    -0.1200000    0.0600000   2.494471e-04  1.671101e-07
     71     93   2   0.50000    -0.1200000   -0.0600000   1.015252e-03  1.866303e-06
     81     91   2   0.50000    -0.0600000    0.0600000   2.494471e-04  1.671101e-07
     81     92   2   0.50000    -0.0600000    0.0600000   2.494471e-04  1.671101e-07
     81     93   2   0.50000    -0.0600000   -0.0600000   1.015252e-03  1.866303e-06
     85     91   2   0.50000     0.0600000    0.0600000   6.128906e-05  1.496315e-08
     85     92   2   0.50000     0.0600000    0.0600000   6.128906e-05  1.496315e-08
     85     93   2   0.50000     0.0600000   -0.0600000   2.494471e-04  1.671101e-07
     80     87   2   0.50000    -0.0600000    0.0600000   2.494471e-04  1.671101e-07
     80     88   2   0.50000    -0.0600000    0.0600000   2.494471e-04  1.671101e-07
     86     87   2   0.50000     0.0600000    0.0600000   6.128906e-05  1.496315e-08
     86     88   2   0.50000     0.0600000    0.0600000   6.128906e-05  1.496315e-08
     80     89   2   0.50000    -0.0600000    0.0600000   2.494471e-04  1.671101e-07
     80     90   2   0.50000    -0.0600000    0.0600000   2.494471e-04  1.671101e-07
     86     89   2   0.50000     0.0600000    0.0600000   6.128906e-05  1.496315e-08
     86     90   2   0.50000     0.0600000    0.0600000   6.128906e-05  1.496315e-08
     87     89   2   0.50000     0.0600000    0.0600000   6.128906e-05  1.496315e-08
     87     90   2   0.50000     0.0600000    0.0600000   6.128906e-05  1.496315e-08
     88     89   2   0.50000     0.0600000    0.0600000   6.128906e-05  1.496315e-08
     88     90   2   0.50000     0.0600000    0.0600000   6.128906e-05  1.496315e-08
     80     94   2   0.50000    -0.0600000   -0.0600000   1.015252e-03  1.866303e-06
     80     97   2   0.50000    -0.0600000   -0.1200000   1.015252e-03  1.866303e-06
     80     98   2   0.50000    -0.0600000    0.0600000   2.494471e-04  1.671101e-07
     91     94   2   0.50000     0.0600000   -0.0600000   2.494471e-04  1.671101e-07
     91     97   2   0.50000     0.0600000   -0.1200000   2.494471e-04  1.671101e-07
     91     98   2   0.50000     0.0600000    0.0600000   6.128906e-05  1.496315e-08
     92     94   2   0.50000     0.0600000   -0.0600000   2.494471e-04  1.671101e-07
     92     97   2   0.50000     0.0600000   -0.1200000   2.494471e-04  1.671101e-07
     92     98   2   0.50000     0.0600000    0.0600000   6.128906e-05  1.496315e-08
     84     95   2   0.50000    -0.1200000   -0.1200000   1.015252e-03  1.866303e-06
     84     96   2   0.50000    -0.1200000   -0.1200000   1.015252e-03  1.866303e-06
     84     99   2   0.50000    -0.1200000    0.0600000   2.494471e-04  1.671101e-07
     97     95   2   0.50000    -0.1200000   -0.1200000   1.015252e-03  1.866303e-06
     97     96   2   0.50000    -0.1200000   -0.1200000   1.015252e-03  1.866303e-06
     97     99   2   0.50000    -0.1200000    0.0600000   2.494471e-04  1.671101e-07
     98     95   2   0.50000     0.0600000   -0.1200000   2.494471e-04  1.671101e-07
     98     96   2   0.50000     0.0600000   -0.1200000   2.494471e-04  1.671101e-07
     98     99   2   0.50000     0.0600000    0.0600000   6.128906e-05  1.496315e-08
     84    104   2   0.50000    -0.1200000    0.0600000   2.494471e-04  1.671101e-07
     84    105   2   0.50000    -0.1200000    0.0600000   2.494471e-04  1.671101e-07
     84    106   2   0.50000    -0.1200000   -0.0600000   1.015252e-03  1.866303e-06
     94    104   2   0.50000    -0.0600000    0.0600000   2.494471e-04  1.671101e-07
     94    105   2   0.50000    -0.0600000    0.0600000   2.494471e-04  1.671101e-07
     94    106   2   0.50000    -0.0600000   -0.0600000   1.015252e-03  1.866303e-06
     98    104   2   0.50000     0.0600000    0.0600000   6.128906e-05  1.496315e-08
     98    105   2   0.50000     0.0600000    0.0600000   6.128906e-05  1.496315e-08
     98    106   2   0.50000     0.0600000   -0.0600000   2.494471e-04  1.671101e-07
     93    100   2   0.50000    -0.0600000    0.0600000   2.494471e-04  1.671101e-07
     93    101   2   0.50000    -0.0600000    0.0600000   2.494471e-04  1.671101e-07
     99    100   2   0.50000     0.0600000    0.0600000   6.128906e-05  1.496315e-08
     99    101   2   0.50000     0.0600000    0.0600000   6.128906e-05  1.496315e-08
     93    102   2   0.50000    -0.0600000    0.0600000   2.494471e-04  1.671101e-07
     93    103   2   0.50000    -0.0600000    0.0600000   2.494471e-04  1.671101e-07
     99    102   2   0.50000     0.0600000    0.0600000   6.128906e-05  1.496315e-08
     99    103   2   0.50000     0.0600000    0.0600000   6.128906e-05  1.496315e-08
    100    102   2   0.50000     0.0600000    0.0600000   6.128906e-05  1.496315e-08
    100    103   2   0.50000     0.0600000    0.0600000   6.128906e-05  1.496315e-08
    101    102   2   0.50000     0.0600000    0.0600000   6.128906e-05  1.496315e-08
    101    103   2   0.50000     0.0600000    0.0600000   6.128906e-05  1.496315e-08
     93    107   2   0.50000    -0.0600000   -0.0600000   1.015252e-03  1.866303e-06
     93    110   2   0.50000    -0.0600000   -0.1200000   1.015252e-03  1.866303e-06
     93    111   2   0.50000    -0.0600000    0.0600000   2.494471e-04  1.671101e-07
    104    107   2   0.50000     0.0600000   -0.0600000   2.494471e-04  1.671101e-07
    104    110   2   0.50000     0.0600000   -0.1200000   2.494471e-04  1.671101e-07
    104    111   2   0.50000     0.0600000    0.0600000   6.128906e-05  1.496315e-08
    105    107   2   0.50000     0.0600000   -0.0600000   2.494471e-04  1.671101e-07
    105    110   2   0.50000     0.0600000   -0.1200000   2.494471e-04  1.671101e-07
    105    111   2   0.50000     0.0600000    0.0600000   6.128906e-05  1.496315e-08
     97    108   2   0.50000    -0.1200000   -0.1200000   1.015252e-03  1.866303e-06
     97    109   2   0.50000    -0.1200000   -0.1200000   1.015252e-03  1.866303e-06
     97    112   2   0.50000    -0.1200000    0.0600000   2.494471e-04  1.671101e-07
    110    108   2   0.50000    -0.1200000   -0.1200000   1.015252e-03  1.866303e-06
    110    109   2   0.50000    -0.1200000   -0.1200000   1.015252e-03  1.866303e-06
    110    112   2   0.50000    -0.1200000    0.0600000   2.494471e-04  1.671101e-07
    111    108   2   0.50000     0.0600000   -0.1200000   2.494471e-04  1.671101e-07
    111    109   2   0.50000     0.0600000   -0.1200000   2.494471e-04  1.671101e-07
    111    112   2   0.50000     0.0600000    0.0600000   6.128906e-05  1.496315e-08
     97    117   2   0.50000    -0.1200000    0.0600000   2.494471e-04  1.671101e-07
     97    118   2   0.50000    -0.1200000    0.0600000   2.494471e-04  1.671101e-07
     97    119   2   0.50000    -0.1200000   -0.0600000   1.015252e-03  1.866303e-06
    107    117   2   0.50000    -0.0600000    0.0600000   2.494471e-04  1.671101e-07
    107    118   2   0.50000    -0.0600000    0.0600000   2.494471e-04  1.671101e-07
    107    119   2   0.50000    -0.0600000   -0.0600000   1.015252e-03  1.866303e-06
    111    117   2   0.50000     0.0600000    0.0600000   6.128906e-05  1.496315e-08
    111    118   2   0.50000     0.0600000    0.0600000   6.128906e-05  1.496315e-08
    111    119   2   0.50000     0.0600000   -0.0600000   2.494471e-04  1.671101e-07
    106    113   2   0.50000    -0.0600000    0.0600000   2.494471e-04  1.671101e-07
    106    114   2   0.50000    -0.0600000    0.0600000   2.494471e-04  1.671101e-07
    112    113   2   0.50000     0.0600000    0.0600000   6.128906e-05  1.496315e-08
    112    114   2   0.50000     0.0600000    0.0600000   6.128906e-05  1.496315e-08
    106    115   2   0.50000    -0.0600000    0.0600000   2.494471e-04  1.671101e-07
    106    116   2   0.50000    -0.0600000    0.0600000   2.494471e-04  1.671101e-07
    112    115   2   0.50000     0.0600000    0.0600000   6.128906e-05  1.496315e-08
    112    116   2   0.50000     0.0600000    0.0600000   6.128906e-05  1.496315e-08
    113    115   2   0.50000     0.0600000    0.0600000   6.128906e-05  1.496315e-08
    113    116   2   0.50000     0.0600000    0.0600000   6.128906e-05  1.496315e-08
    114    115   2   0.50000     0.0600000    0.0600000   6.128906e-05  1.496315e-08
    114    116   2   0.50000     0.0600000    0.0600000   6.128906e-05  1.496315e-08
    106    120   2   0.50000    -0.0600000   -0.0600000   1.015252e-03  1.866303e-06
    106    123   2   0.50000    -0.0600000   -0.1200000   1.015252e-03  1.866303e-06
    106    124   2   0.50000    -0.0600000    0.0600000   2.494471e-04  1.671101e-07
    117    120   2   0.50000     0.0600000   -0.0600000   2.494471e-04  1.671101e-07
    117    123   2   0.50000     0.0600000   -0.1200000   2.494471e-04  1.671101e-07
    117    124   2   0.50000     0.0600000    0.0600000   6.128906e-05  1.496315e-08
    118    120   2   0.50000     0.0600000   -0.0600000   2.494471e-04  1.671101e-07
    118    123   2   0.50000     0.0600000   -0.1200000   2.494471e-04  1.671101e-07
    118    124   2   0.50000     0.0600000    0.0600000   6.128906e-05  1.496315e-08
    110    121   2   0.50000    -0.1200000   -0.1200000   1.015252e-03  1.866303e-06
    110    122   2   0.50000    -0.1200000   -0.1200000   1.015252e-03  1.866303e-06
    110    125   2   0.50000    -0.1200000    0.0600000   2.494471e-04  1.671101e-07
    123    121   2   0.50000    -0.1200000   -0.1200000   1.015252e-03  1.866303e-06
    123    122   2   0.50000    -0.1200000   -0.1200000   1.015252e-03  1.866303e-06
    123    125   2   0.50000    -0.1200000    0.0600000   2.494471e-04  1.671101e-07
    124    121   2   0.50000     0.0600000   -0.1200000   2.494471e-04  1.671101e-07
    124    122   2   0.50000     0.0600000   -0.1200000   2.494471e-04  1.671101e-07
    124    125   2   0.50000     0.0600000    0.0600000   6.128906e-05  1.496315e-08
    110    130   2   0.50000    -0.1200000    0.0600000   2.494471e-04  1.671101e-07
    110    131   2   0.50000    -0.1200000    0.0600000   2.494471e-04  1.671101e-07
    110    132   2   0.50000    -0.1200000   -0.0600000   1.015252e-03  1.866303e-06
    120    130   2   0.50000    -0.0600000    0.0600000   2.494471e-04  1.671101e-07
    120    131   2   0.50000    -0.0600000    0.0600000   2.494471e-04  1.671101e-07
    120    132   2   0.50000    -0.0600000   -0.0600000   1.015252e-03  1.866303e-06
    124    130   2   0.50000     0.0600000    0.0600000   6.128906e-05  1.496315e-08
    124    131   2   0.50000     0.0600000    0.0600000   6.128906e-05  1.496315e-08
    124    132   2   0.50000     0.0600000   -0.0600000   2.494471e-04  1.671101e-07
    119    126   2   0.50000    -0.0600000    0.0600000   2.494471e-04  1.671101e-07
    119    127   2   0.50000    -0.0600000    0.0600000   2.494471e-04  1.671101e-07
    125    126   2   0.50000     0.0600000    0.0600000   6.128906e-05  1.496315e-08
    125    127   2   0.50000     0.0600000    0.0600000   6.128906e-05  1.496315e-08
    119    128   2   0.50000    -0.0600000    0.0600000   2.494471e-04  1.671101e-07
    119    129   2   0.50000    -0.0600000    0.0600000   2.494471e-04  1.671101e-07
    125    128   2   0.50000     0.0600000    0.0600000   6.128906e-05  1.496315e-08
    125    129   2   0.50000     0.0600000    0.0600000   6.128906e-05  1.496315e-08
    126    128   2   0.50000     0.0600000    0.0600000   6.128906e-05  1.496315e-08
    126    129   2   0.50000     0.0600000    0.0600000   6.128906e-05  1.496315e-08
    127    128   2   0.50000     0.0600000    0.0600000   6.128906e-05  1.496315e-08
    127    129   2   0.50000     0.0600000    0.0600000   6.128906e-05  1.496315e-08
    119    133   2   0.50000    -0.0600000   -0.0600000   1.015252e-03  1.866303e-06
    119    136   2   0.50000    -0.0600000   -0.1200000   1.015252e-03  1.866303e-06
    119    137   2   0.50000    -0.0600000    0.0600000   2.494471e-04  1.671101e-07
    130    133   2   0.50000     0.0600000   -0.0600000   2.494471e-04  1.671101e-07
    130    136   2   0.50000     0.0600000   -0.1200000   2.494471e-04  1.671101e-07
    130    137   2   0.50000     0.0600000    0.0600000   6.128906e-05  1.496315e-08
    131    133   2   0.50000     0.0600000   -0.0600000   2.494471e-04  1.671101e-07
    131    136   2   0.50000     0.0600000   -0.1200000   2.494471e-04  1.671101e-07
    131    137   2   0.50000     0.0600000    0.0600000   6.128906e-05  1.496315e-08
    123    134   2   0.50000    -0.1200000   -0.1200000   1.015252e-03  1.866303e-06
    123    135   2   0.50000    -0.1200000   -0.1200000   1.015252e-03  1.866303e-06
    123    138   2   0.50000    -0.1200000    0.0600000   2.494471e-04  1.671101e-07
    136    134   2   0.50000    -0.1200000   -0.1200000   1.015252e-03  1.866303e-06
    136    135   2   0.50000    -0.1200000   -0.1200000   1.015252e-03  1.866303e-06
    136    138   2   0.50000    -0.1200000    0.0600000   2.494471e-04  1.671101e-07
    137    134   2   0.50000     0.0600000   -0.1200000   2.494471e-04  1.671101e-07
    137    135   2   0.50000     0.0600000   -0.1200000   2.494471e-04  1.671101e-07
    137    138   2   0.50000     0.0600000    0.0600000   6.128906e-05  1.496315e-08
    123    143   2   0.50000    -0.1200000    0.0600000   2.494471e-04  1.671101e-07
    123    144   2   0.50000    -0.1200000    0.0600000   2.494471e-04  1.671101e-07
    123    145   2   0.50000    -0.1200000   -0.0600000   1.015252e-03  1.866303e-06
    133    143   2   0.50000    -0.0600000    0.0600000   2.494471e-04  1.671101e-07
    133    144   2   0.50000    -0.0600000    0.0600000   2.494471e-04  1.671101e-07
    133    145   2   0.50000    -0.0600000   -0.0600000   1.015252e-03  1.866303e-06
    137    143   2   0.50000     0.0600000    0.0600000   6.128906e-05  1.496315e-08
    137    144   2   0.50000     0.0600000    0.0600000   6.128906e-05  1.496315e-08
    137    145   2   0.50000     0.0600000   -0.0600000   2.494471e-04  1.671101e-07
    132    139   2   0.50000    -0.0600000    0.0600000   2.494471e-04  1.671101e-07
    132    140   2   0.50000    -0.0600000    0.0600000   2.494471e-04  1.671101e-07
    138    139   2   0.50000     0.0600000    0.0600000   6.128906e-05  1.496315e-08
    138    140   2   0.50000     0.0600000    0.0600000   6.128906e-05  1.496315e-08
    132    141   2   0.50000    -0.0600000    0.0600000   2.494471e-04  1.671101e-07
    132    142   2   0.50000    -0.0600000    0.0600000   2.494471e-04  1.671101e-07
    138    141   2   0.50000     0.0600000    0.0600000   6.128906e-05  1.496315e-08
    138    142   2   0.50000     0.0600000    0.0600000   6.128906e-05  1.496315e-08
    139    141   2   0.50000     0.0600000    0.0600000   6.128906e-05  1.496315e-08
    139    142   2   0.50000     0.0600000    0.0600000   6.128906e-05  1.496315e-08
    140    141   2   0.50000     0.0600000    0.0600000   6.128906e-05  1.496315e-08
    140    142   2   0.50000     0.0600000    0.0600000   6.128906e-05  1.496315e-08
    132    146   2   0.50000    -0.0600000   -0.0600000   1.015252e-03  1.866303e-06
    132    149   2   0.50000    -0.0600000   -0.1200000   1.015252e-03  1.866303e-06
    132    150   2   0.50000    -0.0600000    0.0600000   2.494471e-04  1.671101e-07
    143    146   2   0.50000     0.0600000   -0.0600000   2.494471e-04  1.671101e-07
    143    149   2   0.50000     0.0600000   -0.1200000   2.494471e-04  1.671101e-07
    143    150   2   0.50000     0.0600000    0.0600000   6.128906e-05  1.496315e-08
    144    146   2   0.50000     0.0600000   -0.0600000   2.494471e-04  1.671101e-07
    144    149   2   0.50000     0.0600000   -0.1200000   2.494471e-04  1.671101e-07
    144    150   2   0.50000     0.0600000    0.0600000   6.128906e-05  1.496315e-08
    136    147   2   0.50000    -0.1200000   -0.1200000   1.015252e-03  1.866303e-06
    136    148   2   0.50000    -0.1200000   -0.1200000   1.015252e-03  1.866303e-06
    136    151   2   0.50000    -0.1200000    0.0600000   2.494471e-04  1.671101e-07
    149    147   2   0.50000    -0.1200000   -0.1200000   1.015252e-03  1.866303e-06
    149    148   2   0.50000    -0.1200000   -0.1200000   1.015252e-03  1.866303e-06
    149    151   2   0.50000    -0.1200000    0.0600000   2.494471e-04  1.671101e-07
    150    147   2   0.50000     0.0600000   -0.1200000   2.494471e-04  1.671101e-07
    150    148   2   0.50000     0.0600000   -0.1200000   2.494471e-04  1.671101e-07
    150    151   2   0.50000     0.0600000    0.0600000   6.128906e-05  1.496315e-08
    136    156   2   0.50000    -0.1200000    0.0600000   2.494471e-04  1.671101e-07
    136    157   2   0.50000    -0.1200000    0.0600000   2.494471e-04  1.671101e-07
    136    158   2   0.50000    -0.1200000   -0.0600000   1.015252e-03  1.866303e-06
    146    156   2   0.50000    -0.0600000    0.0600000   2.494471e-04  1.671101e-07
    146    157   2   0.50000    -0.0600000    0.0600000   2.494471e-04  1.671101e-07
    146    158   2   0.50000    -0.0600000   -0.0600000   1.015252e-03  1.866303e-06
    150    156   2   0.50000     0.0600000    0.0600000   6.128906e-05  1.496315e-08
    150    157   2   0.50000     0.0600000    0.0600000   6.128906e-05  1.496315e-08
    150    158   2   0.50000     0.0600000   -0.0600000   2.494471e-04  1.671101e-07
    145    152   2   0.50000    -0.0600000    0.0600000   2.494471e-04  1.671101e-07
    145    153   2   0.50000    -0.0600000    0.0600000   2.494471e-04  1.671101e-07
    151    152   2   0.50000     0.0600000    0.0600000   6.128906e-05  1.496315e-08
    151    153   2   0.50000     0.0600000    0.0600000   6.128906e-05  1.496315e-08
    145    154   2   0.50000    -0.0600000    0.0600000   2.494471e-04  1.671101e-07
    145    155   2   0.50000    -0.0600000    0.0600000   2.494471e-04  1.671101e-07
    151    154   2   0.50000     0.0600000    0.0600000   6.128906e-05  1.496315e-08
    151    155   2   0.50000     0.0600000    0.0600000   6.128906e-05  1.496315e-08
    152    154   2   0.50000     0.0600000    0.0600000   6.128906e-05  1.496315e-08
    152    155   2   0.50000     0.0600000    0.0600000   6.128906e-05  1.496315e-08
    153    154   2   0.50000     0.0600000    0.0600000   6.128906e-05  1.496315e-08
    153    155   2   0.50000     0.0600000    0.0600000   6.128906e-05  1.496315e-08
    145    159   2   0.50000    -0.0600000   -0.0600000   1.015252e-03  1.866303e-06
    145    162   2   0.50000    -0.0600000   -0.1200000   1.015252e-03  1.866303e-06
    145    163   2   0.50000    -0.0600000    0.0600000   2.494471e-04  1.671101e-07
    156    159   2   0.50000     0.0600000   -0.0600000   2.494471e-04  1.671101e-07
    156    162   2   0.50000     0.0600000   -0.1200000   2.494471e-04  1.671101e-07
    156    163   2   0.50000     0.0600000    0.0600000   6.128906e-05  1.496315e-08
    157    159   2   0.50000     0.0600000   -0.0600000   2.494471e-04  1.671101e-07
    157    162   2   0.50000     0.0600000   -0.1200000   2.494471e-04  1.671101e-07
    157    163   2   0.50000     0.0600000    0.0600000   6.128906e-05  1.496315e-08
    149    160   2   0.50000    -0.1200000   -0.1200000   1.015252e-03  1.866303e-06
    149    161   2   0.50000    -0.1200000   -0.1200000   1.015252e-03  1.866303e-06
    149    164   2   0.50000    -0.1200000    0.0600000   2.494471e-04  1.671101e-07
    162    160   2   0.50000    -0.1200000   -0.1200000   1.015252e-03  1.866303e-06
    162    161   2   0.50000    -0.1200000   -0.1200000   1.015252e-03  1.866303e-06
    162    164   2   0.50000    -0.1200000    0.0600000   2.494471e-04  1.671101e-07
    163    160   2   0.50000     0.0600000   -0.1200000   2.494471e-04  1.671101e-07
    163    161   2   0.50000     0.0600000   -0.1200000   2.494471e-04  1.671101e-07
    163    164   2   0.50000     0.0600000    0.0600000   6.128906e-05  1.496315e-08
    149    169   2   0.50000    -0.1200000    0.0600000   2.494471e-04  1.671101e-07
    149    170   2   0.50000    -0.1200000    0.0600000   2.494471e-04  1.671101e-07
    149    171   2   0.50000    -0.1200000   -0.0600000   1.015252e-03  1.866303e-06
    159    169   2   0.50000    -0.0600000    0.0600000   2.494471e-04  1.671101e-07
    159    170   2   0.50000    -0.0600000    0.0600000   2.494471e-04  1.671101e-07
    159    171   2   0.50000    -0.0600000   -0.0600000   1.015252e-03  1.866303e-06
    163    169   2   0.50000     0.0600000    0.0600000   6.128906e-05  1.496315e-08
    163    170   2   0.50000     0.0600000    0.0600000   6.128906e-05  1.496315e-08
    163    171   2   0.50000     0.0600000   -0.0600000   2.494471e-04  1.671101e-07
    158    165   2   0.50000    -0.0600000    0.0600000   2.494471e-04  1.671101e-07
    158    166   2   0.50000    -0.0600000    0.0600000   2.494471e-04  1.671101e-07
    164    165   2   0.50000     0.0600000    0.0600000   6.128906e-05  1.496315e-08
    164    166   2   0.50000     0.0600000    0.0600000   6.128906e-05  1.496315e-08
    158    167   2   0.50000    -0.0600000    0.0600000   2.494471e-04  1.671101e-07
    158    168   2   0.50000    -0.0600000    0.0600000   2.494471e-04  1.671101e-07
    164    167   2   0.50000     0.0600000    0.0600000   6.128906e-05  1.496315e-08
    164    168   2   0.50000     0.0600000    0.0600000   6.128906e-05  1.496315e-08
    165    167   2   0.50000     0.0600000    0.0600000   6.128906e-05  1.496315e-08
    165    168   2   0.50000     0.0600000    0.0600000   6.128906e-05  1.496315e-08
    166    167   2   0.50000     0.0600000    0.0600000   6.128906e-05  1.496315e-08
    166    168   2   0.50000     0.0600000    0.0600000   6.128906e-05  1.496315e-08
    158    172   2   0.50000    -0.0600000   -0.0600000   1.015252e-03  1.866303e-06
    158    175   2   0.50000    -0.0600000   -0.1200000   1.015252e-03  1.866303e-06
    158    176   2   0.50000    -0.0600000    0.0600000   2.494471e-04  1.671101e-07
    169    172   2   0.50000     0.0600000   -0.0600000   2.494471e-04  1.671101e-07
    169    175   2   0.50000     0.0600000   -0.1200000   2.494471e-04  1.671101e-07
    169    176   2   0.50000     0.0600000    0.0600000   6.128906e-05  1.496315e-08
    170    172   2   0.50000     0.0600000   -0.0600000   2.494471e-04  1.671101e-07
    170    175   2   0.50000     0.0600000   -0.1200000   2.494471e-04  1.671101e-07
    170    176   2   0.50000     0.0600000    0.0600000   6.128906e-05  1.496315e-08
    162    173   2   0.50000    -0.1200000   -0.1200000   1.015252e-03  1.866303e-06
    162    174   2   0.50000    -0.1200000   -0.1200000   1.015252e-03  1.866303e-06
    162    177   2   0.50000    -0.1200000    0.0600000   2.494471e-04  1.671101e-07
    175    173   2   0.50000    -0.1200000   -0.1200000   1.015252e-03  1.866303e-06
    175    174   2   0.50000    -0.1200000   -0.1200000   1.015252e-03  1.866303e-06
    175    177   2   0.50000    -0.1200000    0.0600000   2.494471e-04  1.671101e-07
    176    173   2   0.50000     0.0600000   -0.1200000   2.494471e-04  1.671101e-07
    176    174   2   0.50000     0.0600000   -0.1200000   2.494471e-04  1.671101e-07
    176    177   2   0.50000     0.0600000    0.0600000   6.128906e-05  1.496315e-08
    162    182   2   0.50000    -0.1200000    0.0600000   2.494471e-04  1.671101e-07
    162    183   2   0.50000    -0.1200000    0.0600000   2.494471e-04  1.671101e-07
    162    184   2   0.50000    -0.1200000   -0.0600000   1.015252e-03  1.866303e-06
    172    182   2   0.50000    -0.0600000    0.0600000   2.494471e-04  1.671101e-07
    172    183   2   0.50000    -0.0600000    0.0600000   2.494471e-04  1.671101e-07
    172    184   2   0.50000    -0.0600000   -0.0600000   1.015252e-03  1.866303e-06
    176    182   2   0.50000     0.0600000    0.0600000   6.128906e-05  1.496315e-08
    176    183   2   0.50000     0.0600000    0.0600000   6.128906e-05  1.496315e-08
    176    184   2   0.50000     0.0600000   -0.0600000   2.494471e-04  1.671101e-07
    171    178   2   0.50000    -0.0600000    0.0600000   2.494471e-04  1.671101e-07
    171    179   2   0.50000    -0.0600000    0.0600000   2.494471e-04  1.671101e-07
    177    178   2   0.50000     0.0600000    0.0600000   6.128906e-05  1.496315e-08
    177    179   2   0.50000     0.0600000    0.0600000   6.128906e-05  1.496315e-08
    171    180   2   0.50000    -0.0600000    0.0600000   2.494471e-04  1.671101e-07
    171    181   2   0.50000    -0.0600000    0.0600000   2.494471e-04  1.671101e-07
    177    180   2   0.50000     0.0600000    0.0600000   6.128906e-05  1.496315e-08
    177    181   2   0.50000     0.0600000    0.0600000   6.128906e-05  1.496315e-08
    178    180   2   0.50000     0.0600000    0.0600000   6.128906e-05  1.496315e-08
    178    181   2   0.50000     0.0600000    0.0600000   6.128906e-05  1.496315e-08
    179    180   2   0.50000     0.0600000    0.0600000   6.128906e-05  1.496315e-08
    179    181   2   0.50000     0.0600000    0.0600000   6.128906e-05  1.496315e-08
    171    185   2   0.50000    -0.0600000   -0.0600000   1.015252e-03  1.866303e-06
    171    188   2   0.50000    -0.0600000   -0.1200000   1.015252e-03  1.866303e-06
    171    189   2   0.50000    -0.0600000    0.0600000   2.494471e-04  1.671101e-07
    182    185   2   0.50000     0.0600000   -0.0600000   2.494471e-04  1.671101e-07
    182    188   2   0.50000     0.0600000   -0.1200000   2.494471e-04  1.671101e-07
    182    189   2   0.50000     0.0600000    0.0600000   6.128906e-05  1.496315e-08
    183    185   2   0.50000     0.0600000   -0.0600000   2.494471e-04  1.671101e-07
    183    188   2   0.50000     0.0600000   -0.1200000   2.494471e-04  1.671101e-07
    183    189   2   0.50000     0.0600000    0.0600000   6.128906e-05  1.496315e-08
    175    186   2   0.50000    -0.1200000   -0.1200000   1.015252e-03  1.866303e-06
    175    187   2   0.50000    -0.1200000   -0.1200000   1.015252e-03  1.866303e-06
    175    190   2   0.50000    -0.1200000    0.0600000   2.494471e-04  1.671101e-07
    188    186   2   0.50000    -0.1200000   -0.1200000   1.015252e-03  1.866303e-06
    188    187   2   0.50000    -0.1200000   -0.1200000   1.015252e-03  1.866303e-06
    188    190   2   0.50000    -0.1200000    0.0600000   2.494471e-04  1.671101e-07
    189    186   2   0.50000     0.0600000   -0.1200000   2.494471e-04  1.671101e-07
    189    187   2   0.50000     0.0600000   -0.1200000   2.494471e-04  1.671101e-07
    189    190   2   0.50000     0.0600000    0.0600000   6.128906e-05  1.496315e-08
    175    195   2   0.50000    -0.1200000    0.0600000   2.494471e-04  1.671101e-07
    175    196   2   0.50000    -0.1200000    0.0600000   2.494471e-04  1.671101e-07
    175    197   2   0.50000    -0.1200000   -0.0600000   1.015252e-03  1.866303e-06
    185    195   2   0.50000    -0.0600000    0.0600000   2.494471e-04  1.671101e-07
    185    196   2   0.50000    -0.0600000    0.0600000   2.494471e-04  1.671101e-07
    185    197   2   0.50000    -0.0600000   -0.0600000   1.015252e-03  1.866303e-06
    189    195   2   0.50000     0.0600000    0.0600000   6.128906e-05  1.496315e-08
    189    196   2   0.50000     0.0600000    0.0600000   6.128906e-05  1.496315e-08
    189    197   2   0.50000     0.0600000   -0.0600000   2.494471e-04  1.671101e-07
    184    191   2   0.50000    -0.0600000    0.0600000   2.494471e-04  1.671101e-07
    184    192   2   0.50000    -0.0600000    0.0600000   2.494471e-04  1.671101e-07
    190    191   2   0.50000     0.0600000    0.0600000   6.128906e-05  1.496315e-08
    190    192   2   0.50000     0.0600000    0.0600000   6.128906e-05  1.496315e-08
    184    193   2   0.50000    -0.0600000    0.0600000   2.494471e-04  1.671101e-07
    184    194   2   0.50000    -0.0600000    0.0600000   2.494471e-04  1.671101e-07
    190    193   2   0.50000     0.0600000    0.0600000   6.128906e-05  1.496315e-08
    190    194   2   0.50000     0.0600000    0.0600000   6.128906e-05  1.496315e-08
    191    193   2   0.50000     0.0600000    0.0600000   6.128906e-05  1.496315e-08
    191    194   2   0.50000     0.0600000    0.0600000   6.128906e-05  1.496315e-08
    192    193   2   0.50000     0.0600000    0.0600000   6.128906e-05  1.496315e-08
    192    194   2   0.50000     0.0600000    0.0600000   6.128906e-05  1.496315e-08
    184    198   2   0.50000    -0.0600000   -0.0600000   1.015252e-03  1.866303e-06
    184    201   2   0.50000    -0.0600000   -0.1200000   1.015252e-03  1.866303e-06
    184    202   2   0.50000    -0.0600000    0.0600000   2.494471e-04  1.671101e-07
    195    198   2   0.50000     0.0600000   -0.0600000   2.494471e-04  1.671101e-07
    195    201   2   0.50000     0.0600000   -0.1200000   2.494471e-04  1.671101e-07
    195    202   2   0.50000     0.0600000    0.0600000   6.128906e-05  1.496315e-08
    196    198   2   0.50000     0.0600000   -0.0600000   2.494471e-04  1.671101e-07
    196    201   2   0.50000     0.0600000   -0.1200000   2.494471e-04  1.671101e-07
    196    202   2   0.50000     0.0600000    0.0600000   6.128906e-05  1.496315e-08
    188    199   2   0.50000    -0.1200000   -0.1200000   1.015252e-03  1.866303e-06
    188    200   2   0.50000    -0.1200000   -0.1200000   1.015252e-03  1.866303e-06
    188    203   2   0.50000    -0.1200000    0.0600000   2.494471e-04  1.671101e-07
    201    199   2   0.50000    -0.1200000   -0.1200000   1.015252e-03  1.866303e-06
    201    200   2   0.50000    -0.1200000   -0.1200000   1.015252e-03  1.866303e-06
    201    203   2   0.50000    -0.1200000    0.0600000   2.494471e-04  1.671101e-07
    202    199   2   0.50000     0.0600000   -0.1200000   2.494471e-04  1.671101e-07
    202    200   2   0.50000     0.0600000   -0.1200000   2.494471e-04  1.671101e-07
    202    203   2   0.50000     0.0600000    0.0600000   6.128906e-05  1.496315e-08
    188    208   2   0.50000    -0.1200000    0.0600000   2.494471e-04  1.671101e-07
    188    209   2   0.50000    -0.1200000    0.0600000   2.494471e-04  1.671101e-07
    188    210   2   0.50000    -0.1200000   -0.0600000   1.015252e-03  1.866303e-06
    198    208   2   0.50000    -0.0600000    0.0600000   2.494471e-04  1.671101e-07
    198    209   2   0.50000    -0.0600000    0.0600000   2.494471e-04  1.671101e-07
    198    210   2   0.50000    -0.0600000   -0.0600000   1.015252e-03  1.866303e-06
    202    208   2   0.50000     0.0600000    0.0600000   6.128906e-05  1.496315e-08
    202    209   2   0.50000     0.0600000    0.0600000   6.128906e-05  1.496315e-08
    202    210   2   0.50000     0.0600000   -0.0600000   2.494471e-04  1.671101e-07
    197    204   2   0.50000    -0.0600000    0.0600000   2.494471e-04  1.671101e-07
    197    205   2   0.50000    -0.0600000    0.0600000   2.494471e-04  1.671101e-07
    203    204   2   0.50000     0.0600000    0.0600000   6.128906e-05  1.496315e-08
    203    205   2   0.50000     0.0600000    0.0600000   6.128906e-05  1.496315e-08
    197    206   2   0.50000    -0.0600000    0.0600000   2.494471e-04  1.671101e-07
    197    207   2   0.50000    -0.0600000    0.0600000   2.494471e-04  1.671101e-07
    203    206   2   0.50000     0.0600000    0.0600000   6.128906e-05  1.496315e-08
    203    207   2   0.50000     0.0600000    0.0600000   6.128906e-05  1.496315e-08
    204    206   2   0.50000     0.0600000    0.0600000   6.128906e-05  1.496315e-08
    204    207   2   0.50000     0.0600000    0.0600000   6.128906e-05  1.496315e-08
    205    206   2   0.50000     0.0600000    0.0600000   6.128906e-05  1.496315e-08
    205    207   2   0.50000     0.0600000    0.0600000   6.128906e-05  1.496315e-08
    197    211   2   0.50000    -0.0600000   -0.0600000   1.015252e-03  1.866303e-06
    197    214   2   0.50000    -0.0600000   -0.1200000   1.015252e-03  1.866303e-06
    197    215   2   0.50000    -0.0600000    0.0600000   2.494471e-04  1.671101e-07
    208    211   2   0.50000     0.0600000   -0.0600000   2.494471e-04  1.671101e-07
    208    214   2   0.50000     0.0600000   -0.1200000   2.494471e-04  1.671101e-07
    208    215   2   0.50000     0.0600000    0.0600000   6.128906e-05  1.496315e-08
    209    211   2   0.50000     0.0600000   -0.0600000   2.494471e-04  1.671101e-07
    209    214   2   0.50000     0.0600000   -0.1200000   2.494471e-04  1.671101e-07
    209    215   2   0.50000     0.0600000    0.0600000   6.128906e-05  1.496315e-08
    201    212   2   0.50000    -0.1200000   -0.1200000   1.015252e-03  1.866303e-06
    201    213   2   0.50000    -0.1200000   -0.1200000   1.015252e-03  1.866303e-06
    201    216   2   0.50000    -0.1200000    0.0600000   2.494471e-04  1.671101e-07
    214    212   2   0.50000    -0.1200000   -0.1200000   1.015252e-03  1.866303e-06
    214    213   2   0.50000    -0.1200000   -0.1200000   1.015252e-03  1.866303e-06
    214    216   2   0.50000    -0.1200000    0.0600000   2.494471e-04  1.671101e-07
    215    212   2   0.50000     0.0600000   -0.1200000   2.494471e-04  1.671101e-07
    215    213   2   0.50000     0.0600000   -0.1200000   2.494471e-04  1.671101e-07
    215    216   2   0.50000     0.0600000    0.0600000   6.128906e-05  1.496315e-08
    201    221   2   0.50000    -0.1200000    0.0600000   2.494471e-04  1.671101e-07
    201    222   2   0.50000    -0.1200000    0.0600000   2.494471e-04  1.671101e-07
    201    223   2   0.50000    -0.1200000   -0.0600000   1.015252e-03  1.866303e-06
    211    221   2   0.50000    -0.0600000    0.0600000   2.494471e-04  1.671101e-07
    211    222   2   0.50000    -0.0600000    0.0600000   2.494471e-04  1.671101e-07
    211    223   2   0.50000    -0.0600000   -0.0600000   1.015252e-03  1.866303e-06
    215    221   2   0.50000     0.0600000    0.0600000   6.128906e-05  1.496315e-08
    215    222   2   0.50000     0.0600000    0.0600000   6.128906e-05  1.496315e-08
    215    223   2   0.50000     0.0600000   -0.0600000   2.494471e-04  1.671101e-07
    210    217   2   0.50000    -0.0600000    0.0600000   2.494471e-04  1.671101e-07
    210    218   2   0.50000    -0.0600000    0.0600000   2.494471e-04  1.671101e-07
    216    217   2   0.50000     0.0600000    0.0600000   6.128906e-05  1.496315e-08
    216    218   2   0.50000     0.0600000    0.0600000   6.128906e-05  1.496315e-08
    210    219   2   0.50000    -0.0600000    0.0600000   2.494471e-04  1.671101e-07
    210    220   2   0.50000    -0.0600000    0.0600000   2.494471e-04  1.671101e-07
    216    219   2   0.50000     0.0600000    0.0600000   6.128906e-05  1.496315e-08
    216    220   2   0.50000     0.0600000    0.0600000   6.128906e-05  1.496315e-08
    217    219   2   0.50000     0.0600000    0.0600000   6.128906e-05  1.496315e-08
    217    220   2   0.50000     0.0600000    0.0600000   6.128906e-05  1.496315e-08
    218    219   2   0.50000     0.0600000    0.0600000   6.128906e-05  1.496315e-08
    218    220   2   0.50000     0.0600000    0.0600000   6.128906e-05  1.496315e-08
    210    224   2   0.50000    -0.0600000   -0.0600000   1.015252e-03  1.866303e-06
    210    227   2   0.50000    -0.0600000   -0.1200000   1.015252e-03  1.866303e-06
    210    228   2   0.50000    -0.0600000    0.0600000   2.494471e-04  1.671101e-07
    221    224   2   0.50000     0.0600000   -0.0600000   2.494471e-04  1.671101e-07
    221    227   2   0.50000     0.0600000   -0.1200000   2.494471e-04  1.671101e-07
    221    228   2   0.50000     0.0600000    0.0600000   6.128906e-05  1.496315e-08
    222    224   2   0.50000     0.0600000   -0.0600000   2.494471e-04  1.671101e-07
    222    227   2   0.50000     0.0600000   -0.1200000   2.494471e-04  1.671101e-07
    222    228   2   0.50000     0.0600000    0.0600000   6.128906e-05  1.496315e-08
    214    225   2   0.50000    -0.1200000   -0.1200000   1.015252e-03  1.866303e-06
    214    226   2   0.50000    -0.1200000   -0.1200000   1.015252e-03  1.866303e-06
    214    229   2   0.50000    -0.1200000    0.0600000   2.494471e-04  1.671101e-07
    227    225   2   0.50000    -0.1200000   -0.1200000   1.015252e-03  1.866303e-06
    227    226   2   0.50000    -0.1200000   -0.1200000   1.015252e-03  1.866303e-06
    227    229   2   0.50000    -0.1200000    0.0600000   2.494471e-04  1.671101e-07
    228    225   2   0.50000     0.0600000   -0.1200000   2.494471e-04  1.671101e-07
    228    226   2   0.50000     0.0600000   -0.1200000   2.494471e-04  1.671101e-07
    228    229   2   0.50000     0.0600000    0.0600000   6.128906e-05  1.496315e-08
    214    234   2   0.50000    -0.1200000    0.0600000   2.494471e-04  1.671101e-07
    214    235   2   0.50000    -0.1200000    0.0600000   2.494471e-04  1.671101e-07
    214    236   2   0.50000    -0.1200000   -0.0600000   1.015252e-03  1.866303e-06
    224    234   2   0.50000    -0.0600000    0.0600000   2.494471e-04  1.671101e-07
    224    235   2   0.50000    -0.0600000    0.0600000   2.494471e-04  1.671101e-07
    224    236   2   0.50000    -0.0600000   -0.0600000   1.015252e-03  1.866303e-06
    228    234   2   0.50000     0.0600000    0.0600000   6.128906e-05  1.496315e-08
    228    235   2   0.50000     0.0600000    0.0600000   6.128906e-05  1.496315e-08
    228    236   2   0.50000     0.0600000   -0.0600000   2.494471e-04  1.671101e-07
    223    230   2   0.50000    -0.0600000    0.0600000   2.494471e-04  1.671101e-07
    223    231   2   0.50000    -0.0600000    0.0600000   2.494471e-04  1.671101e-07
    229    230   2   0.50000     0.0600000    0.0600000   6.128906e-05  1.496315e-08
    229    231   2   0.50000     0.0600000    0.0600000   6.128906e-05  1.496315e-08
    223    232   2   0.50000    -0.0600000    0.0600000   2.494471e-04  1.671101e-07
    223    233   2   0.50000    -0.0600000    0.0600000   2.494471e-04  1.671101e-07
    229    232   2   0.50000     0.0600000    0.0600000   6.128906e-05  1.496315e-08
    229    233   2   0.50000     0.0600000    0.0600000   6.128906e-05  1.496315e-08
    230    232   2   0.50000     0.0600000    0.0600000   6.128906e-05  1.496315e-08
    230    233   2   0.50000     0.0600000    0.0600000   6.128906e-05  1.496315e-08
    231    232   2   0.50000     0.0600000    0.0600000   6.128906e-05  1.496315e-08
    231    233   2   0.50000     0.0600000    0.0600000   6.128906e-05  1.496315e-08
    223    237   2   0.50000    -0.0600000   -0.0600000   1.015252e-03  1.866303e-06
    223    240   2   0.50000    -0.0600000   -0.1200000   1.015252e-03  1.866303e-06
    223    241   2   0.50000    -0.0600000    0.0600000   2.494471e-04  1.671101e-07
    234    237   2   0.50000     0.0600000   -0.0600000   2.494471e-04  1.671101e-07
    234    240   2   0.50000     0.0600000   -0.1200000   2.494471e-04  1.671101e-07
    234    241   2   0.50000     0.0600000    0.0600000   6.128906e-05  1.496315e-08
    235    237   2   0.50000     0.0600000   -0.0600000   2.494471e-04  1.671101e-07
    235    240   2   0.50000     0.0600000   -0.1200000   2.494471e-04  1.671101e-07
    235    241   2   0.50000     0.0600000    0.0600000   6.128906e-05  1.496315e-08
    227    238   2   0.50000    -0.1200000   -0.1200000   1.015252e-03  1.866303e-06
    227    239   2   0.50000    -0.1200000   -0.1200000   1.015252e-03  1.866303e-06
    227    242   2   0.50000    -0.1200000    0.0600000   2.494471e-04  1.671101e-07
    240    238   2   0.50000    -0.1200000   -0.1200000   1.015252e-03  1.866303e-06
    240    239   2   0.50000    -0.1200000   -0.1200000   1.015252e-03  1.866303e-06
    240    242   2   0.50000    -0.1200000    0.0600000   2.494471e-04  1.671101e-07
    241    238   2   0.50000     0.0600000   -0.1200000   2.494471e-04  1.671101e-07
    241    239   2   0.50000     0.0600000   -0.1200000   2.494471e-04  1.671101e-07
    241    242   2   0.50000     0.0600000    0.0600000   6.128906e-05  1.496315e-08
    227    247   2   0.50000    -0.1200000    0.0600000   2.494471e-04  1.671101e-07
    227    248   2   0.50000    -0.1200000    0.0600000   2.494471e-04  1.671101e-07
    227    249   2   0.50000    -0.1200000   -0.0600000   1.015252e-03  1.866303e-06
    237    247   2   0.50000    -0.0600000    0.0600000   2.494471e-04  1.671101e-07
    237    248   2   0.50000    -0.0600000    0.0600000   2.494471e-04  1.671101e-07
    237    249   2   0.50000    -0.0600000   -0.0600000   1.015252e-03  1.866303e-06
    241    247   2   0.50000     0.0600000    0.0600000   6.128906e-05  1.496315e-08
    241    248   2   0.50000     0.0600000    0.0600000   6.128906e-05  1.496315e-08
    241    249   2   0.50000     0.0600000   -0.0600000   2.494471e-04  1.671101e-07
    236    243   2   0.50000    -0.0600000    0.0600000   2.494471e-04  1.671101e-07
    236    244   2   0.50000    -0.0600000    0.0600000   2.494471e-04  1.671101e-07
    242    243   2   0.50000     0.0600000    0.0600000   6.128906e-05  1.496315e-08
    242    244   2   0.50000     0.0600000    0.0600000   6.128906e-05  1.496315e-08
    236    245   2   0.50000    -0.0600000    0.0600000   2.494471e-04  1.671101e-07
    236    246   2   0.50000    -0.0600000    0.0600000   2.494471e-04  1.671101e-07
    242    245   2   0.50000     0.0600000    0.0600000   6.128906e-05  1.496315e-08
    242    246   2   0.50000     0.0600000    0.0600000   6.128906e-05  1.496315e-08
    243    245   2   0.50000     0.0600000    0.0600000   6.128906e-05  1.496315e-08
    243    246   2   0.50000     0.0600000    0.0600000   6.128906e-05  1.496315e-08
    244    245   2   0.50000     0.0600000    0.0600000   6.128906e-05  1.496315e-08
    244    246   2   0.50000     0.0600000    0.0600000   6.128906e-05  1.496315e-08
    236    250   2   0.50000    -0.0600000   -0.0600000   1.015252e-03  1.866303e-06
    236    253   2   0.50000    -0.0600000   -0.1800000   1.015252e-03  1.866303e-06
    236    254   2   0.50000    -0.0600000    0.0600000   2.494471e-04  1.671101e-07
    247    250   2   0.50000     0.0600000   -0.0600000   2.494471e-04  1.671101e-07
    247    253   2   0.50000     0.0600000   -0.1800000   2.494471e-04  1.671101e-07
    247    254   2   0.50000     0.0600000    0.0600000   6.128906e-05  1.496315e-08
    248    250   2   0.50000     0.0600000   -0.0600000   2.494471e-04  1.671101e-07
    248    253   2   0.50000     0.0600000   -0.1800000   2.494471e-04  1.671101e-07
    248    254   2   0.50000     0.0600000    0.0600000   6.128906e-05  1.496315e-08
    240    251   2   0.50000    -0.1200000   -0.1200000   1.015252e-03  1.866303e-06
    240    252   2   0.50000    -0.1200000   -0.1200000   1.015252e-03  1.866303e-06
    240    255   2   0.50000    -0.1200000    0.0600000   2.494471e-04  1.671101e-07
    253    251   2   0.50000    -0.1800000   -0.1200000   1.015252e-03  1.866303e-06
    253    252   2   0.50000    -0.1800000   -0.1200000   1.015252e-03  1.866303e-06
    253    255   2   0.50000    -0.1800000    0.0600000   2.494471e-04  1.671101e-07
    254    251   2   0.50000     0.0600000   -0.1200000   2.494471e-04  1.671101e-07
    254    252   2   0.50000     0.0600000   -0.1200000   2.494471e-04  1.671101e-07
    254    255   2   0.50000     0.0600000    0.0600000   6.128906e-05  1.496315e-08
    240    260   2   0.50000    -0.1200000    0.0600000   2.494471e-04  1.671101e-07
    240    261   2   0.50000    -0.1200000    0.0600000   2.494471e-04  1.671101e-07
    240    262   2   0.50000    -0.1200000    0.0600000   2.494471e-04  1.671101e-07
    250    260   2   0.50000    -0.0600000    0.0600000   2.494471e-04  1.671101e-07
    250    261   2   0.50000    -0.0600000    0.0600000   2.494471e-04  1.671101e-07
    250    262   2   0.50000    -0.0600000    0.0600000   2.494471e-04  1.671101e-07
    254    260   2   0.50000     0.0600000    0.0600000   6.128906e-05  1.496315e-08
    254    261   2   0.50000     0.0600000    0.0600000   6.128906e-05  1.496315e-08
    254    262   2   0.50000     0.0600000    0.0600000   6.128906e-05  1.496315e-08
    249    256   2   0.50000    -0.0600000    0.0600000   2.494471e-04  1.671101e-07
    249    257   2   0.50000    -0.0600000    0.0600000   2.494471e-04  1.671101e-07
    255    256   2   0.50000     0.0600000    0.0600000   6.128906e-05  1.496315e-08
    255    257   2   0.50000     0.0600000    0.0600000   6.128906e-05  1.496315e-08
    249    258   2   0.50000    -0.0600000    0.0600000   2.494471e-04  1.671101e-07
    249    259   2   0.50000    -0.0600000    0.0600000   2.494471e-04  1.671101e-07
    255    258   2   0.50000     0.0600000    0.0600000   6.128906e-05  1.496315e-08
    255    259   2   0.50000     0.0600000    0.0600000   6.128906e-05  1.496315e-08
    256    258   2   0.50000     0.0600000    0.0600000   6.128906e-05  1.496315e-08
    256    259   2   0.50000     0.0600000    0.0600000   6.128906e-05  1.496315e-08
    257    258   2   0.50000     0.0600000    0.0600000   6.128906e-05  1.496315e-08
    257    259   2   0.50000     0.0600000    0.0600000   6.128906e-05  1.496315e-08

[ angles ]
; ai  aj  ak
      2      1      5   1    112.3730    585.7600
      2      1      6   1    109.3840    376.5600
      2      1     14   1    109.3840    376.5600
      5      1      6   1    110.7000    313.8000
      5      1     14   1    110.7000    313.8000
      6      1     14   1    107.8000    276.1440
      1      2      3   1    120.9400    502.0800
      1      2      4   1    120.9400    502.0800
      1      2      7   1    115.0450    334.7200
      3      2      4   1     60.0050     83.6800
      3      2      7   1    117.2000    313.8000
      4      2      7   1    117.2000    313.8000
      2      3      4   1     60.0050     83.6800
      2      3      8   1    117.2000    313.8000
      2      3      9   1    117.2000    313.8000
      4      3      8   1    117.2000    313.8000
      4      3      9   1    117.2000    313.8000
      8      3      9   1    114.3000    292.8800
      2      4      3   1     60.0050     83.6800
      2      4     10   1    117.2000    313.8000
      2      4     11   1    117.2000    313.8000
      3      4     10   1    117.2000    313.8000
      3      4     11   1    117.2000    313.8000
     10      4     11   1    114.3000    292.8800
      1      5     12   1    110.7000    313.8000
      1      5     13   1    110.7000    313.8000
      1      5     15   1    112.7000    488.2728
     12      5     13   1    107.8000    276.1440
     12      5     15   1    110.7000    313.8000
     13      5     15   1    110.7000    313.8000
      5     15     16   1    112.3730    585.7600
      5     15     19   1    112.7000    488.2728
      5     15     20   1    110.7000    313.8000
     16     15     19   1    112.3730    585.7600
     16     15     20   1    109.3840    376.5600
     19     15     20   1    110.7000    313.8000
     15     16     17   1    120.9400    502.0800
     15     16     18   1    120.9400    502.0800
     15     16     21   1    115.0450    334.7200
     17     16     18   1     60.0050     83.6800
     17     16     21   1    117.2000    313.8000
     18     16     21   1    117.2000    313.8000
     16     17     18   1     60.0050     83.6800
     16     17     22   1    117.2000    313.8000
     16     17     23   1    117.2000    313.8000
     18     17     22   1    117.2000    313.8000
     18     17     23   1    117.2000    313.8000
     22     17     23   1    114.3000    292.8800
     16     18     17   1     60.0050     83.6800
     16     18     24   1    117.2000    313.8000
     16     18     25   1    117.2000    313.8000
     17     18     24   1    117.2000    313.8000
     17     18     25   1    117.2000    313.8000
     24     18     25   1    114.3000    292.8800
     15     19     26   1    110.7000    313.8000
     15     19     27   1    110.7000    313.8000
     15     19     28   1    112.7000    488.2728
     26     19     27   1    107.8000    276.1440
     26     19     28   1    110.7000    313.8000
     27     19     28   1    110.7000    313.8000
     19     28     29   1    112.3730    585.7600
     19     28     32   1    112.7000    488.2728
     19     28     33   1    110.7000    313.8000
     29     28     32   1    112.3730    585.7600
     29     28     33   1    109.3840    376.5600
     32     28     33   1    110.7000    313.8000
     28     29     30   1    120.9400    502.0800
     28     29     31   1    120.9400    502.0800
     28     29     34   1    115.0450    334.7200
     30     29     31   1     60.0050     83.6800
     30     29     34   1    117.2000    313.8000
     31     29     34   1    117.2000    313.8000
     29     30     31   1     60.0050     83.6800
     29     30     35   1    117.2000    313.8000
     29     30     36   1    117.2000    313.8000
     31     30     35   1    117.2000    313.8000
     31     30     36   1    117.2000    313.8000
     35     30     36   1    114.3000    292.8800
     29     31     30   1     60.0050     83.6800
     29     31     37   1    117.2000    313.8000
     29     31     38   1    117.2000    313.8000
     30     31     37   1    117.2000    313.8000
     30     31     38   1    117.2000    313.8000
     37     31     38   1    114.3000    292.8800
     28     32     39   1    110.7000    313.8000
     28     32     40   1    110.7000    313.8000
     28     32     41   1    112.7000    488.2728
     39     32     40   1    107.8000    276.1440
     39     32     41   1    110.7000    313.8000
     40     32     41   1    110.7000    313.8000
     32     41     42   1    112.3730    585.7600
     32     41     45   1    112.7000    488.2728
     32     41     46   1    110.7000    313.8000
     42     41     45   1    112.3730    585.7600
     42     41     46   1    109.3840    376.5600
     45     41     46   1    110.7000    313.8000
     41     42     43   1    120.9400    502.0800
     41     42     44   1    120.9400    502.0800
     41     42     47   1    115.0450    334.7200
     43     42     44   1     60.0050     83.6800
     43     42     47   1    117.2000    313.8000
     44     42     47   1    117.2000    313.8000
     42     43     44   1     60.0050     83.6800
     42     43     48   1    117.2000    313.8000
     42     43     49   1    117.2000    313.8000
     44     43     48   1    117.2000    313.8000
     44     43     49   1    117.2000    313.8000
     48     43     49   1    114.3000    292.8800
     42     44     43   1     60.0050     83.6800
     42     44     50   1    117.2000    313.8000
     42     44     51   1    117.2000    313.8000
     43     44     50   1    117.2000    313.8000
     43     44     51   1    117.2000    313.8000
     50     44     51   1    114.3000    292.8800
     41     45     52   1    110.7000    313.8000
     41     45     53   1    110.7000    313.8000
     41     45     54   1    112.7000    488.2728
     52     45     53   1    107.8000    276.1440
     52     45     54   1    110.7000    313.8000
     53     45     54   1    110.7000    313.8000
     45     54     55   1    112.3730    585.7600
     45     54     58   1    112.7000    488.2728
     45     54     59   1    110.7000    313.8000
     55     54     58   1    112.3730    585.7600
     55     54     59   1    109.3840    376.5600
     58     54     59   1    110.7000    313.8000
     54     55     56   1    120.9400    502.0800
     54     55     57   1    120.9400    502.0800
     54     55     60   1    115.0450    334.7200
     56     55     57   1     60.0050     83.6800
     56     55     60   1    117.2000    313.8000
     57     55     60   1    117.2000    313.8000
     55     56     57   1     60.0050     83.6800
     55     56     61   1    117.2000    313.8000
     55     56     62   1    117.2000    313.8000
     57     56     61   1    117.2000    313.8000
     57     56     62   1    117.2000    313.8000
     61     56     62   1    114.3000    292.8800
     55     57     56   1     60.0050     83.6800
     55     57     63   1    117.2000    313.8000
     55     57     64   1    117.2000    313.8000
     56     57     63   1    117.2000    313.8000
     56     57     64   1    117.2000    313.8000
     63     57     64   1    114.3000    292.8800
     54     58     65   1    110.7000    313.8000
     54     58     66   1    110.7000    313.8000
     54     58     67   1    112.7000    488.2728
     65     58     66   1    107.8000    276.1440
     65     58     67   1    110.7000    313.8000
     66     58     67   1    110.7000    313.8000
     58     67     68   1    112.3730    585.7600
     58     67     71   1    112.7000    488.2728
     58     67     72   1    110.7000    313.8000
     68     67     71   1    112.3730    585.7600
     68     67     72   1    109.3840    376.5600
     71     67     72   1    110.7000    313.8000
     67     68     69   1    120.9400    502.0800
     67     68     70   1    120.9400    502.0800
     67     68     73   1    115.0450    334.7200
     69     68     70   1     60.0050     83.6800
     69     68     73   1    117.2000    313.8000
     70     68     73   1    117.2000    313.8000
     68     69     70   1     60.0050     83.6800
     68     69     74   1    117.2000    313.8000
     68     69     75   1    117.2000    313.8000
     70     69     74   1    117.2000    313.8000
     70     69     75   1    117.2000    313.8000
     74     69     75   1    114.3000    292.8800
     68     70     69   1     60.0050     83.6800
     68     70     76   1    117.2000    313.8000
     68     70     77   1    117.2000    313.8000
     69     70     76   1    117.2000    313.8000
     69     70     77   1    117.2000    313.8000
     76     70     77   1    114.3000    292.8800
     67     71     78   1    110.7000    313.8000
     67     71     79   1    110.7000    313.8000
     67     71     80   1    112.7000    488.2728
     78     71     79   1    107.8000    276.1440
     78     71     80   1    110.7000    313.8000
     79     71     80   1    110.7000    313.8000
     71     80     81   1    112.3730    585.7600
     71     80     84   1    112.7000    488.2728
     71     80     85   1    110.7000    313.8000
     81     80     84   1    112.3730    585.7600
     81     80     85   1    109.3840    376.5600
     84     80     85   1    110.7000    313.8000
     80     81     82   1    120.9400    502.0800
     80     81     83   1    120.9400    502.0800
     80     81     86   1    115.0450    334.7200
     82     81     83   1     60.0050     83.6800
     82     81     86   1    117.2000    313.8000
     83     81     86   1    117.2000    313.8000
     81     82     83   1     60.0050     83.6800
     81     82     87   1    117.2000    313.8000
     81     82     88   1    117.2000    313.8000
     83     82     87   1    117.2000    313.8000
     83     82     88   1    117.2000    313.8000
     87     82     88   1    114.3000    292.8800
     81     83     82   1     60.0050     83.6800
     81     83     89   1    117.2000    313.8000
     81     83     90   1    117.2000    313.8000
     82     83     89   1    117.2000    313.8000
     82     83     90   1    117.2000    313.8000
     89     83     90   1    114.3000    292.8800
     80     84     91   1    110.7000    313.8000
     80     84     92   1    110.7000    313.8000
     80     84     93   1    112.7000    488.2728
     91     84     92   1    107.8000    276.1440
     91     84     93   1    110.7000    313.8000
     92     84     93   1    110.7000    313.8000
     84     93     94   1    112.3730    585.7600
     84     93     97   1    112.7000    488.2728
     84     93     98   1    110.7000    313.8000
     94     93     97   1    112.3730    585.7600
     94     93     98   1    109.3840    376.5600
     97     93     98   1    110.7000    313.8000
     93     94     95   1    120.9400    502.0800
     93     94     96   1    120.9400    502.0800
     93     94     99   1    115.0450    334.7200
     95     94     96   1     60.0050     83.6800
     95     94     99   1    117.2000    313.8000
     96     94     99   1    117.2000    313.8000
     94     95     96   1     60.0050     83.6800
     94     95    100   1    117.2000    313.8000
     94     95    101   1    117.2000    313.8000
     96     95    100   1    117.2000    313.8000
     96     95    101   1    117.2000    313.8000
    100     95    101   1    114.3000    292.8800
     94     96     95   1     60.0050     83.6800
     94     96    102   1    117.2000    313.8000
     94     96    103   1    117.2000    313.8000
     95     96    102   1    117.2000    313.8000
     95     96    103   1    117.2000    313.8000
    102     96    103   1    114.3000    292.8800
     93     97    104   1    110.7000    313.8000
     93     97    105   1    110.7000    313.8000
     93     97    106   1    112.7000    488.2728
    104     97    105   1    107.8000    276.1440
    104     97    106   1    110.7000    313.8000
    105     97    106   1    110.7000    313.8000
     97    106    107   1    112.3730    585.7600
     97    106    110   1    112.7000    488.2728
     97    106    111   1    110.7000    313.8000
    107    106    110   1    112.3730    585.7600
    107    106    111   1    109.3840    376.5600
    110    106    111   1    110.7000    313.8000
    106    107    108   1    120.9400    502.0800
    106    107    109   1    120.9400    502.0800
    106    107    112   1    115.0450    334.7200
    108    107    109   1     60.0050     83.6800
    108    107    112   1    117.2000    313.8000
    109    107    112   1    117.2000    313.8000
    107    108    109   1     60.0050     83.6800
    107    108    113   1    117.2000    313.8000
    107    108    114   1    117.2000    313.8000
    109    108    113   1    117.2000    313.8000
    109    108    114   1    117.2000    313.8000
    113    108    114   1    114.3000    292.8800
    107    109    108   1     60.0050     83.6800
    107    109    115   1    117.2000    313.8000
    107    109    116   1    117.2000    313.8000
    108    109    115   1    117.2000    313.8000
    108    109    116   1    117.2000    313.8000
    115    109    116   1    114.3000    292.8800
    106    110    117   1    110.7000    313.8000
    106    110    118   1    110.7000    313.8000
    106    110    119   1    112.7000    488.2728
    117    110    118   1    107.8000    276.1440
    117    110    119   1    110.7000    313.8000
    118    110    119   1    110.7000    313.8000
    110    119    120   1    112.3730    585.7600
    110    119    123   1    112.7000    488.2728
    110    119    124   1    110.7000    313.8000
    120    119    123   1    112.3730    585.7600
    120    119    124   1    109.3840    376.5600
    123    119    124   1    110.7000    313.8000
    119    120    121   1    120.9400    502.0800
    119    120    122   1    120.9400    502.0800
    119    120    125   1    115.0450    334.7200
    121    120    122   1     60.0050     83.6800
    121    120    125   1    117.2000    313.8000
    122    120    125   1    117.2000    313.8000
    120    121    122   1     60.0050     83.6800
    120    121    126   1    117.2000    313.8000
    120    121    127   1    117.2000    313.8000
    122    121    126   1    117.2000    313.8000
    122    121    127   1    117.2000    313.8000
    126    121    127   1    114.3000    292.8800
    120    122    121   1     60.0050     83.6800
    120    122    128   1    117.2000    313.8000
    120    122    129   1    117.2000    313.8000
    121    122    128   1    117.2000    313.8000
    121    122    129   1    117.2000    313.8000
    128    122    129   1    114.3000    292.8800
    119    123    130   1    110.7000    313.8000
    119    123    131   1    110.7000    313.8000
    119    123    132   1    112.7000    488.2728
    130    123    131   1    107.8000    276.1440
    130    123    132   1    110.7000    313.8000
    131    123    132   1    110.7000    313.8000
    123    132    133   1    112.3730    585.7600
    123    132    136   1    112.7000    488.2728
    123    132    137   1    110.7000    313.8000
    133    132    136   1    112.3730    585.7600
    133    132    137   1    109.3840    376.5600
    136    132    137   1    110.7000    313.8000
    132    133    134   1    120.9400    502.0800
    132    133    135   1    120.9400    502.0800
    132    133    138   1    115.0450    334.7200
    134    133    135   1     60.0050     83.6800
    134    133    138   1    117.2000    313.8000
    135    133    138   1    117.2000    313.8000
    133    134    135   1     60.0050     83.6800
    133    134    139   1    117.2000    313.8000
    133    134    140   1    117.2000    313.8000
    135    134    139   1    117.2000    313.8000
    135    134    140   1    117.2000    313.8000
    139    134    140   1    114.3000    292.8800
    133    135    134   1     60.0050     83.6800
    133    135    141   1    117.2000    313.8000
    133    135    142   1    117.2000    313.8000
    134    135    141   1    117.2000    313.8000
    134    135    142   1    117.2000    313.8000
    141    135    142   1    114.3000    292.8800
    132    136    143   1    110.7000    313.8000
    132    136    144   1    110.7000    313.8000
    132    136    145   1    112.7000    488.2728
    143    136    144   1    107.8000    276.1440
    143    136    145   1    110.7000    313.8000
    144    136    145   1    110.7000    313.8000
    136    145    146   1    112.3730    585.7600
    136    145    149   1    112.7000    488.2728
    136    145    150   1    110.7000    313.8000
    146    145    149   1    112.3730    585.7600
    146    145    150   1    109.3840    376.5600
    149    145    150   1    110.7000    313.8000
    145    146    147   1    120.9400    502.0800
    145    146    148   1    120.9400    502.0800
    145    146    151   1    115.0450    334.7200
    147    146    148   1     60.0050     83.6800
    147    146    151   1    117.2000    313.8000
    148    146    151   1    117.2000    313.8000
    146    147    148   1     60.0050     83.6800
    146    147    152   1    117.2000    313.8000
    146    147    153   1    117.2000    313.8000
    148    147    152   1    117.2000    313.8000
    148    147    153   1    117.2000    313.8000
    152    147    153   1    114.3000    292.8800
    146    148    147   1     60.0050     83.6800
    146    148    154   1    117.2000    313.8000
    146    148    155   1    117.2000    313.8000
    147    148    154   1    117.2000    313.8000
    147    148    155   1    117.2000    313.8000
    154    148    155   1    114.3000    292.8800
    145    149    156   1    110.7000    313.8000
    145    149    157   1    110.7000    313.8000
    145    149    158   1    112.7000    488.2728
    156    149    157   1    107.8000    276.1440
    156    149    158   1    110.7000    313.8000
    157    149    158   1    110.7000    313.8000
    149    158    159   1    112.3730    585.7600
    149    158    162   1    112.7000    488.2728
    149    158    163   1    110.7000    313.8000
    159    158    162   1    112.3730    585.7600
    159    158    163   1    109.3840    376.5600
    162    158    163   1    110.7000    313.8000
    158    159    160   1    120.9400    502.0800
    158    159    161   1    120.9400    502.0800
    158    159    164   1    115.0450    334.7200
    160    159    161   1     60.0050     83.6800
    160    159    164   1    117.2000    313.8000
    161    159    164   1    117.2000    313.8000
    159    160    161   1     60.0050     83.6800
    159    160    165   1    117.2000    313.8000
    159    160    166   1    117.2000    313.8000
    161    160    165   1    117.2000    313.8000
    161    160    166   1    117.2000    313.8000
    165    160    166   1    114.3000    292.8800
    159    161    160   1     60.0050     83.6800
    159    161    167   1    117.2000    313.8000
    159    161    168   1    117.2000    313.8000
    160    161    167   1    117.2000    313.8000
    160    161    168   1    117.2000    313.8000
    167    161    168   1    114.3000    292.8800
    158    162    169   1    110.7000    313.8000
    158    162    170   1    110.7000    313.8000
    158    162    171   1    112.7000    488.2728
    169    162    170   1    107.8000    276.1440
    169    162    171   1    110.7000    313.8000
    170    162    171   1    110.7000    313.8000
    162    171    172   1    112.3730    585.7600
    162    171    175   1    112.7000    488.2728
    162    171    176   1    110.7000    313.8000
    172    171    175   1    112.3730    585.7600
    172    171    176   1    109.3840    376.5600
    175    171    176   1    110.7000    313.8000
    171    172    173   1    120.9400    502.0800
    171    172    174   1    120.9400    502.0800
    171    172    177   1    115.0450    334.7200
    173    172    174   1     60.0050     83.6800
    173    172    177   1    117.2000    313.8000
    174    172    177   1    117.2000    313.8000
    172    173    174   1     60.0050     83.6800
    172    173    178   1    117.2000    313.8000
    172    173    179   1    117.2000    313.8000
    174    173    178   1    117.2000    313.8000
    174    173    179   1    117.2000    313.8000
    178    173    179   1    114.3000    292.8800
    172    174    173   1     60.0050     83.6800
    172    174    180   1    117.2000    313.8000
    172    174    181   1    117.2000    313.8000
    173    174    180   1    117.2000    313.8000
    173    174    181   1    117.2000    313.8000
    180    174    181   1    114.3000    292.8800
    171    175    182   1    110.7000    313.8000
    171    175    183   1    110.7000    313.8000
    171    175    184   1    112.7000    488.2728
    182    175    183   1    107.8000    276.1440
    182    175    184   1    110.7000    313.8000
    183    175    184   1    110.7000    313.8000
    175    184    185   1    112.3730    585.7600
    175    184    188   1    112.7000    488.2728
    175    184    189   1    110.7000    313.8000
    185    184    188   1    112.3730    585.7600
    185    184    189   1    109.3840    376.5600
    188    184    189   1    110.7000    313.8000
    184    185    186   1    120.9400    502.0800
    184    185    187   1    120.9400    502.0800
    184    185    190   1    115.0450    334.7200
    186    185    187   1     60.0050     83.6800
    186    185    190   1    117.2000    313.8000
    187    185    190   1    117.2000    313.8000
    185    186    187   1     60.0050     83.6800
    185    186    191   1    117.2000    313.8000
    185    186    192   1    117.2000    313.8000
    187    186    191   1    117.2000    313.8000
    187    186    192   1    117.2000    313.8000
    191    186    192   1    114.3000    292.8800
    185    187    186   1     60.0050     83.6800
    185    187    193   1    117.2000    313.8000
    185    187    194   1    117.2000    313.8000
    186    187    193   1    117.2000    313.8000
    186    187    194   1    117.2000    313.8000
    193    187    194   1    114.3000    292.8800
    184    188    195   1    110.7000    313.8000
    184    188    196   1    110.7000    313.8000
    184    188    197   1    112.7000    488.2728
    195    188    196   1    107.8000    276.1440
    195    188    197   1    110.7000    313.8000
    196    188    197   1    110.7000    313.8000
    188    197    198   1    112.3730    585.7600
    188    197    201   1    112.7000    488.2728
    188    197    202   1    110.7000    313.8000
    198    197    201   1    112.3730    585.7600
    198    197    202   1    109.3840    376.5600
    201    197    202   1    110.7000    313.8000
    197    198    199   1    120.9400    502.0800
    197    198    200   1    120.9400    502.0800
    197    198    203   1    115.0450    334.7200
    199    198    200   1     60.0050     83.6800
    199    198    203   1    117.2000    313.8000
    200    198    203   1    117.2000    313.8000
    198    199    200   1     60.0050     83.6800
    198    199    204   1    117.2000    313.8000
    198    199    205   1    117.2000    313.8000
    200    199    204   1    117.2000    313.8000
    200    199    205   1    117.2000    313.8000
    204    199    205   1    114.3000    292.8800
    198    200    199   1     60.0050     83.6800
    198    200    206   1    117.2000    313.8000
    198    200    207   1    117.2000    313.8000
    199    200    206   1    117.2000    313.8000
    199    200    207   1    117.2000    313.8000
    206    200    207   1    114.3000    292.8800
    197    201    208   1    110.7000    313.8000
    197    201    209   1    110.7000    313.8000
    197    201    210   1    112.7000    488.2728
    208    201    209   1    107.8000    276.1440
    208    201    210   1    110.7000    313.8000
    209    201    210   1    110.7000    313.8000
    201    210    211   1    112.3730    585.7600
    201    210    214   1    112.7000    488.2728
    201    210    215   1    110.7000    313.8000
    211    210    214   1    112.3730    585.7600
    211    210    215   1    109.3840    376.5600
    214    210    215   1    110.7000    313.8000
    210    211    212   1    120.9400    502.0800
    210    211    213   1    120.9400    502.0800
    210    211    216   1    115.0450    334.7200
    212    211    213   1     60.0050     83.6800
    212    211    216   1    117.2000    313.8000
    213    211    216   1    117.2000    313.8000
    211    212    213   1     60.0050     83.6800
    211    212    217   1    117.2000    313.8000
    211    212    218   1    117.2000    313.8000
    213    212    217   1    117.2000    313.8000
    213    212    218   1    117.2000    313.8000
    217    212    218   1    114.3000    292.8800
    211    213    212   1     60.0050     83.6800
    211    213    219   1    117.2000    313.8000
    211    213    220   1    117.2000    313.8000
    212    213    219   1    117.2000    313.8000
    212    213    220   1    117.2000    313.8000
    219    213    220   1    114.3000    292.8800
    210    214    221   1    110.7000    313.8000
    210    214    222   1    110.7000    313.8000
    210    214    223   1    112.7000    488.2728
    221    214    222   1    107.8000    276.1440
    221    214    223   1    110.7000    313.8000
    222    214    223   1    110.7000    313.8000
    214    223    224   1    112.3730    585.7600
    214    223    227   1    112.7000    488.2728
    214    223    228   1    110.7000    313.8000
    224    223    227   1    112.3730    585.7600
    224    223    228   1    109.3840    376.5600
    227    223    228   1    110.7000    313.8000
    223    224    225   1    120.9400    502.0800
    223    224    226   1    120.9400    502.0800
    223    224    229   1    115.0450    334.7200
    225    224    226   1     60.0050     83.6800
    225    224    229   1    117.2000    313.8000
    226    224    229   1    117.2000    313.8000
    224    225    226   1     60.0050     83.6800
    224    225    230   1    117.2000    313.8000
    224    225    231   1    117.2000    313.8000
    226    225    230   1    117.2000    313.8000
    226    225    231   1    117.2000    313.8000
    230    225    231   1    114.3000    292.8800
    224    226    225   1     60.0050     83.6800
    224    226    232   1    117.2000    313.8000
    224    226    233   1    117.2000    313.8000
    225    226    232   1    117.2000    313.8000
    225    226    233   1    117.2000    313.8000
    232    226    233   1    114.3000    292.8800
    223    227    234   1    110.7000    313.8000
    223    227    235   1    110.7000    313.8000
    223    227    236   1    112.7000    488.2728
    234    227    235   1    107.8000    276.1440
    234    227    236   1    110.7000    313.8000
    235    227    236   1    110.7000    313.8000
    227    236    237   1    112.3730    585.7600
    227    236    240   1    112.7000    488.2728
    227    236    241   1    110.7000    313.8000
    237    236    240   1    112.3730    585.7600
    237    236    241   1    109.3840    376.5600
    240    236    241   1    110.7000    313.8000
    236    237    238   1    120.9400    502.0800
    236    237    239   1    120.9400    502.0800
    236    237    242   1    115.0450    334.7200
    238    237    239   1     60.0050     83.6800
    238    237    242   1    117.2000    313.8000
    239    237    242   1    117.2000    313.8000
    237    238    239   1     60.0050     83.6800
    237    238    243   1    117.2000    313.8000
    237    238    244   1    117.2000    313.8000
    239    238    243   1    117.2000    313.8000
    239    238    244   1    117.2000    313.8000
    243    238    244   1    114.3000    292.8800
    237    239    238   1     60.0050     83.6800
    237    239    245   1    117.2000    313.8000
    237    239    246   1    117.2000    313.8000
    238    239    245   1    117.2000    313.8000
    238    239    246   1    117.2000    313.8000
    245    239    246   1    114.3000    292.8800
    236    240    247   1    110.7000    313.8000
    236    240    248   1    110.7000    313.8000
    236    240    249   1    112.7000    488.2728
    247    240    248   1    107.8000    276.1440
    247    240    249   1    110.7000    313.8000
    248    240    249   1    110.7000    313.8000
    240    249    250   1    112.3730    585.7600
    240    249    253   1    112.7000    488.2728
    240    249    254   1    110.7000    313.8000
    250    249    253   1    112.3730    585.7600
    250    249    254   1    109.3840    376.5600
    253    249    254   1    110.7000    313.8000
    249    250    251   1    120.9400    502.0800
    249    250    252   1    120.9400    502.0800
    249    250    255   1    115.0450    334.7200
    251    250    252   1     60.0050     83.6800
    251    250    255   1    117.2000    313.8000
    252    250    255   1    117.2000    313.8000
    250    251    252   1     60.0050     83.6800
    250    251    256   1    117.2000    313.8000
    250    251    257   1    117.2000    313.8000
    252    251    256   1    117.2000    313.8000
    252    251    257   1    117.2000    313.8000
    256    251    257   1    114.3000    292.8800
    250    252    251   1     60.0050     83.6800
    250    252    258   1    117.2000    313.8000
    250    252    259   1    117.2000    313.8000
    251    252    258   1    117.2000    313.8000
    251    252    259   1    117.2000    313.8000
    258    252    259   1    114.3000    292.8800
    249    253    260   1    110.7000    313.8000
    249    253    261   1    110.7000    313.8000
    249    253    262   1    110.7000    313.8000
    260    253    261   1    107.8000    276.1440
    260    253    262   1    107.8000    276.1440
    261    253    262   1    107.8000    276.1440

[ dihedrals ]
; Proper dihedrals
      5      1      2      3   5     0.65689    -0.33054     5.63585  0.0
      5      1      2      4   5     0.65689    -0.33054     5.63585  0.0
      5      1      2      7   5     0.00000     0.00000     1.25520  0.0
      6      1      2      3   5     0.00000     0.00000     1.25520  0.0
      6      1      2      4   5     0.00000     0.00000     1.25520  0.0
      6      1      2      7   5     0.00000     0.00000     1.25520  0.0
     14      1      2      3   5     0.00000     0.00000     1.25520  0.0
     14      1      2      4   5     0.00000     0.00000     1.25520  0.0
     14      1      2      7   5     0.00000     0.00000     1.25520  0.0
      2      1      5     12   5     0.00000     0.00000     1.25520  0.0
      2      1      5     13   5     0.00000     0.00000     1.25520  0.0
      2      1      5     15   5     3.93714     0.32635     1.68197  0.0
      6      1      5     12   5     0.00000     0.00000     1.25520  0.0
      6      1      5     13   5     0.00000     0.00000     1.25520  0.0
      6      1      5     15   5     0.00000     0.00000     1.25520  0.0
     14      1      5     12   5     0.00000     0.00000     1.25520  0.0
     14      1      5     13   5     0.00000     0.00000     1.25520  0.0
     14      1      5     15   5     0.00000     0.00000     1.25520  0.0
      1      2      3      4   5     0.65689    -0.33054     5.63585  0.0
      1      2      3      8   5     0.00000     0.00000     1.25520  0.0
      1      2      3      9   5     0.00000     0.00000     1.25520  0.0
      4      2      3      8   5     0.00000     0.00000     1.25520  0.0
      4      2      3      9   5     0.00000     0.00000     1.25520  0.0
      7      2      3      4   5     0.00000     0.00000     1.25520  0.0
      7      2      3      8   5     0.00000     0.00000     1.25520  0.0
      7      2      3      9   5     0.00000     0.00000     1.25520  0.0
      1      2      4      3   5     0.65689    -0.33054     5.63585  0.0
      1      2      4     10   5     0.00000     0.00000     1.25520  0.0
      1      2      4     11   5     0.00000     0.00000     1.25520  0.0
      3      2      4     10   5     0.00000     0.00000     1.25520  0.0
      3      2      4     11   5     0.00000     0.00000     1.25520  0.0
      7      2      4      3   5     0.00000     0.00000     1.25520  0.0
      7      2      4     10   5     0.00000     0.00000     1.25520  0.0
      7      2      4     11   5     0.00000     0.00000     1.25520  0.0
      2      3      4     10   5     0.00000     0.00000     1.25520  0.0
      2      3      4     11   5     0.00000     0.00000     1.25520  0.0
      8      3      4      2   5     0.00000     0.00000     1.25520  0.0
      8      3      4     10   5     0.00000     0.00000     1.25520  0.0
      8      3      4     11   5     0.00000     0.00000     1.25520  0.0
      9      3      4      2   5     0.00000     0.00000     1.25520  0.0
      9      3      4     10   5     0.00000     0.00000     1.25520  0.0
      9      3      4     11   5     0.00000     0.00000     1.25520  0.0
      1      5     15     16   5     3.93714     0.32635     1.68197  0.0
      1      5     15     19   5     4.74884    -0.63178     1.67360  0.0
      1      5     15     20   5     0.00000     0.00000     1.25520  0.0
     12      5     15     16   5     0.00000     0.00000     1.25520  0.0
     12      5     15     19   5     0.00000     0.00000     1.25520  0.0
     12      5     15     20   5     0.00000     0.00000     1.25520  0.0
     13      5     15     16   5     0.00000     0.00000     1.25520  0.0
     13      5     15     19   5     0.00000     0.00000     1.25520  0.0
     13      5     15     20   5     0.00000     0.00000     1.25520  0.0
      5     15     16     17   5     0.65689    -0.33054     5.63585  0.0
      5     15     16     18   5     0.65689    -0.33054     5.63585  0.0
      5     15     16     21   5     0.00000     0.00000     1.25520  0.0
     19     15     16     17   5     0.65689    -0.33054     5.63585  0.0
     19     15     16     18   5     0.65689    -0.33054     5.63585  0.0
     19     15     16     21   5     0.00000     0.00000     1.25520  0.0
     20     15     16     17   5     0.00000     0.00000     1.25520  0.0
     20     15     16     18   5     0.00000     0.00000     1.25520  0.0
     20     15     16     21   5     0.00000     0.00000     1.25520  0.0
      5     15     19     26   5     0.00000     0.00000     1.25520  0.0
      5     15     19     27   5     0.00000     0.00000     1.25520  0.0
      5     15     19     28   5     4.74884    -0.63178     1.67360  0.0
     16     15     19     26   5     0.00000     0.00000     1.25520  0.0
     16     15     19     27   5     0.00000     0.00000     1.25520  0.0
     16     15     19     28   5     3.93714     0.32635     1.68197  0.0
     20     15     19     26   5     0.00000     0.00000     1.25520  0.0
     20     15     19     27   5     0.00000     0.00000     1.25520  0.0
     20     15     19     28   5     0.00000     0.00000     1.25520  0.0
     15     16     17     18   5     0.65689    -0.33054     5.63585  0.0
     15     16     17     22   5     0.00000     0.00000     1.25520  0.0
     15     16     17     23   5     0.00000     0.00000     1.25520  0.0
     18     16     17     22   5     0.00000     0.00000     1.25520  0.0
     18     16     17     23   5     0.00000     0.00000     1.25520  0.0
     21     16     17     18   5     0.00000     0.00000     1.25520  0.0
     21     16     17     22   5     0.00000     0.00000     1.25520  0.0
     21     16     17     23   5     0.00000     0.00000     1.25520  0.0
     15     16     18     17   5     0.65689    -0.33054     5.63585  0.0
     15     16     18     24   5     0.00000     0.00000     1.25520  0.0
     15     16     18     25   5     0.00000     0.00000     1.25520  0.0
     17     16     18     24   5     0.00000     0.00000     1.25520  0.0
     17     16     18     25   5     0.00000     0.00000     1.25520  0.0
     21     16     18     17   5     0.00000     0.00000     1.25520  0.0
     21     16     18     24   5     0.00000     0.00000     1.25520  0.0
     21     16     18     25   5     0.00000     0.00000     1.25520  0.0
     16     17     18     24   5     0.00000     0.00000     1.25520  0.0
     16     17     18     25   5     0.00000     0.00000     1.25520  0.0
     22     17     18     16   5     0.00000     0.00000     1.25520  0.0
     22     17     18     24   5     0.00000     0.00000     1.25520  0.0
     22     17     18     25   5     0.00000     0.00000     1.25520  0.0
     23     17     18     16   5     0.00000     0.00000     1.25520  0.0
     23     17     18     24   5     0.00000     0.00000     1.25520  0.0
     23     17     18     25   5     0.00000     0.00000     1.25520  0.0
     15     19     28     29   5     3.93714     0.32635     1.68197  0.0
     15     19     28     32   5     4.74884    -0.63178     1.67360  0.0
     15     19     28     33   5     0.00000     0.00000     1.25520  0.0
     26     19     28     29   5     0.00000     0.00000     1.25520  0.0
     26     19     28     32   5     0.00000     0.00000     1.25520  0.0
     26     19     28     33   5     0.00000     0.00000     1.25520  0.0
     27     19     28     29   5     0.00000     0.00000     1.25520  0.0
     27     19     28     32   5     0.00000     0.00000     1.25520  0.0
     27     19     28     33   5     0.00000     0.00000     1.25520  0.0
     19     28     29     30   5     0.65689    -0.33054     5.63585  0.0
     19     28     29     31   5     0.65689    -0.33054     5.63585  0.0
     19     28     29     34   5     0.00000     0.00000     1.25520  0.0
     32     28     29     30   5     0.65689    -0.33054     5.63585  0.0
     32     28     29     31   5     0.65689    -0.33054     5.63585  0.0
     32     28     29     34   5     0.00000     0.00000     1.25520  0.0
     33     28     29     30   5     0.00000     0.00000     1.25520  0.0
     33     28     29     31   5     0.00000     0.00000     1.25520  0.0
     33     28     29     34   5     0.00000     0.00000     1.25520  0.0
     19     28     32     39   5     0.00000     0.00000     1.25520  0.0
     19     28     32     40   5     0.00000     0.00000     1.25520  0.0
     19     28     32     41   5     4.74884    -0.63178     1.67360  0.0
     29     28     32     39   5     0.00000     0.00000     1.25520  0.0
     29     28     32     40   5     0.00000     0.00000     1.25520  0.0
     29     28     32     41   5     3.93714     0.32635     1.68197  0.0
     33     28     32     39   5     0.00000     0.00000     1.25520  0.0
     33     28     32     40   5     0.00000     0.00000     1.25520  0.0
     33     28     32     41   5     0.00000     0.00000     1.25520  0.0
     28     29     30     31   5     0.65689    -0.33054     5.63585  0.0
     28     29     30     35   5     0.00000     0.00000     1.25520  0.0
     28     29     30     36   5     0.00000     0.00000     1.25520  0.0
     31     29     30     35   5     0.00000     0.00000     1.25520  0.0
     31     29     30     36   5     0.00000     0.00000     1.25520  0.0
     34     29     30     31   5     0.00000     0.00000     1.25520  0.0
     34     29     30     35   5     0.00000     0.00000     1.25520  0.0
     34     29     30     36   5     0.00000     0.00000     1.25520  0.0
     28     29     31     30   5     0.65689    -0.33054     5.63585  0.0
     28     29     31     37   5     0.00000     0.00000     1.25520  0.0
     28     29     31     38   5     0.00000     0.00000     1.25520  0.0
     30     29     31     37   5     0.00000     0.00000     1.25520  0.0
     30     29     31     38   5     0.00000     0.00000     1.25520  0.0
     34     29     31     30   5     0.00000     0.00000     1.25520  0.0
     34     29     31     37   5     0.00000     0.00000     1.25520  0.0
     34     29     31     38   5     0.00000     0.00000     1.25520  0.0
     29     30     31     37   5     0.00000     0.00000     1.25520  0.0
     29     30     31     38   5     0.00000     0.00000     1.25520  0.0
     35     30     31     29   5     0.00000     0.00000     1.25520  0.0
     35     30     31     37   5     0.00000     0.00000     1.25520  0.0
     35     30     31     38   5     0.00000     0.00000     1.25520  0.0
     36     30     31     29   5     0.00000     0.00000     1.25520  0.0
     36     30     31     37   5     0.00000     0.00000     1.25520  0.0
     36     30     31     38   5     0.00000     0.00000     1.25520  0.0
     28     32     41     42   5     3.93714     0.32635     1.68197  0.0
     28     32     41     45   5     4.74884    -0.63178     1.67360  0.0
     28     32     41     46   5     0.00000     0.00000     1.25520  0.0
     39     32     41     42   5     0.00000     0.00000     1.25520  0.0
     39     32     41     45   5     0.00000     0.00000     1.25520  0.0
     39     32     41     46   5     0.00000     0.00000     1.25520  0.0
     40     32     41     42   5     0.00000     0.00000     1.25520  0.0
     40     32     41     45   5     0.00000     0.00000     1.25520  0.0
     40     32     41     46   5     0.00000     0.00000     1.25520  0.0
     32     41     42     43   5     0.65689    -0.33054     5.63585  0.0
     32     41     42     44   5     0.65689    -0.33054     5.63585  0.0
     32     41     42     47   5     0.00000     0.00000     1.25520  0.0
     45     41     42     43   5     0.65689    -0.33054     5.63585  0.0
     45     41     42     44   5     0.65689    -0.33054     5.63585  0.0
     45     41     42     47   5     0.00000     0.00000     1.25520  0.0
     46     41     42     43   5     0.00000     0.00000     1.25520  0.0
     46     41     42     44   5     0.00000     0.00000     1.25520  0.0
     46     41     42     47   5     0.00000     0.00000     1.25520  0.0
     32     41     45     52   5     0.00000     0.00000     1.25520  0.0
     32     41     45     53   5     0.00000     0.00000     1.25520  0.0
     32     41     45     54   5     4.74884    -0.63178     1.67360  0.0
     42     41     45     52   5     0.00000     0.00000     1.25520  0.0
     42     41     45     53   5     0.00000     0.00000     1.25520  0.0
     42     41     45     54   5     3.93714     0.32635     1.68197  0.0
     46     41     45     52   5     0.00000     0.00000     1.25520  0.0
     46     41     45     53   5     0.00000     0.00000     1.25520  0.0
     46     41     45     54   5     0.00000     0.00000     1.25520  0.0
     41     42     43     44   5     0.65689    -0.33054     5.63585  0.0
     41     42     43     48   5     0.00000     0.00000     1.25520  0.0
     41     42     43     49   5     0.00000     0.00000     1.25520  0.0
     44     42     43     48   5     0.00000     0.00000     1.25520  0.0
     44     42     43     49   5     0.00000     0.00000     1.25520  0.0
     47     42     43     44   5     0.00000     0.00000     1.25520  0.0
     47     42     43     48   5     0.00000     0.00000     1.25520  0.0
     47     42     43     49   5     0.00000     0.00000     1.25520  0.0
     41     42     44     43   5     0.65689    -0.33054     5.63585  0.0
     41     42     44     50   5     0.00000     0.00000     1.25520  0.0
     41     42     44     51   5     0.00000     0.00000     1.25520  0.0
     43     42     44     50   5     0.00000     0.00000     1.25520  0.0
     43     42     44     51   5     0.00000     0.00000     1.25520  0.0
     47     42     44     43   5     0.00000     0.00000     1.25520  0.0
     47     42     44     50   5     0.00000     0.00000     1.25520  0.0
     47     42     44     51   5     0.00000     0.00000     1.25520  0.0
     42     43     44     50   5     0.00000     0.00000     1.25520  0.0
     42     43     44     51   5     0.00000     0.00000     1.25520  0.0
     48     43     44     42   5     0.00000     0.00000     1.25520  0.0
     48     43     44     50   5     0.00000     0.00000     1.25520  0.0
     48     43     44     51   5     0.00000     0.00000     1.25520  0.0
     49     43     44     42   5     0.00000     0.00000     1.25520  0.0
     49     43     44     50   5     0.00000     0.00000     1.25520  0.0
     49     43     44     51   5     0.00000     0.00000     1.25520  0.0
     41     45     54     55   5     3.93714     0.32635     1.68197  0.0
     41     45     54     58   5     4.74884    -0.63178     1.67360  0.0
     41     45     54     59   5     0.00000     0.00000     1.25520  0.0
     52     45     54     55   5     0.00000     0.00000     1.25520  0.0
     52     45     54     58   5     0.00000     0.00000     1.25520  0.0
     52     45     54     59   5     0.00000     0.00000     1.25520  0.0
     53     45     54     55   5     0.00000     0.00000     1.25520  0.0
     53     45     54     58   5     0.00000     0.00000     1.25520  0.0
     53     45     54     59   5     0.00000     0.00000     1.25520  0.0
     45     54     55     56   5     0.65689    -0.33054     5.63585  0.0
     45     54     55     57   5     0.65689    -0.33054     5.63585  0.0
     45     54     55     60   5     0.00000     0.00000     1.25520  0.0
     58     54     55     56   5     0.65689    -0.33054     5.63585  0.0
     58     54     55     57   5     0.65689    -0.33054     5.63585  0.0
     58     54     55     60   5     0.00000     0.00000     1.25520  0.0
     59     54     55     56   5     0.00000     0.00000     1.25520  0.0
     59     54     55     57   5     0.00000     0.00000     1.25520  0.0
     59     54     55     60   5     0.00000     0.00000     1.25520  0.0
     45     54     58     65   5     0.00000     0.00000     1.25520  0.0
     45     54     58     66   5     0.00000     0.00000     1.25520  0.0
     45     54     58     67   5     4.74884    -0.63178     1.67360  0.0
     55     54     58     65   5     0.00000     0.00000     1.25520  0.0
     55     54     58     66   5     0.00000     0.00000     1.25520  0.0
     55     54     58     67   5     3.93714     0.32635     1.68197  0.0
     59     54     58     65   5     0.00000     0.00000     1.25520  0.0
     59     54     58     66   5     0.00000     0.00000     1.25520  0.0
     59     54     58     67   5     0.00000     0.00000     1.25520  0.0
     54     55     56     57   5     0.65689    -0.33054     5.63585  0.0
     54     55     56     61   5     0.00000     0.00000     1.25520  0.0
     54     55     56     62   5     0.00000     0.00000     1.25520  0.0
     57     55     56     61   5     0.00000     0.00000     1.25520  0.0
     57     55     56     62   5     0.00000     0.00000     1.25520  0.0
     60     55     56     57   5     0.00000     0.00000     1.25520  0.0
     60     55     56     61   5     0.00000     0.00000     1.25520  0.0
     60     55     56     62   5     0.00000     0.00000     1.25520  0.0
     54     55     57     56   5     0.65689    -0.33054     5.63585  0.0
     54     55     57     63   5     0.00000     0.00000     1.25520  0.0
     54     55     57     64   5     0.00000     0.00000     1.25520  0.0
     56     55     57     63   5     0.00000     0.00000     1.25520  0.0
     56     55     57     64   5     0.00000     0.00000     1.25520  0.0
     60     55     57     56   5     0.00000     0.00000     1.25520  0.0
     60     55     57     63   5     0.00000     0.00000     1.25520  0.0
     60     55     57     64   5     0.00000     0.00000     1.25520  0.0
     55     56     57     63   5     0.00000     0.00000     1.25520  0.0
     55     56     57     64   5     0.00000     0.00000     1.25520  0.0
     61     56     57     55   5     0.00000     0.00000     1.25520  0.0
     61     56     57     63   5     0.00000     0.00000     1.25520  0.0
     61     56     57     64   5     0.00000     0.00000     1.25520  0.0
     62     56     57     55   5     0.00000     0.00000     1.25520  0.0
     62     56     57     63   5     0.00000     0.00000     1.25520  0.0
     62     56     57     64   5     0.00000     0.00000     1.25520  0.0
     54     58     67     68   5     3.93714     0.32635     1.68197  0.0
     54     58     67     71   5     4.74884    -0.63178     1.67360  0.0
     54     58     67     72   5     0.00000     0.00000     1.25520  0.0
     65     58     67     68   5     0.00000     0.00000     1.25520  0.0
     65     58     67     71   5     0.00000     0.00000     1.25520  0.0
     65     58     67     72   5     0.00000     0.00000     1.25520  0.0
     66     58     67     68   5     0.00000     0.00000     1.25520  0.0
     66     58     67     71   5     0.00000     0.00000     1.25520  0.0
     66     58     67     72   5     0.00000     0.00000     1.25520  0.0
     58     67     68     69   5     0.65689    -0.33054     5.63585  0.0
     58     67     68     70   5     0.65689    -0.33054     5.63585  0.0
     58     67     68     73   5     0.00000     0.00000     1.25520  0.0
     71     67     68     69   5     0.65689    -0.33054     5.63585  0.0
     71     67     68     70   5     0.65689    -0.33054     5.63585  0.0
     71     67     68     73   5     0.00000     0.00000     1.25520  0.0
     72     67     68     69   5     0.00000     0.00000     1.25520  0.0
     72     67     68     70   5     0.00000     0.00000     1.25520  0.0
     72     67     68     73   5     0.00000     0.00000     1.25520  0.0
     58     67     71     78   5     0.00000     0.00000     1.25520  0.0
     58     67     71     79   5     0.00000     0.00000     1.25520  0.0
     58     67     71     80   5     4.74884    -0.63178     1.67360  0.0
     68     67     71     78   5     0.00000     0.00000     1.25520  0.0
     68     67     71     79   5     0.00000     0.00000     1.25520  0.0
     68     67     71     80   5     3.93714     0.32635     1.68197  0.0
     72     67     71     78   5     0.00000     0.00000     1.25520  0.0
     72     67     71     79   5     0.00000     0.00000     1.25520  0.0
     72     67     71     80   5     0.00000     0.00000     1.25520  0.0
     67     68     69     70   5     0.65689    -0.33054     5.63585  0.0
     67     68     69     74   5     0.00000     0.00000     1.25520  0.0
     67     68     69     75   5     0.00000     0.00000     1.25520  0.0
     70     68     69     74   5     0.00000     0.00000     1.25520  0.0
     70     68     69     75   5     0.00000     0.00000     1.25520  0.0
     73     68     69     70   5     0.00000     0.00000     1.25520  0.0
     73     68     69     74   5     0.00000     0.00000     1.25520  0.0
     73     68     69     75   5     0.00000     0.00000     1.25520  0.0
     67     68     70     69   5     0.65689    -0.33054     5.63585  0.0
     67     68     70     76   5     0.00000     0.00000     1.25520  0.0
     67     68     70     77   5     0.00000     0.00000     1.25520  0.0
     69     68     70     76   5     0.00000     0.00000     1.25520  0.0
     69     68     70     77   5     0.00000     0.00000     1.25520  0.0
     73     68     70     69   5     0.00000     0.00000     1.25520  0.0
     73     68     70     76   5     0.00000     0.00000     1.25520  0.0
     73     68     70     77   5     0.00000     0.00000     1.25520  0.0
     68     69     70     76   5     0.00000     0.00000     1.25520  0.0
     68     69     70     77   5     0.00000     0.00000     1.25520  0.0
     74     69     70     68   5     0.00000     0.00000     1.25520  0.0
     74     69     70     76   5     0.00000     0.00000     1.25520  0.0
     74     69     70     77   5     0.00000     0.00000     1.25520  0.0
     75     69     70     68   5     0.00000     0.00000     1.25520  0.0
     75     69     70     76   5     0.00000     0.00000     1.25520  0.0
     75     69     70     77   5     0.00000     0.00000     1.25520  0.0
     67     71     80     81   5     3.93714     0.32635     1.68197  0.0
     67     71     80     84   5     4.74884    -0.63178     1.67360  0.0
     67     71     80     85   5     0.00000     0.00000     1.25520  0.0
     78     71     80     81   5     0.00000     0.00000     1.25520  0.0
     78     71     80     84   5     0.00000     0.00000     1.25520  0.0
     78     71     80     85   5     0.00000     0.00000     1.25520  0.0
     79     71     80     81   5     0.00000     0.00000     1.25520  0.0
     79     71     80     84   5     0.00000     0.00000     1.25520  0.0
     79     71     80     85   5     0.00000     0.00000     1.25520  0.0
     71     80     81     82   5     0.65689    -0.33054     5.63585  0.0
     71     80     81     83   5     0.65689    -0.33054     5.63585  0.0
     71     80     81     86   5     0.00000     0.00000     1.25520  0.0
     84     80     81     82   5     0.65689    -0.33054     5.63585  0.0
     84     80     81     83   5     0.65689    -0.33054     5.63585  0.0
     84     80     81     86   5     0.00000     0.00000     1.25520  0.0
     85     80     81     82   5     0.00000     0.00000     1.25520  0.0
     85     80     81     83   5     0.00000     0.00000     1.25520  0.0
     85     80     81     86   5     0.00000     0.00000     1.25520  0.0
     71     80     84     91   5     0.00000     0.00000     1.25520  0.0
     71     80     84     92   5     0.00000     0.00000     1.25520  0.0
     71     80     84     93   5     4.74884    -0.63178     1.67360  0.0
     81     80     84     91   5     0.00000     0.00000     1.25520  0.0
     81     80     84     92   5     0.00000     0.00000     1.25520  0.0
     81     80     84     93   5     3.93714     0.32635     1.68197  0.0
     85     80     84     91   5     0.00000     0.00000     1.25520  0.0
     85     80     84     92   5     0.00000     0.00000     1.25520  0.0
     85     80     84     93   5     0.00000     0.00000     1.25520  0.0
     80     81     82     83   5     0.65689    -0.33054     5.63585  0.0
     80     81     82     87   5     0.00000     0.00000     1.25520  0.0
     80     81     82     88   5     0.00000     0.00000     1.25520  0.0
     83     81     82     87   5     0.00000     0.00000     1.25520  0.0
     83     81     82     88   5     0.00000     0.00000     1.25520  0.0
     86     81     82     83   5     0.00000     0.00000     1.25520  0.0
     86     81     82     87   5     0.00000     0.00000     1.25520  0.0
     86     81     82     88   5     0.00000     0.00000     1.25520  0.0
     80     81     83     82   5     0.65689    -0.33054     5.63585  0.0
     80     81     83     89   5     0.00000     0.00000     1.25520  0.0
     80     81     83     90   5     0.00000     0.00000     1.25520  0.0
     82     81     83     89   5     0.00000     0.00000     1.25520  0.0
     82     81     83     90   5     0.00000     0.00000     1.25520  0.0
     86     81     83     82   5     0.00000     0.00000     1.25520  0.0
     86     81     83     89   5     0.00000     0.00000     1.25520  0.0
     86     81     83     90   5     0.00000     0.00000     1.25520  0.0
     81     82     83     89   5     0.00000     0.00000     1.25520  0.0
     81     82     83     90   5     0.00000     0.00000     1.25520  0.0
     87     82     83     81   5     0.00000     0.00000     1.25520  0.0
     87     82     83     89   5     0.00000     0.00000     1.25520  0.0
     87     82     83     90   5     0.00000     0.00000     1.25520  0.0
     88     82     83     81   5     0.00000     0.00000     1.25520  0.0
     88     82     83     89   5     0.00000     0.00000     1.25520  0.0
     88     82     83     90   5     0.00000     0.00000     1.25520  0.0
     80     84     93     94   5     3.93714     0.32635     1.68197  0.0
     80     84     93     97   5     4.74884    -0.63178     1.67360  0.0
     80     84     93     98   5     0.00000     0.00000     1.25520  0.0
     91     84     93     94   5     0.00000     0.00000     1.25520  0.0
     91     84     93     97   5     0.00000     0.00000     1.25520  0.0
     91     84     93     98   5     0.00000     0.00000     1.25520  0.0
     92     84     93     94   5     0.00000     0.00000     1.25520  0.0
     92     84     93     97   5     0.00000     0.00000     1.25520  0.0
     92     84     93     98   5     0.00000     0.00000     1.25520  0.0
     84     93     94     95   5     0.65689    -0.33054     5.63585  0.0
     84     93     94     96   5     0.65689    -0.33054     5.63585  0.0
     84     93     94     99   5     0.00000     0.00000     1.25520  0.0
     97     93     94     95   5     0.65689    -0.33054     5.63585  0.0
     97     93     94     96   5     0.65689    -0.33054     5.63585  0.0
     97     93     94     99   5     0.00000     0.00000     1.25520  0.0
     98     93     94     95   5     0.00000     0.00000     1.25520  0.0
     98     93     94     96   5     0.00000     0.00000     1.25520  0.0
     98     93     94     99   5     0.00000     0.00000     1.25520  0.0
     84     93     97    104   5     0.00000     0.00000     1.25520  0.0
     84     93     97    105   5     0.00000     0.00000     1.25520  0.0
     84     93     97    106   5     4.74884    -0.63178     1.67360  0.0
     94     93     97    104   5     0.00000     0.00000     1.25520  0.0
     94     93     97    105   5     0.00000     0.00000     1.25520  0.0
     94     93     97    106   5     3.93714     0.32635     1.68197  0.0
     98     93     97    104   5     0.00000     0.00000     1.25520  0.0
     98     93     97    105   5     0.00000     0.00000     1.25520  0.0
     98     93     97    106   5     0.00000     0.00000     1.25520  0.0
     93     94     95     96   5     0.65689    -0.33054     5.63585  0.0
     93     94     95    100   5     0.00000     0.00000     1.25520  0.0
     93     94     95    101   5     0.00000     0.00000     1.25520  0.0
     96     94     95    100   5     0.00000     0.00000     1.25520  0.0
     96     94     95    101   5     0.00000     0.00000     1.25520  0.0
     99     94     95     96   5     0.00000     0.00000     1.25520  0.0
     99     94     95    100   5     0.00000     0.00000     1.25520  0.0
     99     94     95    101   5     0.00000     0.00000     1.25520  0.0
     93     94     96     95   5     0.65689    -0.33054     5.63585  0.0
     93     94     96    102   5     0.00000     0.00000     1.25520  0.0
     93     94     96    103   5     0.00000     0.00000     1.25520  0.0
     95     94     96    102   5     0.00000     0.00000     1.25520  0.0
     95     94     96    103   5     0.00000     0.00000     1.25520  0.0
     99     94     96     95   5     0.00000     0.00000     1.25520  0.0
     99     94     96    102   5     0.00000     0.00000     1.25520  0.0
     99     94     96    103   5     0.00000     0.00000     1.25520  0.0
     94     95     96    102   5     0.00000     0.00000     1.25520  0.0
     94     95     96    103   5     0.00000     0.00000     1.25520  0.0
    100     95     96     94   5     0.00000     0.00000     1.25520  0.0
    100     95     96    102   5     0.00000     0.00000     1.25520  0.0
    100     95     96    103   5     0.00000     0.00000     1.25520  0.0
    101     95     96     94   5     0.00000     0.00000     1.25520  0.0
    101     95     96    102   5     0.00000     0.00000     1.25520  0.0
    101     95     96    103   5     0.00000     0.00000     1.25520  0.0
     93     97    106    107   5     3.93714     0.32635     1.68197  0.0
     93     97    106    110   5     4.74884    -0.63178     1.67360  0.0
     93     97    106    111   5     0.00000     0.00000     1.25520  0.0
    104     97    106    107   5     0.00000     0.00000     1.25520  0.0
    104     97    106    110   5     0.00000     0.00000     1.25520  0.0
    104     97    106    111   5     0.00000     0.00000     1.25520  0.0
    105     97    106    107   5     0.00000     0.00000     1.25520  0.0
    105     97    106    110   5     0.00000     0.00000     1.25520  0.0
    105     97    106    111   5     0.00000     0.00000     1.25520  0.0
     97    106    107    108   5     0.65689    -0.33054     5.63585  0.0
     97    106    107    109   5     0.65689    -0.33054     5.63585  0.0
     97    106    107    112   5     0.00000     0.00000     1.25520  0.0
    110    106    107    108   5     0.65689    -0.33054     5.63585  0.0
    110    106    107    109   5     0.65689    -0.33054     5.63585  0.0
    110    106    107    112   5     0.00000     0.00000     1.25520  0.0
    111    106    107    108   5     0.00000     0.00000     1.25520  0.0
    111    106    107    109   5     0.00000     0.00000     1.25520  0.0
    111    106    107    112   5     0.00000     0.00000     1.25520  0.0
     97    106    110    117   5     0.00000     0.00000     1.25520  0.0
     97    106    110    118   5     0.00000     0.00000     1.25520  0.0
     97    106    110    119   5     4.74884    -0.63178     1.67360  0.0
    107    106    110    117   5     0.00000     0.00000     1.25520  0.0
    107    106    110    118   5     0.00000     0.00000     1.25520  0.0
    107    106    110    119   5     3.93714     0.32635     1.68197  0.0
    111    106    110    117   5     0.00000     0.00000     1.25520  0.0
    111    106    110    118   5     0.00000     0.00000     1.25520  0.0
    111    106    110    119   5     0.00000     0.00000     1.25520  0.0
    106    107    108    109   5     0.65689    -0.33054     5.63585  0.0
    106    107    108    113   5     0.00000     0.00000     1.25520  0.0
    106    107    108    114   5     0.00000     0.00000     1.25520  0.0
    109    107    108    113   5     0.00000     0.00000     1.25520  0.0
    109    107    108    114   5     0.00000     0.00000     1.25520  0.0
    112    107    108    109   5     0.00000     0.00000     1.25520  0.0
    112    107    108    113   5     0.00000     0.00000     1.25520  0.0
    112    107    108    114   5     0.00000     0.00000     1.25520  0.0
    106    107    109    108   5     0.65689    -0.33054     5.63585  0.0
    106    107    109    115   5     0.00000     0.00000     1.25520  0.0
    106    107    109    116   5     0.00000     0.00000     1.25520  0.0
    108    107    109    115   5     0.00000     0.00000     1.25520  0.0
    108    107    109    116   5     0.00000     0.00000     1.25520  0.0
    112    107    109    108   5     0.00000     0.00000     1.25520  0.0
    112    107    109    115   5     0.00000     0.00000     1.25520  0.0
    112    107    109    116   5     0.00000     0.00000     1.25520  0.0
    107    108    109    115   5     0.00000     0.00000     1.25520  0.0
    107    108    109    116   5     0.00000     0.00000     1.25520  0.0
    113    108    109    107   5     0.00000     0.00000     1.25520  0.0
    113    108    109    115   5     0.00000     0.00000     1.25520  0.0
    113    108    109    116   5     0.00000     0.00000     1.25520  0.0
    114    108    109    107   5     0.00000     0.00000     1.25520  0.0
    114    108    109    115   5     0.00000     0.00000     1.25520  0.0
    114    108    109    116   5     0.00000     0.00000     1.25520  0.0
    106    110    119    120   5     3.93714     0.32635     1.68197  0.0
    106    110    119    123   5     4.74884    -0.63178     1.67360  0.0
    106    110    119    124   5     0.00000     0.00000     1.25520  0.0
    117    110    119    120   5     0.00000     0.00000     1.25520  0.0
    117    110    119    123   5     0.00000     0.00000     1.25520  0.0
    117    110    119    124   5     0.00000     0.00000     1.25520  0.0
    118    110    119    120   5     0.00000     0.00000     1.25520  0.0
    118    110    119    123   5     0.00000     0.00000     1.25520  0.0
    118    110    119    124   5     0.00000     0.00000     1.25520  0.0
    110    119    120    121   5     0.65689    -0.33054     5.63585  0.0
    110    119    120    122   5     0.65689    -0.33054     5.63585  0.0
    110    119    120    125   5     0.00000     0.00000     1.25520  0.0
    123    119    120    121   5     0.65689    -0.33054     5.63585  0.0
    123    119    120    122   5     0.65689    -0.33054     5.63585  0.0
    123    119    120    125   5     0.00000     0.00000     1.25520  0.0
    124    119    120    121   5     0.00000     0.00000     1.25520  0.0
    124    119    120    122   5     0.00000     0.00000     1.25520  0.0
    124    119    120    125   5     0.00000     0.00000     1.25520  0.0
    110    119    123    130   5     0.00000     0.00000     1.25520  0.0
    110    119    123    131   5     0.00000     0.00000     1.25520  0.0
    110    119    123    132   5     4.74884    -0.63178     1.67360  0.0
    120    119    123    130   5     0.00000     0.00000     1.25520  0.0
    120    119    123    131   5     0.00000     0.00000     1.25520  0.0
    120    119    123    132   5     3.93714     0.32635     1.68197  0.0
    124    119    123    130   5     0.00000     0.00000     1.25520  0.0
    124    119    123    131   5     0.00000     0.00000     1.25520  0.0
    124    119    123    132   5     0.00000     0.00000     1.25520  0.0
    119    120    121    122   5     0.65689    -0.33054     5.63585  0.0
    119    120    121    126   5     0.00000     0.00000     1.25520  0.0
    119    120    121    127   5     0.00000     0.00000     1.25520  0.0
    122    120    121    126   5     0.00000     0.00000     1.25520  0.0
    122    120    121    127   5     0.00000     0.00000     1.25520  0.0
    125    120    121    122   5     0.00000     0.00000     1.25520  0.0
    125    120    121    126   5     0.00000     0.00000     1.25520  0.0
    125    120    121    127   5     0.00000     0.00000     1.25520  0.0
    119    120    122    121   5     0.65689    -0.33054     5.63585  0.0
    119    120    122    128   5     0.00000     0.00000     1.25520  0.0
    119    120    122    129   5     0.00000     0.00000     1.25520  0.0
    121    120    122    128   5     0.00000     0.00000     1.25520  0.0
    121    120    122    129   5     0.00000     0.00000     1.25520  0.0
    125    120    122    121   5     0.00000     0.00000     1.25520  0.0
    125    120    122    128   5     0.00000     0.00000     1.25520  0.0
    125    120    122    129   5     0.00000     0.00000     1.25520  0.0
    120    121    122    128   5     0.00000     0.00000     1.25520  0.0
    120    121    122    129   5     0.00000     0.00000     1.25520  0.0
    126    121    122    120   5     0.00000     0.00000     1.25520  0.0
    126    121    122    128   5     0.00000     0.00000     1.25520  0.0
    126    121    122    129   5     0.00000     0.00000     1.25520  0.0
    127    121    122    120   5     0.00000     0.00000     1.25520  0.0
    127    121    122    128   5     0.00000     0.00000     1.25520  0.0
    127    121    122    129   5     0.00000     0.00000     1.25520  0.0
    119    123    132    133   5     3.93714     0.32635     1.68197  0.0
    119    123    132    136   5     4.74884    -0.63178     1.67360  0.0
    119    123    132    137   5     0.00000     0.00000     1.25520  0.0
    130    123    132    133   5     0.00000     0.00000     1.25520  0.0
    130    123    132    136   5     0.00000     0.00000     1.25520  0.0
    130    123    132    137   5     0.00000     0.00000     1.25520  0.0
    131    123    132    133   5     0.00000     0.00000     1.25520  0.0
    131    123    132    136   5     0.00000     0.00000     1.25520  0.0
    131    123    132    137   5     0.00000     0.00000     1.25520  0.0
    123    132    133    134   5     0.65689    -0.33054     5.63585  0.0
    123    132    133    135   5     0.65689    -0.33054     5.63585  0.0
    123    132    133    138   5     0.00000     0.00000     1.25520  0.0
    136    132    133    134   5     0.65689    -0.33054     5.63585  0.0
    136    132    133    135   5     0.65689    -0.33054     5.63585  0.0
    136    132    133    138   5     0.00000     0.00000     1.25520  0.0
    137    132    133    134   5     0.00000     0.00000     1.25520  0.0
    137    132    133    135   5     0.00000     0.00000     1.25520  0.0
    137    132    133    138   5     0.00000     0.00000     1.25520  0.0
    123    132    136    143   5     0.00000     0.00000     1.25520  0.0
    123    132    136    144   5     0.00000     0.00000     1.25520  0.0
    123    132    136    145   5     4.74884    -0.63178     1.67360  0.0
    133    132    136    143   5     0.00000     0.00000     1.25520  0.0
    133    132    136    144   5     0.00000     0.00000     1.25520  0.0
    133    132    136    145   5     3.93714     0.32635     1.68197  0.0
    137    132    136    143   5     0.00000     0.00000     1.25520  0.0
    137    132    136    144   5     0.00000     0.00000     1.25520  0.0
    137    132    136    145   5     0.00000     0.00000     1.25520  0.0
    132    133    134    135   5     0.65689    -0.33054     5.63585  0.0
    132    133    134    139   5     0.00000     0.00000     1.25520  0.0
    132    133    134    140   5     0.00000     0.00000     1.25520  0.0
    135    133    134    139   5     0.00000     0.00000     1.25520  0.0
    135    133    134    140   5     0.00000     0.00000     1.25520  0.0
    138    133    134    135   5     0.00000     0.00000     1.25520  0.0
    138    133    134    139   5     0.00000     0.00000     1.25520  0.0
    138    133    134    140   5     0.00000     0.00000     1.25520  0.0
    132    133    135    134   5     0.65689    -0.33054     5.63585  0.0
    132    133    135    141   5     0.00000     0.00000     1.25520  0.0
    132    133    135    142   5     0.00000     0.00000     1.25520  0.0
    134    133    135    141   5     0.00000     0.00000     1.25520  0.0
    134    133    135    142   5     0.00000     0.00000     1.25520  0.0
    138    133    135    134   5     0.00000     0.00000     1.25520  0.0
    138    133    135    141   5     0.00000     0.00000     1.25520  0.0
    138    133    135    142   5     0.00000     0.00000     1.25520  0.0
    133    134    135    141   5     0.00000     0.00000     1.25520  0.0
    133    134    135    142   5     0.00000     0.00000     1.25520  0.0
    139    134    135    133   5     0.00000     0.00000     1.25520  0.0
    139    134    135    141   5     0.00000     0.00000     1.25520  0.0
    139    134    135    142   5     0.00000     0.00000     1.25520  0.0
    140    134    135    133   5     0.00000     0.00000     1.25520  0.0
    140    134    135    141   5     0.00000     0.00000     1.25520  0.0
    140    134    135    142   5     0.00000     0.00000     1.25520  0.0
    132    136    145    146   5     3.93714     0.32635     1.68197  0.0
    132    136    145    149   5     4.74884    -0.63178     1.67360  0.0
    132    136    145    150   5     0.00000     0.00000     1.25520  0.0
    143    136    145    146   5     0.00000     0.00000     1.25520  0.0
    143    136    145    149   5     0.00000     0.00000     1.25520  0.0
    143    136    145    150   5     0.00000     0.00000     1.25520  0.0
    144    136    145    146   5     0.00000     0.00000     1.25520  0.0
    144    136    145    149   5     0.00000     0.00000     1.25520  0.0
    144    136    145    150   5     0.00000     0.00000     1.25520  0.0
    136    145    146    147   5     0.65689    -0.33054     5.63585  0.0
    136    145    146    148   5     0.65689    -0.33054     5.63585  0.0
    136    145    146    151   5     0.00000     0.00000     1.25520  0.0
    149    145    146    147   5     0.65689    -0.33054     5.63585  0.0
    149    145    146    148   5     0.65689    -0.33054     5.63585  0.0
    149    145    146    151   5     0.00000     0.00000     1.25520  0.0
    150    145    146    147   5     0.00000     0.00000     1.25520  0.0
    150    145    146    148   5     0.00000     0.00000     1.25520  0.0
    150    145    146    151   5     0.00000     0.00000     1.25520  0.0
    136    145    149    156   5     0.00000     0.00000     1.25520  0.0
    136    145    149    157   5     0.00000     0.00000     1.25520  0.0
    136    145    149    158   5     4.74884    -0.63178     1.67360  0.0
    146    145    149    156   5     0.00000     0.00000     1.25520  0.0
    146    145    149    157   5     0.00000     0.00000     1.25520  0.0
    146    145    149    158   5     3.93714     0.32635     1.68197  0.0
    150    145    149    156   5     0.00000     0.00000     1.25520  0.0
    150    145    149    157   5     0.00000     0.00000     1.25520  0.0
    150    145    149    158   5     0.00000     0.00000     1.25520  0.0
    145    146    147    148   5     0.65689    -0.33054     5.63585  0.0
    145    146    147    152   5     0.00000     0.00000     1.25520  0.0
    145    146    147    153   5     0.00000     0.00000     1.25520  0.0
    148    146    147    152   5     0.00000     0.00000     1.25520  0.0
    148    146    147    153   5     0.00000     0.00000     1.25520  0.0
    151    146    147    148   5     0.00000     0.00000     1.25520  0.0
    151    146    147    152   5     0.00000     0.00000     1.25520  0.0
    151    146    147    153   5     0.00000     0.00000     1.25520  0.0
    145    146    148    147   5     0.65689    -0.33054     5.63585  0.0
    145    146    148    154   5     0.00000     0.00000     1.25520  0.0
    145    146    148    155   5     0.00000     0.00000     1.25520  0.0
    147    146    148    154   5     0.00000     0.00000     1.25520  0.0
    147    146    148    155   5     0.00000     0.00000     1.25520  0.0
    151    146    148    147   5     0.00000     0.00000     1.25520  0.0
    151    146    148    154   5     0.00000     0.00000     1.25520  0.0
    151    146    148    155   5     0.00000     0.00000     1.25520  0.0
    146    147    148    154   5     0.00000     0.00000     1.25520  0.0
    146    147    148    155   5     0.00000     0.00000     1.25520  0.0
    152    147    148    146   5     0.00000     0.00000     1.25520  0.0
    152    147    148    154   5     0.00000     0.00000     1.25520  0.0
    152    147    148    155   5     0.00000     0.00000     1.25520  0.0
    153    147    148    146   5     0.00000     0.00000     1.25520  0.0
    153    147    148    154   5     0.00000     0.00000     1.25520  0.0
    153    147    148    155   5     0.00000     0.00000     1.25520  0.0
    145    149    158    159   5     3.93714     0.32635     1.68197  0.0
    145    149    158    162   5     4.74884    -0.63178     1.67360  0.0
    145    149    158    163   5     0.00000     0.00000     1.25520  0.0
    156    149    158    159   5     0.00000     0.00000     1.25520  0.0
    156    149    158    162   5     0.00000     0.00000     1.25520  0.0
    156    149    158    163   5     0.00000     0.00000     1.25520  0.0
    157    149    158    159   5     0.00000     0.00000     1.25520  0.0
    157    149    158    162   5     0.00000     0.00000     1.25520  0.0
    157    149    158    163   5     0.00000     0.00000     1.25520  0.0
    149    158    159    160   5     0.65689    -0.33054     5.63585  0.0
    149    158    159    161   5     0.65689    -0.33054     5.63585  0.0
    149    158    159    164   5     0.00000     0.00000     1.25520  0.0
    162    158    159    160   5     0.65689    -0.33054     5.63585  0.0
    162    158    159    161   5     0.65689    -0.33054     5.63585  0.0
    162    158    159    164   5     0.00000     0.00000     1.25520  0.0
    163    158    159    160   5     0.00000     0.00000     1.25520  0.0
    163    158    159    161   5     0.00000     0.00000     1.25520  0.0
    163    158    159    164   5     0.00000     0.00000     1.25520  0.0
    149    158    162    169   5     0.00000     0.00000     1.25520  0.0
    149    158    162    170   5     0.00000     0.00000     1.25520  0.0
    149    158    162    171   5     4.74884    -0.63178     1.67360  0.0
    159    158    162    169   5     0.00000     0.00000     1.25520  0.0
    159    158    162    170   5     0.00000     0.00000     1.25520  0.0
    159    158    162    171   5     3.93714     0.32635     1.68197  0.0
    163    158    162    169   5     0.00000     0.00000     1.25520  0.0
    163    158    162    170   5     0.00000     0.00000     1.25520  0.0
    163    158    162    171   5     0.00000     0.00000     1.25520  0.0
    158    159    160    161   5     0.65689    -0.33054     5.63585  0.0
    158    159    160    165   5     0.00000     0.00000     1.25520  0.0
    158    159    160    166   5     0.00000     0.00000     1.25520  0.0
    161    159    160    165   5     0.00000     0.00000     1.25520  0.0
    161    159    160    166   5     0.00000     0.00000     1.25520  0.0
    164    159    160    161   5     0.00000     0.00000     1.25520  0.0
    164    159    160    165   5     0.00000     0.00000     1.25520  0.0
    164    159    160    166   5     0.00000     0.00000     1.25520  0.0
    158    159    161    160   5     0.65689    -0.33054     5.63585  0.0
    158    159    161    167   5     0.00000     0.00000     1.25520  0.0
    158    159    161    168   5     0.00000     0.00000     1.25520  0.0
    160    159    161    167   5     0.00000     0.00000     1.25520  0.0
    160    159    161    168   5     0.00000     0.00000     1.25520  0.0
    164    159    161    160   5     0.00000     0.00000     1.25520  0.0
    164    159    161    167   5     0.00000     0.00000     1.25520  0.0
    164    159    161    168   5     0.00000     0.00000     1.25520  0.0
    159    160    161    167   5     0.00000     0.00000     1.25520  0.0
    159    160    161    168   5     0.00000     0.00000     1.25520  0.0
    165    160    161    159   5     0.00000     0.00000     1.25520  0.0
    165    160    161    167   5     0.00000     0.00000     1.25520  0.0
    165    160    161    168   5     0.00000     0.00000     1.25520  0.0
    166    160    161    159   5     0.00000     0.00000     1.25520  0.0
    166    160    161    167   5     0.00000     0.00000     1.25520  0.0
    166    160    161    168   5     0.00000     0.00000     1.25520  0.0
    158    162    171    172   5     3.93714     0.32635     1.68197  0.0
    158    162    171    175   5     4.74884    -0.63178     1.67360  0.0
    158    162    171    176   5     0.00000     0.00000     1.25520  0.0
    169    162    171    172   5     0.00000     0.00000     1.25520  0.0
    169    162    171    175   5     0.00000     0.00000     1.25520  0.0
    169    162    171    176   5     0.00000     0.00000     1.25520  0.0
    170    162    171    172   5     0.00000     0.00000     1.25520  0.0
    170    162    171    175   5     0.00000     0.00000     1.25520  0.0
    170    162    171    176   5     0.00000     0.00000     1.25520  0.0
    162    171    172    173   5     0.65689    -0.33054     5.63585  0.0
    162    171    172    174   5     0.65689    -0.33054     5.63585  0.0
    162    171    172    177   5     0.00000     0.00000     1.25520  0.0
    175    171    172    173   5     0.65689    -0.33054     5.63585  0.0
    175    171    172    174   5     0.65689    -0.33054     5.63585  0.0
    175    171    172    177   5     0.00000     0.00000     1.25520  0.0
    176    171    172    173   5     0.00000     0.00000     1.25520  0.0
    176    171    172    174   5     0.00000     0.00000     1.25520  0.0
    176    171    172    177   5     0.00000     0.00000     1.25520  0.0
    162    171    175    182   5     0.00000     0.00000     1.25520  0.0
    162    171    175    183   5     0.00000     0.00000     1.25520  0.0
    162    171    175    184   5     4.74884    -0.63178     1.67360  0.0
    172    171    175    182   5     0.00000     0.00000     1.25520  0.0
    172    171    175    183   5     0.00000     0.00000     1.25520  0.0
    172    171    175    184   5     3.93714     0.32635     1.68197  0.0
    176    171    175    182   5     0.00000     0.00000     1.25520  0.0
    176    171    175    183   5     0.00000     0.00000     1.25520  0.0
    176    171    175    184   5     0.00000     0.00000     1.25520  0.0
    171    172    173    174   5     0.65689    -0.33054     5.63585  0.0
    171    172    173    178   5     0.00000     0.00000     1.25520  0.0
    171    172    173    179   5     0.00000     0.00000     1.25520  0.0
    174    172    173    178   5     0.00000     0.00000     1.25520  0.0
    174    172    173    179   5     0.00000     0.00000     1.25520  0.0
    177    172    173    174   5     0.00000     0.00000     1.25520  0.0
    177    172    173    178   5     0.00000     0.00000     1.25520  0.0
    177    172    173    179   5     0.00000     0.00000     1.25520  0.0
    171    172    174    173   5     0.65689    -0.33054     5.63585  0.0
    171    172    174    180   5     0.00000     0.00000     1.25520  0.0
    171    172    174    181   5     0.00000     0.00000     1.25520  0.0
    173    172    174    180   5     0.00000     0.00000     1.25520  0.0
    173    172    174    181   5     0.00000     0.00000     1.25520  0.0
    177    172    174    173   5     0.00000     0.00000     1.25520  0.0
    177    172    174    180   5     0.00000     0.00000     1.25520  0.0
    177    172    174    181   5     0.00000     0.00000     1.25520  0.0
    172    173    174    180   5     0.00000     0.00000     1.25520  0.0
    172    173    174    181   5     0.00000     0.00000     1.25520  0.0
    178    173    174    172   5     0.00000     0.00000     1.25520  0.0
    178    173    174    180   5     0.00000     0.00000     1.25520  0.0
    178    173    174    181   5     0.00000     0.00000     1.25520  0.0
    179    173    174    172   5     0.00000     0.00000     1.25520  0.0
    179    173    174    180   5     0.00000     0.00000     1.25520  0.0
    179    173    174    181   5     0.00000     0.00000     1.25520  0.0
    171    175    184    185   5     3.93714     0.32635     1.68197  0.0
    171    175    184    188   5     4.74884    -0.63178     1.67360  0.0
    171    175    184    189   5     0.00000     0.00000     1.25520  0.0
    182    175    184    185   5     0.00000     0.00000     1.25520  0.0
    182    175    184    188   5     0.00000     0.00000     1.25520  0.0
    182    175    184    189   5     0.00000     0.00000     1.25520  0.0
    183    175    184    185   5     0.00000     0.00000     1.25520  0.0
    183    175    184    188   5     0.00000     0.00000     1.25520  0.0
    183    175    184    189   5     0.00000     0.00000     1.25520  0.0
    175    184    185    186   5     0.65689    -0.33054     5.63585  0.0
    175    184    185    187   5     0.65689    -0.33054     5.63585  0.0
    175    184    185    190   5     0.00000     0.00000     1.25520  0.0
    188    184    185    186   5     0.65689    -0.33054     5.63585  0.0
    188    184    185    187   5     0.65689    -0.33054     5.63585  0.0
    188    184    185    190   5     0.00000     0.00000     1.25520  0.0
    189    184    185    186   5     0.00000     0.00000     1.25520  0.0
    189    184    185    187   5     0.00000     0.00000     1.25520  0.0
    189    184    185    190   5     0.00000     0.00000     1.25520  0.0
    175    184    188    195   5     0.00000     0.00000     1.25520  0.0
    175    184    188    196   5     0.00000     0.00000     1.25520  0.0
    175    184    188    197   5     4.74884    -0.63178     1.67360  0.0
    185    184    188    195   5     0.00000     0.00000     1.25520  0.0
    185    184    188    196   5     0.00000     0.00000     1.25520  0.0
    185    184    188    197   5     3.93714     0.32635     1.68197  0.0
    189    184    188    195   5     0.00000     0.00000     1.25520  0.0
    189    184    188    196   5     0.00000     0.00000     1.25520  0.0
    189    184    188    197   5     0.00000     0.00000     1.25520  0.0
    184    185    186    187   5     0.65689    -0.33054     5.63585  0.0
    184    185    186    191   5     0.00000     0.00000     1.25520  0.0
    184    185    186    192   5     0.00000     0.00000     1.25520  0.0
    187    185    186    191   5     0.00000     0.00000     1.25520  0.0
    187    185    186    192   5     0.00000     0.00000     1.25520  0.0
    190    185    186    187   5     0.00000     0.00000     1.25520  0.0
    190    185    186    191   5     0.00000     0.00000     1.25520  0.0
    190    185    186    192   5     0.00000     0.00000     1.25520  0.0
    184    185    187    186   5     0.65689    -0.33054     5.63585  0.0
    184    185    187    193   5     0.00000     0.00000     1.25520  0.0
    184    185    187    194   5     0.00000     0.00000     1.25520  0.0
    186    185    187    193   5     0.00000     0.00000     1.25520  0.0
    186    185    187    194   5     0.00000     0.00000     1.25520  0.0
    190    185    187    186   5     0.00000     0.00000     1.25520  0.0
    190    185    187    193   5     0.00000     0.00000     1.25520  0.0
    190    185    187    194   5     0.00000     0.00000     1.25520  0.0
    185    186    187    193   5     0.00000     0.00000     1.25520  0.0
    185    186    187    194   5     0.00000     0.00000     1.25520  0.0
    191    186    187    185   5     0.00000     0.00000     1.25520  0.0
    191    186    187    193   5     0.00000     0.00000     1.25520  0.0
    191    186    187    194   5     0.00000     0.00000     1.25520  0.0
    192    186    187    185   5     0.00000     0.00000     1.25520  0.0
    192    186    187    193   5     0.00000     0.00000     1.25520  0.0
    192    186    187    194   5     0.00000     0.00000     1.25520  0.0
    184    188    197    198   5     3.93714     0.32635     1.68197  0.0
    184    188    197    201   5     4.74884    -0.63178     1.67360  0.0
    184    188    197    202   5     0.00000     0.00000     1.25520  0.0
    195    188    197    198   5     0.00000     0.00000     1.25520  0.0
    195    188    197    201   5     0.00000     0.00000     1.25520  0.0
    195    188    197    202   5     0.00000     0.00000     1.25520  0.0
    196    188    197    198   5     0.00000     0.00000     1.25520  0.0
    196    188    197    201   5     0.00000     0.00000     1.25520  0.0
    196    188    197    202   5     0.00000     0.00000     1.25520  0.0
    188    197    198    199   5     0.65689    -0.33054     5.63585  0.0
    188    197    198    200   5     0.65689    -0.33054     5.63585  0.0
    188    197    198    203   5     0.00000     0.00000     1.25520  0.0
    201    197    198    199   5     0.65689    -0.33054     5.63585  0.0
    201    197    198    200   5     0.65689    -0.33054     5.63585  0.0
    201    197    198    203   5     0.00000     0.00000     1.25520  0.0
    202    197    198    199   5     0.00000     0.00000     1.25520  0.0
    202    197    198    200   5     0.00000     0.00000     1.25520  0.0
    202    197    198    203   5     0.00000     0.00000     1.25520  0.0
    188    197    201    208   5     0.00000     0.00000     1.25520  0.0
    188    197    201    209   5     0.00000     0.00000     1.25520  0.0
    188    197    201    210   5     4.74884    -0.63178     1.67360  0.0
    198    197    201    208   5     0.00000     0.00000     1.25520  0.0
    198    197    201    209   5     0.00000     0.00000     1.25520  0.0
    198    197    201    210   5     3.93714     0.32635     1.68197  0.0
    202    197    201    208   5     0.00000     0.00000     1.25520  0.0
    202    197    201    209   5     0.00000     0.00000     1.25520  0.0
    202    197    201    210   5     0.00000     0.00000     1.25520  0.0
    197    198    199    200   5     0.65689    -0.33054     5.63585  0.0
    197    198    199    204   5     0.00000     0.00000     1.25520  0.0
    197    198    199    205   5     0.00000     0.00000     1.25520  0.0
    200    198    199    204   5     0.00000     0.00000     1.25520  0.0
    200    198    199    205   5     0.00000     0.00000     1.25520  0.0
    203    198    199    200   5     0.00000     0.00000     1.25520  0.0
    203    198    199    204   5     0.00000     0.00000     1.25520  0.0
    203    198    199    205   5     0.00000     0.00000     1.25520  0.0
    197    198    200    199   5     0.65689    -0.33054     5.63585  0.0
    197    198    200    206   5     0.00000     0.00000     1.25520  0.0
    197    198    200    207   5     0.00000     0.00000     1.25520  0.0
    199    198    200    206   5     0.00000     0.00000     1.25520  0.0
    199    198    200    207   5     0.00000     0.00000     1.25520  0.0
    203    198    200    199   5     0.00000     0.00000     1.25520  0.0
    203    198    200    206   5     0.00000     0.00000     1.25520  0.0
    203    198    200    207   5     0.00000     0.00000     1.25520  0.0
    198    199    200    206   5     0.00000     0.00000     1.25520  0.0
    198    199    200    207   5     0.00000     0.00000     1.25520  0.0
    204    199    200    198   5     0.00000     0.00000     1.25520  0.0
    204    199    200    206   5     0.00000     0.00000     1.25520  0.0
    204    199    200    207   5     0.00000     0.00000     1.25520  0.0
    205    199    200    198   5     0.00000     0.00000     1.25520  0.0
    205    199    200    206   5     0.00000     0.00000     1.25520  0.0
    205    199    200    207   5     0.00000     0.00000     1.25520  0.0
    197    201    210    211   5     3.93714     0.32635     1.68197  0.0
    197    201    210    214   5     4.74884    -0.63178     1.67360  0.0
    197    201    210    215   5     0.00000     0.00000     1.25520  0.0
    208    201    210    211   5     0.00000     0.00000     1.25520  0.0
    208    201    210    214   5     0.00000     0.00000     1.25520  0.0
    208    201    210    215   5     0.00000     0.00000     1.25520  0.0
    209    201    210    211   5     0.00000     0.00000     1.25520  0.0
    209    201    210    214   5     0.00000     0.00000     1.25520  0.0
    209    201    210    215   5     0.00000     0.00000     1.25520  0.0
    201    210    211    212   5     0.65689    -0.33054     5.63585  0.0
    201    210    211    213   5     0.65689    -0.33054     5.63585  0.0
    201    210    211    216   5     0.00000     0.00000     1.25520  0.0
    214    210    211    212   5     0.65689    -0.33054     5.63585  0.0
    214    210    211    213   5     0.65689    -0.33054     5.63585  0.0
    214    210    211    216   5     0.00000     0.00000     1.25520  0.0
    215    210    211    212   5     0.00000     0.00000     1.25520  0.0
    215    210    211    213   5     0.00000     0.00000     1.25520  0.0
    215    210    211    216   5     0.00000     0.00000     1.25520  0.0
    201    210    214    221   5     0.00000     0.00000     1.25520  0.0
    201    210    214    222   5     0.00000     0.00000     1.25520  0.0
    201    210    214    223   5     4.74884    -0.63178     1.67360  0.0
    211    210    214    221   5     0.00000     0.00000     1.25520  0.0
    211    210    214    222   5     0.00000     0.00000     1.25520  0.0
    211    210    214    223   5     3.93714     0.32635     1.68197  0.0
    215    210    214    221   5     0.00000     0.00000     1.25520  0.0
    215    210    214    222   5     0.00000     0.00000     1.25520  0.0
    215    210    214    223   5     0.00000     0.00000     1.25520  0.0
    210    211    212    213   5     0.65689    -0.33054     5.63585  0.0
    210    211    212    217   5     0.00000     0.00000     1.25520  0.0
    210    211    212    218   5     0.00000     0.00000     1.25520  0.0
    213    211    212    217   5     0.00000     0.00000     1.25520  0.0
    213    211    212    218   5     0.00000     0.00000     1.25520  0.0
    216    211    212    213   5     0.00000     0.00000     1.25520  0.0
    216    211    212    217   5     0.00000     0.00000     1.25520  0.0
    216    211    212    218   5     0.00000     0.00000     1.25520  0.0
    210    211    213    212   5     0.65689    -0.33054     5.63585  0.0
    210    211    213    219   5     0.00000     0.00000     1.25520  0.0
    210    211    213    220   5     0.00000     0.00000     1.25520  0.0
    212    211    213    219   5     0.00000     0.00000     1.25520  0.0
    212    211    213    220   5     0.00000     0.00000     1.25520  0.0
    216    211    213    212   5     0.00000     0.00000     1.25520  0.0
    216    211    213    219   5     0.00000     0.00000     1.25520  0.0
    216    211    213    220   5     0.00000     0.00000     1.25520  0.0
    211    212    213    219   5     0.00000     0.00000     1.25520  0.0
    211    212    213    220   5     0.00000     0.00000     1.25520  0.0
    217    212    213    211   5     0.00000     0.00000     1.25520  0.0
    217    212    213    219   5     0.00000     0.00000     1.25520  0.0
    217    212    213    220   5     0.00000     0.00000     1.25520  0.0
    218    212    213    211   5     0.00000     0.00000     1.25520  0.0
    218    212    213    219   5     0.00000     0.00000     1.25520  0.0
    218    212    213    220   5     0.00000     0.00000     1.25520  0.0
    210    214    223    224   5     3.93714     0.32635     1.68197  0.0
    210    214    223    227   5     4.74884    -0.63178     1.67360  0.0
    210    214    223    228   5     0.00000     0.00000     1.25520  0.0
    221    214    223    224   5     0.00000     0.00000     1.25520  0.0
    221    214    223    227   5     0.00000     0.00000     1.25520  0.0
    221    214    223    228   5     0.00000     0.00000     1.25520  0.0
    222    214    223    224   5     0.00000     0.00000     1.25520  0.0
    222    214    223    227   5     0.00000     0.00000     1.25520  0.0
    222    214    223    228   5     0.00000     0.00000     1.25520  0.0
    214    223    224    225   5     0.65689    -0.33054     5.63585  0.0
    214    223    224    226   5     0.65689    -0.33054     5.63585  0.0
    214    223    224    229   5     0.00000     0.00000     1.25520  0.0
    227    223    224    225   5     0.65689    -0.33054     5.63585  0.0
    227    223    224    226   5     0.65689    -0.33054     5.63585  0.0
    227    223    224    229   5     0.00000     0.00000     1.25520  0.0
    228    223    224    225   5     0.00000     0.00000     1.25520  0.0
    228    223    224    226   5     0.00000     0.00000     1.25520  0.0
    228    223    224    229   5     0.00000     0.00000     1.25520  0.0
    214    223    227    234   5     0.00000     0.00000     1.25520  0.0
    214    223    227    235   5     0.00000     0.00000     1.25520  0.0
    214    223    227    236   5     4.74884    -0.63178     1.67360  0.0
    224    223    227    234   5     0.00000     0.00000     1.25520  0.0
    224    223    227    235   5     0.00000     0.00000     1.25520  0.0
    224    223    227    236   5     3.93714     0.32635     1.68197  0.0
    228    223    227    234   5     0.00000     0.00000     1.25520  0.0
    228    223    227    235   5     0.00000     0.00000     1.25520  0.0
    228    223    227    236   5     0.00000     0.00000     1.25520  0.0
    223    224    225    226   5     0.65689    -0.33054     5.63585  0.0
    223    224    225    230   5     0.00000     0.00000     1.25520  0.0
    223    224    225    231   5     0.00000     0.00000     1.25520  0.0
    226    224    225    230   5     0.00000     0.00000     1.25520  0.0
    226    224    225    231   5     0.00000     0.00000     1.25520  0.0
    229    224    225    226   5     0.00000     0.00000     1.25520  0.0
    229    224    225    230   5     0.00000     0.00000     1.25520  0.0
    229    224    225    231   5     0.00000     0.00000     1.25520  0.0
    223    224    226    225   5     0.65689    -0.33054     5.63585  0.0
    223    224    226    232   5     0.00000     0.00000     1.25520  0.0
    223    224    226    233   5     0.00000     0.00000     1.25520  0.0
    225    224    226    232   5     0.00000     0.00000     1.25520  0.0
    225    224    226    233   5     0.00000     0.00000     1.25520  0.0
    229    224    226    225   5     0.00000     0.00000     1.25520  0.0
    229    224    226    232   5     0.00000     0.00000     1.25520  0.0
    229    224    226    233   5     0.00000     0.00000     1.25520  0.0
    224    225    226    232   5     0.00000     0.00000     1.25520  0.0
    224    225    226    233   5     0.00000     0.00000     1.25520  0.0
    230    225    226    224   5     0.00000     0.00000     1.25520  0.0
    230    225    226    232   5     0.00000     0.00000     1.25520  0.0
    230    225    226    233   5     0.00000     0.00000     1.25520  0.0
    231    225    226    224   5     0.00000     0.00000     1.25520  0.0
    231    225    226    232   5     0.00000     0.00000     1.25520  0.0
    231    225    226    233   5     0.00000     0.00000     1.25520  0.0
    223    227    236    237   5     3.93714     0.32635     1.68197  0.0
    223    227    236    240   5     4.74884    -0.63178     1.67360  0.0
    223    227    236    241   5     0.00000     0.00000     1.25520  0.0
    234    227    236    237   5     0.00000     0.00000     1.25520  0.0
    234    227    236    240   5     0.00000     0.00000     1.25520  0.0
    234    227    236    241   5     0.00000     0.00000     1.25520  0.0
    235    227    236    237   5     0.00000     0.00000     1.25520  0.0
    235    227    236    240   5     0.00000     0.00000     1.25520  0.0
    235    227    236    241   5     0.00000     0.00000     1.25520  0.0
    227    236    237    238   5     0.65689    -0.33054     5.63585  0.0
    227    236    237    239   5     0.65689    -0.33054     5.63585  0.0
    227    236    237    242   5     0.00000     0.00000     1.25520  0.0
    240    236    237    238   5     0.65689    -0.33054     5.63585  0.0
    240    236    237    239   5     0.65689    -0.33054     5.63585  0.0
    240    236    237    242   5     0.00000     0.00000     1.25520  0.0
    241    236    237    238   5     0.00000     0.00000     1.25520  0.0
    241    236    237    239   5     0.00000     0.00000     1.25520  0.0
    241    236    237    242   5     0.00000     0.00000     1.25520  0.0
    227    236    240    247   5     0.00000     0.00000     1.25520  0.0
    227    236    240    248   5     0.00000     0.00000     1.25520  0.0
    227    236    240    249   5     4.74884    -0.63178     1.67360  0.0
    237    236    240    247   5     0.00000     0.00000     1.25520  0.0
    237    236    240    248   5     0.00000     0.00000     1.25520  0.0
    237    236    240    249   5     3.93714     0.32635     1.68197  0.0
    241    236    240    247   5     0.00000     0.00000     1.25520  0.0
    241    236    240    248   5     0.00000     0.00000     1.25520  0.0
    241    236    240    249   5     0.00000     0.00000     1.25520  0.0
    236    237    238    239   5     0.65689    -0.33054     5.63585  0.0
    236    237    238    243   5     0.00000     0.00000     1.25520  0.0
    236    237    238    244   5     0.00000     0.00000     1.25520  0.0
    239    237    238    243   5     0.00000     0.00000     1.25520  0.0
    239    237    238    244   5     0.00000     0.00000     1.25520  0.0
    242    237    238    239   5     0.00000     0.00000     1.25520  0.0
    242    237    238    243   5     0.00000     0.00000     1.25520  0.0
    242    237    238    244   5     0.00000     0.00000     1.25520  0.0
    236    237    239    238   5     0.65689    -0.33054     5.63585  0.0
    236    237    239    245   5     0.00000     0.00000     1.25520  0.0
    236    237    239    246   5     0.00000     0.00000     1.25520  0.0
    238    237    239    245   5     0.00000     0.00000     1.25520  0.0
    238    237    239    246   5     0.00000     0.00000     1.25520  0.0
    242    237    239    238   5     0.00000     0.00000     1.25520  0.0
    242    237    239    245   5     0.00000     0.00000     1.25520  0.0
    242    237    239    246   5     0.00000     0.00000     1.25520  0.0
    237    238    239    245   5     0.00000     0.00000     1.25520  0.0
    237    238    239    246   5     0.00000     0.00000     1.25520  0.0
    243    238    239    237   5     0.00000     0.00000     1.25520  0.0
    243    238    239    245   5     0.00000     0.00000     1.25520  0.0
    243    238    239    246   5     0.00000     0.00000     1.25520  0.0
    244    238    239    237   5     0.00000     0.00000     1.25520  0.0
    244    238    239    245   5     0.00000     0.00000     1.25520  0.0
    244    238    239    246   5     0.00000     0.00000     1.25520  0.0
    236    240    249    250   5     3.93714     0.32635     1.68197  0.0
    236    240    249    253   5     4.74884    -0.63178     1.67360  0.0
    236    240    249    254   5     0.00000     0.00000     1.25520  0.0
    247    240    249    250   5     0.00000     0.00000     1.25520  0.0
    247    240    249    253   5     0.00000     0.00000     1.25520  0.0
    247    240    249    254   5     0.00000     0.00000     1.25520  0.0
    248    240    249    250   5     0.00000     0.00000     1.25520  0.0
    248    240    249    253   5     0.00000     0.00000     1.25520  0.0
    248    240    249    254   5     0.00000     0.00000     1.25520  0.0
    240    249    250    251   5     0.65689    -0.33054     5.63585  0.0
    240    249    250    252   5     0.65689    -0.33054     5.63585  0.0
    240    249    250    255   5     0.00000     0.00000     1.25520  0.0
    253    249    250    251   5     0.65689    -0.33054     5.63585  0.0
    253    249    250    252   5     0.65689    -0.33054     5.63585  0.0
    253    249    250    255   5     0.00000     0.00000     1.25520  0.0
    254    249    250    251   5     0.00000     0.00000     1.25520  0.0
    254    249    250    252   5     0.00000     0.00000     1.25520  0.0
    254    249    250    255   5     0.00000     0.00000     1.25520  0.0
    240    249    253    260   5     0.00000     0.00000     1.25520  0.0
    240    249    253    261   5     0.00000     0.00000     1.25520  0.0
    240    249    253    262   5     0.00000     0.00000     1.25520  0.0
    250    249    253    260   5     0.00000     0.00000     1.25520  0.0
    250    249    253    261   5     0.00000     0.00000     1.25520  0.0
    250    249    253    262   5     0.00000     0.00000     1.25520  0.0
    254    249    253    260   5     0.00000     0.00000     1.25520  0.0
    254    249    253    261   5     0.00000     0.00000     1.25520  0.0
    254    249    253    262   5     0.00000     0.00000     1.25520  0.0
    249    250    251    252   5     0.65689    -0.33054     5.63585  0.0
    249    250    251    256   5     0.00000     0.00000     1.25520  0.0
    249    250    251    257   5     0.00000     0.00000     1.25520  0.0
    252    250    251    256   5     0.00000     0.00000     1.25520  0.0
    252    250    251    257   5     0.00000     0.00000     1.25520  0.0
    255    250    251    252   5     0.00000     0.00000     1.25520  0.0
    255    250    251    256   5     0.00000     0.00000     1.25520  0.0
    255    250    251    257   5     0.00000     0.00000     1.25520  0.0
    249    250    252    251   5     0.65689    -0.33054     5.63585  0.0
    249    250    252    258   5     0.00000     0.00000     1.25520  0.0
    249    250    252    259   5     0.00000     0.00000     1.25520  0.0
    251    250    252    258   5     0.00000     0.00000     1.25520  0.0
    251    250    252    259   5     0.00000     0.00000     1.25520  0.0
    255    250    252    251   5     0.00000     0.00000     1.25520  0.0
    255    250    252    258   5     0.00000     0.00000     1.25520  0.0
    255    250    252    259   5     0.00000     0.00000     1.25520  0.0
    250    251    252    258   5     0.00000     0.00000     1.25520  0.0
    250    251    252    259   5     0.00000     0.00000     1.25520  0.0
    256    251    252    250   5     0.00000     0.00000     1.25520  0.0
    256    251    252    258   5     0.00000     0.00000     1.25520  0.0
    256    251    252    259   5     0.00000     0.00000     1.25520  0.0
    257    251    252    250   5     0.00000     0.00000     1.25520  0.0
    257    251    252    258   5     0.00000     0.00000     1.25520  0.0
    257    251    252    259   5     0.00000     0.00000     1.25520  0.0
